
                                 *****************
                                 * O   R   C   A *
                                 *****************

           --- An Ab Initio, DFT and Semiempirical electronic structure package ---

                  #######################################################
                  #                        -***-                        #
                  #          Department of theory and spectroscopy      #
                  #               Directorship: Frank Neese             #
                  #        Max Planck Institute fuer Kohlenforschung    #
                  #                Kaiser Wilhelm Platz 1               #
                  #                 D-45470 Muelheim/Ruhr               #
                  #                      Germany                        #
                  #                                                     #
                  #                  All rights reserved                #
                  #                        -***-                        #
                  #######################################################


                         Program Version 4.2.1 -  RELEASE  -


 With contributions from (in alphabetic order):
   Daniel Aravena         : Magnetic Suceptibility
   Michael Atanasov       : Ab Initio Ligand Field Theory (pilot matlab implementation)
   Alexander A. Auer      : GIAO ZORA, VPT2
   Ute Becker             : Parallelization
   Giovanni Bistoni       : ED, misc. LED, open-shell LED, HFLD
   Martin Brehm           : Molecular dynamics
   Dmytro Bykov           : SCF Hessian
   Vijay G. Chilkuri      : MRCI spin determinant printing, contributions to CSF-ICE
   Dipayan Datta          : RHF DLPNO-CCSD density
   Achintya Kumar Dutta   : EOM-CC, STEOM-CC
   Dmitry Ganyushin       : Spin-Orbit,Spin-Spin,Magnetic field MRCI
   Miquel Garcia          : C-PCM Hessian, Gaussian charge scheme
   Yang Guo               : DLPNO-NEVPT2, CIM, IAO-localization
   Andreas Hansen         : Spin unrestricted coupled pair/coupled cluster methods
   Benjamin Helmich-Paris : CASSCF linear response (MC-RPA)
   Lee Huntington         : MR-EOM, pCC
   Robert Izsak           : Overlap fitted RIJCOSX, COSX-SCS-MP3, EOM
   Christian Kollmar      : KDIIS, OOCD, Brueckner-CCSD(T), CCSD density
   Simone Kossmann        : Meta GGA functionals, TD-DFT gradient, OOMP2, MP2 Hessian
   Martin Krupicka        : AUTO-CI
   Lucas Lang             : DCDCAS
   Dagmar Lenk            : GEPOL surface, SMD
   Dimitrios Liakos       : Extrapolation schemes; Compound Job, initial MDCI parallelization
   Dimitrios Manganas     : Further ROCIS development; embedding schemes
   Dimitrios Pantazis     : SARC Basis sets
   Taras Petrenko         : DFT Hessian,TD-DFT gradient, ASA, ECA, R-Raman, ABS, FL, XAS/XES, NRVS
   Peter Pinski           : DLPNO-MP2, DLPNO-MP2 Gradient
   Christoph Reimann      : Effective Core Potentials
   Marius Retegan         : Local ZFS, SOC
   Christoph Riplinger    : Optimizer, TS searches, QM/MM, DLPNO-CCSD(T), (RO)-DLPNO pert. Triples
   Tobias Risthaus        : Range-separated hybrids, TD-DFT gradient, RPA, STAB
   Michael Roemelt        : Original ROCIS implementation
   Masaaki Saitow         : Open-shell DLPNO-CCSD energy and density
   Barbara Sandhoefer     : DKH picture change effects
   Avijit Sen             : IP-ROCIS
   Kantharuban Sivalingam : CASSCF convergence, NEVPT2, FIC-MRCI
   Bernardo de Souza      : ESD, SOC TD-DFT
   Georgi Stoychev        : AutoAux, RI-MP2 NMR
   Willem Van den Heuvel  : Paramagnetic NMR
   Boris Wezisla          : Elementary symmetry handling
   Frank Wennmohs         : Technical directorship


 We gratefully acknowledge several colleagues who have allowed us to
 interface, adapt or use parts of their codes:
   Stefan Grimme, W. Hujo, H. Kruse,             : VdW corrections, initial TS optimization,
                  C. Bannwarth                     DFT functionals, gCP, sTDA/sTD-DF
   Ed Valeev, F. Pavosevic, A. Kumar             : LibInt (2-el integral package), F12 methods
   Garnet Chan, S. Sharma, J. Yang, R. Olivares  : DMRG
   Ulf Ekstrom                                   : XCFun DFT Library
   Mihaly Kallay                                 : mrcc  (arbitrary order and MRCC methods)
   Andreas Klamt, Michael Diedenhofen            : otool_cosmo (COSMO solvation model)
   Jiri Pittner, Ondrej Demel                    : Mk-CCSD
   Frank Weinhold                                : gennbo (NPA and NBO analysis)
   Christopher J. Cramer and Donald G. Truhlar   : smd solvation model
   Lars Goerigk                                  : TD-DFT with DH, B97 family of functionals
   V. Asgeirsson, H. Jonsson                     : NEB implementation
   FAccTs GmbH                                   : IRC, NEB, NEB-TS, Multilevel, MM, QM/MM, CI optimization
   S Lehtola, MJT Oliveira, MAL Marques          : LibXC Library


 Your calculation uses the libint2 library for the computation of 2-el integrals
 For citations please refer to: http://libint.valeyev.net

 Your ORCA version has been built with support for libXC version: 4.2.3
 For citations please refer to: https://tddft.org/programs/libxc/

 This ORCA versions uses:
   CBLAS   interface :  Fast vector & matrix operations
   LAPACKE interface :  Fast linear algebra routines
   SCALAPACK package :  Parallel linear algebra routines




***************************************
The coordinates will be read from file: init.xyz
***************************************


Your calculation utilizes the geometrical counterpoise correction gCP
Please cite in your paper:
H.Kruse, S. Grimme J.Chem.Phys., 136, (2012), 154101 
   

Your calculation utilizes the atom-pairwise dispersion correction
based on tight binding partial charges (D4)
Cite in your paper:
E.Caldeweyher, C.Bannwarth, S.Grimme, J.Chem.Phys., (2017), 147, 034112.
E.Caldeweyher, S.Ehlert, A.Hansen, H.Neugebauer, S.Grimme, J.Chem.Phys., (2018), in progress.
   

----- Orbital basis set information -----
Your calculation utilizes the basis: def2-TZVP
   F. Weigend and R. Ahlrichs, Phys. Chem. Chem. Phys. 7, 3297 (2005).

----- AuxJ basis set information -----
Your calculation utilizes the auxiliary basis: def2/J
   F. Weigend, Phys. Chem. Chem. Phys. 8, 1057 (2006).

================================================================================
                                        WARNINGS
                       Please study these warnings very carefully!
================================================================================


WARNING: Geometry Optimization
  ===> : Switching off AutoStart
         For restart on a previous wavefunction, please use MOREAD

INFO   : the flag for use of LIBINT has been found!

================================================================================
                                       INPUT FILE
================================================================================
NAME = NH3.inp
|  1> ! BP86 D4 gCP(DFT/TZ) def2-TZVP Opt Freq TightOpt TightSCF Grid4 FinalGrid5 PrintBasis PrintMOs NBO
|  2> 
|  3> %pal
|  4>  nprocs 12
|  5> end
|  6> 
|  7> *xyzfile 0 1 init.xyz
|  8> 
|  9>                          ****END OF INPUT****
================================================================================

                       *****************************
                       * Geometry Optimization Run *
                       *****************************

Geometry optimization settings:
Update method            Update   .... BFGS
Choice of coordinates    CoordSys .... Z-matrix Internals
Initial Hessian          InHess   .... Almoef's Model

Convergence Tolerances:
Energy Change            TolE     ....  1.0000e-06 Eh
Max. Gradient            TolMAXG  ....  1.0000e-04 Eh/bohr
RMS Gradient             TolRMSG  ....  3.0000e-05 Eh/bohr
Max. Displacement        TolMAXD  ....  1.0000e-03 bohr
RMS Displacement         TolRMSD  ....  6.0000e-04 bohr
Strict Convergence                ....  False
------------------------------------------------------------------------------
                        ORCA OPTIMIZATION COORDINATE SETUP
------------------------------------------------------------------------------

The optimization will be done in new redundant internal coordinates
Making redundant internal coordinates   ...  (new redundants) done
Evaluating the initial hessian          ...  (Almloef) done
Evaluating the coordinates              ...  done
Calculating the B-matrix                .... done
Calculating the G-matrix                .... done
Diagonalizing the G-matrix              .... done
The first mode is                       ....    1
The number of degrees of freedom        ....    6

    -----------------------------------------------------------------
                    Redundant Internal Coordinates


    -----------------------------------------------------------------
         Definition                    Initial Value    Approx d2E/dq
    -----------------------------------------------------------------
      1. B(H   1,N   0)                  1.0245         0.410301   
      2. B(H   2,N   0)                  1.0245         0.410299   
      3. B(H   3,N   0)                  1.0245         0.410295   
      4. A(H   1,N   0,H   3)          106.0430         0.298161   
      5. A(H   2,N   0,H   3)          106.0428         0.298161   
      6. A(H   1,N   0,H   2)          106.0428         0.298161   
      7. I(H   1,H   3,H   2,N   0)    -62.6495         0.003510   
    -----------------------------------------------------------------

Number of atoms                         .... 4
Number of degrees of freedom            .... 7

         *************************************************************
         *                GEOMETRY OPTIMIZATION CYCLE   1            *
         *************************************************************
---------------------------------
CARTESIAN COORDINATES (ANGSTROEM)
---------------------------------
  N     -2.448642   -2.762637    0.018060
  H     -1.425808   -2.814106   -0.008565
  H     -2.762267   -3.609817    0.501254
  H     -2.762273   -2.857770   -0.952579

----------------------------
CARTESIAN COORDINATES (A.U.)
----------------------------
  NO LB      ZA    FRAG     MASS         X           Y           Z
   0 N     7.0000    0    14.007   -4.627263   -5.220628    0.034128
   1 H     1.0000    0     1.008   -2.694387   -5.317889   -0.016185
   2 H     1.0000    0     1.008   -5.219928   -6.821565    0.947233
   3 H     1.0000    0     1.008   -5.219939   -5.400402   -1.800114

--------------------------------
INTERNAL COORDINATES (ANGSTROEM)
--------------------------------
 N      0   0   0     0.000000000000     0.00000000     0.00000000
 H      1   0   0     1.024474300771     0.00000000     0.00000000
 H      1   2   0     1.024475646575   106.04275333     0.00000000
 H      1   2   3     1.024477691820   106.04299652   247.54884755

---------------------------
INTERNAL COORDINATES (A.U.)
---------------------------
 N      0   0   0     0.000000000000     0.00000000     0.00000000
 H      1   0   0     1.935975859697     0.00000000     0.00000000
 H      1   2   0     1.935978402899   106.04275333     0.00000000
 H      1   2   3     1.935982267852   106.04299652   247.54884755

---------------------
BASIS SET INFORMATION
---------------------
There are 2 groups of distinct atoms

 Group   1 Type N   : 11s6p2d1f contracted to 5s3p2d1f pattern {62111/411/11/1}
 Group   2 Type H   : 5s1p contracted to 3s1p pattern {311/1}

Atom   0N    basis set group =>   1
Atom   1H    basis set group =>   2
Atom   2H    basis set group =>   2
Atom   3H    basis set group =>   2

-------------------------
BASIS SET IN INPUT FORMAT
-------------------------

 # Basis set for element : H 
 NewGTO H 
 S 3 
   1      34.0613410000      0.0254393072
   2       5.1235746000      0.1900859489
   3       1.1646626000      0.8524411301
 S 1 
   1       0.3272304100      1.0000000000
 S 1 
   1       0.1030724100      1.0000000000
 P 1 
   1       0.8000000000      1.0000000000
  end;

 # Basis set for element : N 
 NewGTO N 
 S 6 
   1   19730.8006470000      0.0005862639
   2    2957.8958745000      0.0045428821
   3     673.2213359500      0.0235584136
   4     190.6824949400      0.0947091933
   5      62.2954418980      0.2971978492
   6      22.6541611820      0.6691624689
 S 2 
   1       8.9791477428      0.6459668363
   2       3.6863002370      0.3870057440
 S 1 
   1       0.8466007680      1.0000000000
 S 1 
   1       0.3364713377      1.0000000000
 S 1 
   1       0.1364765367      1.0000000000
 P 4 
   1      49.2003805100      0.0114488252
   2      11.3467905370      0.0784223379
   3       3.4273972411      0.3081809474
   4       1.1785525134      0.7202719637
 P 1 
   1       0.4164220497      1.0000000000
 P 1 
   1       0.1426082601      1.0000000000
 D 1 
   1       1.6540000000      1.0000000000
 D 1 
   1       0.4690000000      1.0000000000
 F 1 
   1       1.0930000000      1.0000000000
  end;

---------------------------------
AUXILIARY/J BASIS SET INFORMATION
---------------------------------
There are 2 groups of distinct atoms

 Group   1 Type N   : 12s5p4d2f1g contracted to 6s4p3d1f1g pattern {711111/2111/211/2/1}
 Group   2 Type H   : 5s2p1d contracted to 3s1p1d pattern {311/2/1}

Atom   0N    basis set group =>   1
Atom   1H    basis set group =>   2
Atom   2H    basis set group =>   2
Atom   3H    basis set group =>   2

-------------------------------------
AUXILIARY/J BASIS SET IN INPUT FORMAT
-------------------------------------

 # Auxiliary/J basis set for element : H 
 NewAuxJGTO H 
 S 3 
   1      15.6752927000      0.1007184237
   2       3.6063578000      0.3404257499
   3       1.2080016000      0.6491996172
 S 1 
   1       0.4726794000      1.0000000000
 S 1 
   1       0.2018100000      1.0000000000
 P 2 
   1       2.0281365000      0.5596620919
   2       0.5358730000      0.5596620919
 D 1 
   1       2.2165124000      1.0000000000
  end;

 # Auxiliary/J basis set for element : N 
 NewAuxJGTO N 
 S 7 
   1    2542.9401785000      0.0128431329
   2    1029.5472946000      0.0206655120
   3     424.9053546000      0.0652200677
   4     178.4573708000      0.1617388940
   5      76.1362742000      0.3094256941
   6      32.9338653000      0.3918849307
   7      14.4155436000      0.1822470660
 S 1 
   1       6.3718891000     -1.0000000000
 S 1 
   1       2.8381742000      1.0000000000
 S 1 
   1       1.2711793000      1.0000000000
 S 1 
   1       0.5712407000      1.0000000000
 S 1 
   1       0.2569887000      1.0000000000
 P 2 
   1      17.8975990000     -1.0974070137
   2       6.5346319000      0.1380055963
 P 1 
   1       2.3523645000      1.0000000000
 P 1 
   1       0.8397377000      1.0000000000
 P 1 
   1       0.2989335000      1.0000000000
 D 2 
   1       7.6909870000      0.1770780943
   2       2.3044972000      0.8918319220
 D 1 
   1       0.8403987000      1.0000000000
 D 1 
   1       0.3303797000      1.0000000000
 F 2 
   1       2.3331076000      0.6223178877
   2       0.8446137000      0.5036714203
 G 1 
   1       1.4037700000     -1.0000000000
  end;



           ************************************************************
           *        Program running with 12 parallel MPI-processes    *
           *              working on a common directory               *
           ************************************************************
------------------------------------------------------------------------------
                           ORCA GTO INTEGRAL CALCULATION
                           -- RI-GTO INTEGRALS CHOSEN --
------------------------------------------------------------------------------

                         BASIS SET STATISTICS AND STARTUP INFO

Gaussian basis set:
 # of primitive gaussian shells          ...   38
 # of primitive gaussian functions       ...   70
 # of contracted shells                  ...   23
 # of contracted basis functions         ...   49
 Highest angular momentum                ...    3
 Maximum contraction depth               ...    6
Auxiliary gaussian basis set:
 # of primitive gaussian shells          ...   48
 # of primitive gaussian functions       ...  118
 # of contracted shells                  ...   30
 # of contracted aux-basis functions     ...   82
 Highest angular momentum                ...    4
 Maximum contraction depth               ...    7
Ratio of auxiliary to basis functions    ...  1.67
Integral package used                  ... LIBINT
 One Electron integrals                  ... done
 Ordering auxiliary basis shells         ... done
 Integral threshhold             Thresh  ...  2.500e-11
 Primitive cut-off               TCut    ...  2.500e-12
 Pre-screening matrix                    ... done
 Shell pair data                         ... 
 Ordering of the shell pairs             ... done (   0.000 sec) 276 of 276 pairs
 Determination of significant pairs      ... done (   0.000 sec)
 Creation of shell pair data             ... done (   0.000 sec)
 Storage of shell pair data              ... done (   0.009 sec)
 Shell pair data done in (   0.009 sec)
 Computing two index integrals           ... done
 Cholesky decomposition of the V-matrix  ... done


Timings:
 Total evaluation time                   ...   0.217 sec (  0.004 min)
 One electron matrix time                ...   0.016 sec (  0.000 min) =  7.5%
 Schwartz matrix evaluation time         ...   0.160 sec (  0.003 min) = 73.7%
 Two index repulsion integral time       ...   0.003 sec (  0.000 min) =  1.5%
 Cholesky decomposition of V             ...   0.006 sec (  0.000 min) =  2.9%
 Three index repulsion integral time     ...   0.000 sec (  0.000 min) =  0.0%



           ************************************************************
           *        Program running with 12 parallel MPI-processes    *
           *              working on a common directory               *
           ************************************************************
-------------------------------------------------------------------------------
                                 ORCA SCF
-------------------------------------------------------------------------------

------------
SCF SETTINGS
------------
Hamiltonian:
 Density Functional     Method          .... DFT(GTOs)
 Exchange Functional    Exchange        .... B88
   X-Alpha parameter    XAlpha          ....  0.666667
   Becke's b parameter  XBeta           ....  0.004200
 Correlation Functional Correlation     .... P86
 LDA part of GGA corr.  LDAOpt          .... PW91-LDA
 Gradients option       PostSCFGGA      .... off
   Density functional embedding theory  .... OFF
 RI-approximation to the Coulomb term is turned on
   Number of auxiliary basis functions  .... 82


General Settings:
 Integral files         IntName         .... NH3
 Hartree-Fock type      HFTyp           .... RHF
 Total Charge           Charge          ....    0
 Multiplicity           Mult            ....    1
 Number of Electrons    NEL             ....   10
 Basis Dimension        Dim             ....   49
 Nuclear Repulsion      ENuc            ....     11.8171096757 Eh

Convergence Acceleration:
 DIIS                   CNVDIIS         .... on
   Start iteration      DIISMaxIt       ....    12
   Startup error        DIISStart       ....  0.200000
   # of expansion vecs  DIISMaxEq       ....     5
   Bias factor          DIISBfac        ....   1.050
   Max. coefficient     DIISMaxC        ....  10.000
 Newton-Raphson         CNVNR           .... off
 SOSCF                  CNVSOSCF        .... on
   Start iteration      SOSCFMaxIt      ....   150
   Startup grad/error   SOSCFStart      ....  0.003300
 Level Shifting         CNVShift        .... on
   Level shift para.    LevelShift      ....    0.2500
   Turn off err/grad.   ShiftErr        ....    0.0010
 Zerner damping         CNVZerner       .... off
 Static damping         CNVDamp         .... on
   Fraction old density DampFac         ....    0.7000
   Max. Damping (<1)    DampMax         ....    0.9800
   Min. Damping (>=0)   DampMin         ....    0.0000
   Turn off err/grad.   DampErr         ....    0.1000
 Fernandez-Rico         CNVRico         .... off

SCF Procedure:
 Maximum # iterations   MaxIter         ....   125
 SCF integral mode      SCFMode         .... Direct
   Integral package                     .... LIBINT
 Reset frequency        DirectResetFreq ....    20
 Integral Threshold     Thresh          ....  2.500e-11 Eh
 Primitive CutOff       TCut            ....  2.500e-12 Eh

Convergence Tolerance:
 Convergence Check Mode ConvCheckMode   .... Total+1el-Energy
 Convergence forced     ConvForced      .... 0
 Energy Change          TolE            ....  1.000e-08 Eh
 1-El. energy change                    ....  1.000e-05 Eh
 Orbital Gradient       TolG            ....  1.000e-05
 Orbital Rotation angle TolX            ....  1.000e-05
 DIIS Error             TolErr          ....  5.000e-07


Diagonalization of the overlap matrix:
Smallest eigenvalue                        ... 5.126e-03
Time for diagonalization                   ...    0.002 sec
Threshold for overlap eigenvalues          ... 1.000e-08
Number of eigenvalues below threshold      ... 0
Time for construction of square roots      ...    0.010 sec
Total time needed                          ...    0.012 sec

-------------------
DFT GRID GENERATION
-------------------

General Integration Accuracy     IntAcc      ...  4.670
Radial Grid Type                 RadialGrid  ... Gauss-Chebyshev
Angular Grid (max. acc.)         AngularGrid ... Lebedev-302
Angular grid pruning method      GridPruning ... 3 (G Style)
Weight generation scheme         WeightScheme... Becke
Basis function cutoff            BFCut       ...    1.0000e-11
Integration weight cutoff        WCut        ...    1.0000e-14
Grids for H and He will be reduced by one unit

# of grid points (after initial pruning)     ...  16394 (   0.0 sec)
# of grid points (after weights+screening)   ...  16132 (   0.0 sec)
nearest neighbour list constructed           ...    0.0 sec
Grid point re-assignment to atoms done       ...    0.0 sec
Grid point division into batches done        ...    0.1 sec
Reduced shell lists constructed in    0.1 sec

Total number of grid points                  ...    16132
Total number of batches                      ...      255
Average number of points per batch           ...       63
Average number of grid points per atom       ...     4033
Average number of shells per batch           ...    18.87 (82.04%)
Average number of basis functions per batch  ...    40.61 (82.87%)
Average number of large shells per batch     ...    17.57 (93.09%)
Average number of large basis fcns per batch ...    38.17 (94.00%)
Maximum spatial batch extension              ...  12.33, 10.83, 13.14 au
Average spatial batch extension              ...   0.29,  0.28,  0.27 au

Time for grid setup =    0.120 sec

------------------------------
INITIAL GUESS: MODEL POTENTIAL
------------------------------
Loading Hartree-Fock densities                     ... done
Calculating cut-offs                               ... done
Setting up the integral package                    ... done
Initializing the effective Hamiltonian             ... done
Starting the Coulomb interaction                   ... done (   0.0 sec)
Reading the grid                                   ... done
Mapping shells                                     ... done
Starting the XC term evaluation                    ... done (   0.0 sec)
  promolecular density results
     # of electrons  =      9.998528221
     EX              =     -7.443260580
     EC              =     -0.337039345
     EX+EC           =     -7.780299925
Transforming the Hamiltonian                       ... done (   0.0 sec)
Diagonalizing the Hamiltonian                      ... done (   0.0 sec)
Back transforming the eigenvectors                 ... done (   0.0 sec)
Now organizing SCF variables                       ... done
                      ------------------
                      INITIAL GUESS DONE (   0.3 sec)
                      ------------------
--------------
SCF ITERATIONS
--------------
ITER       Energy         Delta-E        Max-DP      RMS-DP      [F,P]     Damp
               ***  Starting incremental Fock matrix formation  ***
  0    -56.4689172359   0.000000000000 0.05720753  0.00378376  0.3262924 0.7000
  1    -56.5304206288  -0.061503392831 0.03542620  0.00240447  0.1231808 0.7000
                               ***Turning on DIIS***
  2    -56.5467699281  -0.016349299368 0.03220708  0.00280095  0.0111832 0.0000
  3    -56.5774033379  -0.030633409792 0.02086689  0.00130665  0.0833202 0.0000
  4    -56.5841601309  -0.006756793038 0.00655732  0.00049252  0.0231138 0.0000
  5    -56.5847340229  -0.000573891994 0.00221665  0.00018281  0.0054851 0.0000
                      *** Initiating the SOSCF procedure ***
                           *** Shutting down DIIS ***
                      *** Re-Reading the Fockian *** 
                      *** Removing any level shift *** 
ITER      Energy       Delta-E        Grad      Rot      Max-DP    RMS-DP
  6    -56.58477256  -0.0000385405  0.000462  0.000462  0.001057  0.000078
               *** Restarting incremental Fock matrix formation ***
  7    -56.58477579  -0.0000032267  0.000245  0.001037  0.001220  0.000078
  8    -56.58477606  -0.0000002676  0.000222  0.000170  0.000292  0.000021
  9    -56.58477630  -0.0000002375  0.000074  0.000292  0.000350  0.000022
 10    -56.58477636  -0.0000000655  0.000013  0.000055  0.000055  0.000004
                  ***Gradient check signals convergence***
              ***Rediagonalizing the Fockian in SOSCF/NRSCF***

               *****************************************************
               *                     SUCCESS                       *
               *           SCF CONVERGED AFTER  11 CYCLES          *
               *****************************************************

Setting up the final grid:

General Integration Accuracy     IntAcc      ...  5.010
Radial Grid Type                 RadialGrid  ... Gauss-Chebyshev
Angular Grid (max. acc.)         AngularGrid ... Lebedev-434
Angular grid pruning method      GridPruning ... 3 (G Style)
Weight generation scheme         WeightScheme... Becke
Basis function cutoff            BFCut       ...    1.0000e-11
Integration weight cutoff        WCut        ...    1.0000e-14
Grids for H and He will be reduced by one unit

# of grid points (after initial pruning)     ...  30666 (   0.0 sec)
# of grid points (after weights+screening)   ...  30114 (   0.0 sec)
nearest neighbour list constructed           ...    0.0 sec
Grid point re-assignment to atoms done       ...    0.0 sec
Grid point division into batches done        ...    0.2 sec
Reduced shell lists constructed in    0.2 sec

Total number of grid points                  ...    30114
Total number of batches                      ...      473
Average number of points per batch           ...       63
Average number of grid points per atom       ...     7528
Average number of shells per batch           ...    18.63 (81.02%)
Average number of basis functions per batch  ...    40.29 (82.23%)
Average number of large shells per batch     ...    17.27 (92.67%)
Average number of large basis fcns per batch ...    37.66 (93.46%)
Maximum spatial batch extension              ...  13.82, 12.80, 13.82 au
Average spatial batch extension              ...   0.23,  0.25,  0.24 au

Final grid set up in    0.4 sec
Final integration                            ... done (   0.0 sec)
Change in XC energy                          ...    -0.000000362
Integrated number of electrons               ...     9.999999184
Previous integrated no of electrons          ...     9.999980557

----------------
TOTAL SCF ENERGY
----------------

Total Energy       :          -56.58477672 Eh           -1539.75005 eV

Components:
Nuclear Repulsion  :           11.81710968 Eh             321.55990 eV
Electronic Energy  :          -68.40188640 Eh           -1861.30996 eV
One Electron Energy:          -99.44914867 Eh           -2706.14891 eV
Two Electron Energy:           31.04726227 Eh             844.83896 eV

Virial components:
Potential Energy   :         -112.89926536 Eh           -3072.14520 eV
Kinetic Energy     :           56.31448863 Eh            1532.39514 eV
Virial Ratio       :            2.00479962


DFT components:
N(Alpha)           :        4.999999591921 electrons
N(Beta)            :        4.999999591921 electrons
N(Total)           :        9.999999183842 electrons
E(X)               :       -7.676031843434 Eh       
E(C)               :       -0.344250311765 Eh       
E(XC)              :       -8.020282155199 Eh       
DFET-embed. en.    :        0.000000000000 Eh       

---------------
SCF CONVERGENCE
---------------

  Last Energy change         ...   -1.0389e-09  Tolerance :   1.0000e-08
  Last MAX-Density change    ...    2.5081e-06  Tolerance :   1.0000e-07
  Last RMS-Density change    ...    1.9000e-07  Tolerance :   5.0000e-09
  Last Orbital Gradient      ...    1.8469e-06  Tolerance :   1.0000e-05
  Last Orbital Rotation      ...    3.2949e-06  Tolerance :   1.0000e-05

             **** THE GBW FILE WAS UPDATED (NH3.gbw) ****
             **** DENSITY FILE WAS UPDATED (NH3.scfp) ****
             **** ENERGY FILE WAS UPDATED (NH3.en.tmp) ****
             **** THE GBW FILE WAS UPDATED (NH3.gbw) ****
             **** DENSITY FILE WAS UPDATED (NH3.scfp) ****
----------------
ORBITAL ENERGIES
----------------

  NO   OCC          E(Eh)            E(eV) 
   0   2.0000     -13.976784      -380.3276 
   1   2.0000      -0.775619       -21.1057 
   2   2.0000      -0.412026       -11.2118 
   3   2.0000      -0.412026       -11.2118 
   4   2.0000      -0.225500        -6.1362 
   5   0.0000       0.010751         0.2925 
   6   0.0000       0.091352         2.4858 
   7   0.0000       0.091355         2.4859 
   8   0.0000       0.271593         7.3904 
   9   0.0000       0.271598         7.3905 
  10   0.0000       0.321289         8.7427 
  11   0.0000       0.411893        11.2082 
  12   0.0000       0.470442        12.8014 
  13   0.0000       0.478815        13.0292 
  14   0.0000       0.478827        13.0295 
  15   0.0000       0.844709        22.9857 
  16   0.0000       0.844710        22.9857 
  17   0.0000       1.074956        29.2510 
  18   0.0000       1.199877        32.6503 
  19   0.0000       1.199896        32.6508 
  20   0.0000       1.529827        41.6287 
  21   0.0000       1.644403        44.7465 
  22   0.0000       1.644421        44.7470 
  23   0.0000       1.729132        47.0521 
  24   0.0000       1.888681        51.3936 
  25   0.0000       1.954313        53.1796 
  26   0.0000       1.954329        53.1800 
  27   0.0000       2.224792        60.5397 
  28   0.0000       2.234035        60.7912 
  29   0.0000       2.234052        60.7917 
  30   0.0000       2.335106        63.5415 
  31   0.0000       2.383545        64.8596 
  32   0.0000       2.383553        64.8598 
  33   0.0000       2.925008        79.5935 
  34   0.0000       3.145491        85.5932 
  35   0.0000       3.145512        85.5937 
  36   0.0000       3.929731       106.9334 
  37   0.0000       4.170294       113.4795 
  38   0.0000       4.170309       113.4799 
  39   0.0000       4.297391       116.9379 
  40   0.0000       4.488331       122.1337 
  41   0.0000       4.488341       122.1340 
  42   0.0000       4.492715       122.2530 
  43   0.0000       4.740884       129.0060 
  44   0.0000       4.740890       129.0062 
  45   0.0000       5.250614       142.8765 
  46   0.0000       5.250637       142.8771 
  47   0.0000       5.578395       151.7959 
  48   0.0000      31.147415       847.5643 
------------------
MOLECULAR ORBITALS
------------------
                      0         1         2         3         4         5   
                 -13.97678  -0.77562  -0.41203  -0.41203  -0.22550   0.01075
                   2.00000   2.00000   2.00000   2.00000   2.00000   0.00000
                  --------  --------  --------  --------  --------  --------
  0N   1s        -0.449006  0.095405 -0.000000  0.000000 -0.034776 -0.044727
  0N   2s        -0.625767  0.213104 -0.000000  0.000000 -0.078940 -0.106396
  0N   3s        -0.036744 -0.325615  0.000001 -0.000001  0.124551  0.247675
  0N   4s         0.024065 -0.379510 -0.000002  0.000002  0.200529 -0.012636
  0N   5s        -0.016607 -0.124238  0.000033 -0.000003  0.153726  1.851860
  0N   1pz        0.000767  0.034888 -0.157277  0.273746  0.173922 -0.055162
  0N   1px       -0.000591 -0.026846 -0.310141 -0.113468 -0.133834  0.042456
  0N   1py        0.001484  0.067444 -0.042097 -0.186773  0.336218 -0.106637
  0N   2pz       -0.000514  0.027907 -0.116275  0.202381  0.139901 -0.036079
  0N   2px        0.000396 -0.021477 -0.229292 -0.083892 -0.107664  0.027745
  0N   2py       -0.000994  0.053951 -0.031123 -0.138083  0.270457 -0.069756
  0N   3pz        0.000920  0.007027 -0.059402  0.103384  0.150766 -0.164119
  0N   3px       -0.000708 -0.005408 -0.117116 -0.042852 -0.116012  0.126318
  0N   3py        0.001779  0.013582 -0.015904 -0.070538  0.291457 -0.317256
  0N   1dz2      -0.000031 -0.000730  0.009672 -0.006327  0.000906 -0.000915
  0N   1dxz      -0.000036 -0.000835  0.003844 -0.002774  0.001037 -0.001047
  0N   1dyz       0.000091  0.002098  0.001589 -0.007483 -0.002605  0.002631
  0N   1dx2y2    -0.000074 -0.001706 -0.007967 -0.008610  0.002118 -0.002140
  0N   1dxy      -0.000070 -0.001614  0.004126  0.003672  0.002004 -0.002024
  0N   2dz2      -0.000020 -0.000800  0.005275 -0.011353  0.007273 -0.002512
  0N   2dxz      -0.000023 -0.000916  0.004260  0.009229  0.008322 -0.002882
  0N   2dyz       0.000059  0.002304  0.008912 -0.007598 -0.020897  0.007238
  0N   2dx2y2    -0.000048 -0.001876 -0.006896 -0.010196  0.016998 -0.005897
  0N   2dxy      -0.000045 -0.001773  0.014295  0.001262  0.016084 -0.005568
  0N   1f0        0.000043  0.002614 -0.000307  0.000060  0.001525  0.001053
  0N   1f+1       0.000048  0.002416 -0.000329  0.000813 -0.000539  0.001716
  0N   1f-1       0.000009  0.000461  0.000741 -0.001426  0.000053  0.000268
  0N   1f+2       0.000029  0.001976 -0.001041 -0.000202  0.001876  0.000522
  0N   1f-2      -0.000013 -0.000152  0.000569  0.001044  0.002176 -0.000922
  0N   1f+3       0.000048  0.002945  0.001167 -0.000295  0.001820  0.001149
  0N   1f-3       0.000004 -0.000043  0.001049  0.000841 -0.001108  0.000394
  1H   1s        -0.000223 -0.090275 -0.163384 -0.059776 -0.044580 -0.024366
  1H   2s         0.000163 -0.081373 -0.221885 -0.081171 -0.049462 -0.070834
  1H   3s         0.002845 -0.007286 -0.086728 -0.031728 -0.031745 -0.921311
  1H   1pz        0.000008  0.000735 -0.007071  0.011261  0.008732 -0.000484
  1H   1px       -0.000485  0.015673  0.019713  0.007210  0.001478 -0.034249
  1H   1py        0.000016  0.001422 -0.002717 -0.008157  0.016881 -0.000939
  2H   1s        -0.000223 -0.090276  0.029925  0.171384 -0.044581 -0.024365
  2H   2s         0.000163 -0.081374  0.040630  0.232729 -0.049465 -0.070894
  2H   3s         0.002845 -0.007289  0.015881  0.090966 -0.031739 -0.921162
  2H   1pz       -0.000235  0.008995 -0.009491 -0.005268  0.012903 -0.018090
  2H   1px        0.000153 -0.005980 -0.011062  0.006149 -0.009452  0.011913
  2H   1py        0.000396 -0.011471  0.003110  0.020087  0.010372  0.026535
  3H   1s        -0.000223 -0.090276  0.133460 -0.111608 -0.044582 -0.024365
  3H   2s         0.000163 -0.081375  0.181225 -0.151560 -0.049474 -0.070903
  3H   3s         0.002845 -0.007287  0.070834 -0.059236 -0.031738 -0.921146
  3H   1pz        0.000459 -0.014560  0.018672 -0.009673  0.001008  0.032110
  3H   1px        0.000153 -0.005979 -0.004481 -0.011837 -0.009452  0.011913
  3H   1py        0.000037  0.000714  0.000169 -0.009421  0.016524  0.000569
                      6         7         8         9        10        11   
                   0.09135   0.09135   0.27159   0.27160   0.32129   0.41189
                   0.00000   0.00000   0.00000   0.00000   0.00000   0.00000
                  --------  --------  --------  --------  --------  --------
  0N   1s        -0.000002  0.000002  0.000002 -0.000001  0.025936  0.058362
  0N   2s        -0.000005  0.000003  0.000005 -0.000004  0.053467  0.122308
  0N   3s         0.000009  0.000006 -0.000010  0.000014  0.034029  0.110434
  0N   4s         0.000020 -0.000061 -0.000011 -0.000014 -0.729163 -2.292794
  0N   5s         0.000005  0.000035 -0.000069  0.000101 -0.027773  2.769258
  0N   1pz       -0.196014 -0.156371  0.001081  0.006615 -0.126632  0.079334
  0N   1px       -0.196031  0.174259 -0.006633  0.002300  0.097436 -0.061061
  0N   1py        0.023357  0.150258 -0.003201 -0.002503 -0.244804  0.153332
  0N   2pz       -0.097966 -0.078157  0.039720  0.242304 -0.262221  0.245733
  0N   2px       -0.097971  0.087100 -0.242750  0.084090  0.201675 -0.189150
  0N   2py        0.011672  0.075111 -0.117195 -0.091851 -0.506856  0.474974
  0N   3pz       -0.643043 -0.513004  0.211072  1.284922  0.594062 -0.200903
  0N   3px       -0.643093  0.571661 -1.287054  0.445923 -0.457002  0.154675
  0N   3py        0.076647  0.492924 -0.621440 -0.487236  1.148375 -0.388195
  0N   1dz2      -0.005966  0.000831 -0.011324  0.027433 -0.001143  0.001734
  0N   1dxz      -0.003372 -0.004000 -0.000116  0.014990 -0.001307  0.001986
  0N   1dyz       0.000122 -0.003764  0.010960  0.015420  0.003284 -0.004987
  0N   1dx2y2     0.002462 -0.004771  0.029305  0.003421 -0.002671  0.004056
  0N   1dxy       0.001996  0.001845 -0.011554 -0.003731 -0.002527  0.003837
  0N   2dz2      -0.037955  0.003902  0.050075 -0.153229 -0.001452  0.002578
  0N   2dxz      -0.020805 -0.023160  0.015458 -0.065646 -0.001688  0.002943
  0N   2dyz      -0.000810 -0.023666 -0.049879 -0.093790  0.004270 -0.007389
  0N   2dx2y2     0.015522 -0.031022 -0.161793 -0.022407 -0.003489  0.006012
  0N   2dxy       0.010460  0.012245  0.075564  0.005017 -0.003285  0.005691
  0N   1f0        0.003934 -0.001636 -0.012085  0.009958  0.004592  0.014845
  0N   1f+1       0.000328  0.003355  0.010510  0.011017  0.006526  0.017587
  0N   1f-1       0.003081  0.001339 -0.002943  0.002074  0.001062  0.003048
  0N   1f+2      -0.001203 -0.002407 -0.010213 -0.004461  0.002629  0.009794
  0N   1f-2       0.001600  0.001841  0.008895  0.010043 -0.002917 -0.005350
  0N   1f+3      -0.003339  0.000145  0.009798 -0.014748  0.005059  0.016519
  0N   1f-3       0.001028 -0.004043 -0.005611 -0.003596  0.001192  0.001903
  1H   1s         0.031401 -0.027915  0.119859 -0.041524  0.012178  0.100690
  1H   2s         0.016043 -0.014265  1.406022 -0.487124  0.374288  0.923983
  1H   3s         1.504492 -1.337405 -0.210642  0.072945  0.010286 -1.096311
  1H   1pz       -0.009545 -0.004293  0.004298  0.023054  0.000312  0.008975
  1H   1px        0.044304 -0.039385 -0.116521  0.040363 -0.027904 -0.054631
  1H   1py       -0.002903  0.009191 -0.010305 -0.009126  0.000596  0.017340
  2H   1s         0.008474  0.041157 -0.095888 -0.083036  0.012179  0.100681
  2H   2s         0.004341  0.021085 -1.124744 -0.974041  0.374240  0.923904
  2H   3s         0.405970  1.971630  0.168479  0.145897  0.010412 -1.096054
  2H   1pz       -0.001196  0.024945  0.041225  0.055620 -0.013760 -0.015302
  2H   1px       -0.011696 -0.013281 -0.047736 -0.013134  0.008984  0.009005
  2H   1py       -0.010910 -0.051571 -0.070954 -0.060523  0.022537  0.055225
  3H   1s        -0.039880 -0.013238 -0.023970  0.124562  0.012179  0.100687
  3H   2s        -0.020398 -0.006782 -0.281180  1.461082  0.374209  0.923937
  3H   3s        -1.910502 -0.634228  0.042199 -0.218905  0.010439 -1.096214
  3H   1pz        0.055160  0.014783 -0.013793  0.114626  0.026329  0.053912
  3H   1px        0.011822  0.013173 -0.029387  0.039855  0.008979  0.009000
  3H   1py        0.008522  0.008338 -0.012227 -0.003641  0.001790  0.019414
                     12        13        14        15        16        17   
                   0.47044   0.47881   0.47883   0.84471   0.84471   1.07496
                   0.00000   0.00000   0.00000   0.00000   0.00000   0.00000
                  --------  --------  --------  --------  --------  --------
  0N   1s        -0.026389 -0.000015  0.000017 -0.000000  0.000000 -0.003281
  0N   2s        -0.047742 -0.000027  0.000029  0.000000  0.000001 -0.011415
  0N   3s        -0.106135 -0.000057  0.000079 -0.000009  0.000003  0.163187
  0N   4s         1.837869  0.000973 -0.001295  0.000023 -0.000026 -0.114785
  0N   5s        -6.260032 -0.003088  0.004615  0.000035  0.000022 -2.827567
  0N   1pz        0.001300  0.330882 -0.026880 -0.003676  0.040529  0.051707
  0N   1px       -0.001409  0.031112 -0.345870  0.041119  0.010994 -0.039761
  0N   1py        0.002839 -0.158786 -0.123772  0.018263 -0.016596  0.099945
  0N   2pz        0.056602  0.888190 -0.072175 -0.003883  0.043603  0.095809
  0N   2px       -0.044781  0.083493 -0.928325  0.044262  0.011804 -0.073956
  0N   2py        0.110334 -0.426171 -0.332313  0.019630 -0.017842  0.185187
  0N   3pz        0.539674 -1.835544  0.148707 -0.015138  0.167318  0.388770
  0N   3px       -0.412933 -0.172814  1.919268  0.169832  0.045346 -0.299331
  0N   3py        1.041451  0.881450  0.685902  0.075417 -0.068506  0.751572
  0N   1dz2       0.003088 -0.002305 -0.002384  0.000088 -0.001735  0.002268
  0N   1dxz       0.003536  0.004808  0.002918 -0.001017  0.000397  0.002600
  0N   1dyz      -0.008878 -0.002337  0.003048 -0.000210 -0.001493 -0.006525
  0N   1dx2y2     0.007225 -0.001366 -0.000966  0.001671 -0.000568  0.005309
  0N   1dxy       0.006839 -0.003027  0.004530 -0.001559 -0.000762  0.005023
  0N   2dz2       0.014664  0.006369 -0.005302 -0.337755  0.168315 -0.226920
  0N   2dxz       0.016746  0.004780 -0.000662  0.422331 -0.512679 -0.259842
  0N   2dyz      -0.042072  0.004567  0.002425  0.315422  0.295605  0.652744
  0N   2dx2y2     0.034191  0.002748  0.007567 -0.085263  0.126467 -0.531207
  0N   2dxy       0.032387 -0.002221 -0.002275  0.434291  0.439596 -0.502268
  0N   1f0        0.006000  0.001587 -0.003154  0.004645  0.003359  0.020043
  0N   1f+1       0.008836  0.003754  0.001570 -0.003552  0.004907  0.013904
  0N   1f-1       0.001423 -0.001746 -0.000598  0.001280 -0.000894  0.003021
  0N   1f+2       0.003321 -0.001038 -0.003061  0.004356 -0.001382  0.016878
  0N   1f-2      -0.004163  0.003265  0.002450 -0.003852  0.004211  0.004234
  0N   1f+3       0.006599 -0.003354  0.003783 -0.004527 -0.005737  0.022835
  0N   1f-3       0.001726 -0.000580  0.000715  0.000553 -0.001306 -0.002914
  1H   1s         0.022383 -0.009220  0.102620  0.012583  0.003363  0.002293
  1H   2s         1.084906 -0.060780  0.680279 -0.173145 -0.046214  1.122301
  1H   3s         1.034840  0.212420 -2.356708 -0.026183 -0.006985  0.313473
  1H   1pz        0.013272  0.011782 -0.000143  0.112899 -0.125637 -0.051343
  1H   1px       -0.031911  0.001546 -0.017249  0.018856  0.005019 -0.073456
  1H   1py        0.025647 -0.005820 -0.002856  0.123061  0.113468 -0.099269
  2H   1s         0.022296 -0.084278 -0.059348 -0.009206  0.009216  0.002342
  2H   2s         1.084196 -0.558827 -0.394515  0.126486 -0.126782  1.121635
  2H   3s         1.036951  1.934938  1.360782  0.019169 -0.019170  0.313563
  2H   1pz        0.002243  0.012950 -0.000194 -0.151520  0.013438 -0.108771
  2H   1px       -0.002993  0.000466 -0.012833 -0.037746 -0.158027  0.077151
  2H   1py        0.042822 -0.009753 -0.007337 -0.063900  0.057582 -0.009732
  3H   1s         0.022231  0.093519 -0.043357 -0.003391 -0.012583  0.002347
  3H   2s         1.083690  0.621036 -0.288370  0.046593  0.173014  1.121687
  3H   3s         1.038625 -2.145749  0.993746  0.007009  0.026139  0.313520
  3H   1pz        0.033635  0.016266 -0.003017  0.050292 -0.016338  0.054915
  3H   1px       -0.002995  0.001823 -0.012707 -0.111515  0.118143  0.077143
  3H   1py        0.026580 -0.004059 -0.005200 -0.117138 -0.118441 -0.094394
                     18        19        20        21        22        23   
                   1.19988   1.19990   1.52983   1.64440   1.64442   1.72913
                   0.00000   0.00000   0.00000   0.00000   0.00000   0.00000
                  --------  --------  --------  --------  --------  --------
  0N   1s         0.000000 -0.000001 -0.000001 -0.000004 -0.000005  0.055382
  0N   2s         0.000000 -0.000001 -0.000003 -0.000014 -0.000018  0.179009
  0N   3s         0.000016  0.000011  0.000013  0.000131  0.000186 -1.768789
  0N   4s        -0.000154 -0.000022  0.000001 -0.000322 -0.000476  4.472101
  0N   5s         0.000478 -0.000066 -0.000012  0.000029  0.000091 -0.952623
  0N   1pz        0.005079  0.018189 -0.000012 -0.273406  0.081612  0.258348
  0N   1px        0.019651 -0.002000 -0.000010  0.035578  0.296326 -0.198824
  0N   1py        0.005184 -0.010196  0.000005  0.155552  0.075655  0.499519
  0N   2pz       -0.284320 -1.018405  0.000029  0.588875 -0.175774 -0.611952
  0N   2px       -1.100392  0.112056  0.000006 -0.076630 -0.638225  0.471009
  0N   2py       -0.290937  0.571423 -0.000018 -0.335008 -0.162945 -1.183267
  0N   3pz       -0.240877 -0.862504 -0.000042 -0.543601  0.162327  0.091634
  0N   3px       -0.931856  0.094919 -0.000023  0.070725  0.589207 -0.070518
  0N   3py       -0.246508  0.483969  0.000021  0.309359  0.150529  0.177252
  0N   1dz2      -0.000572 -0.001020  0.000001  0.013060 -0.009367  0.003914
  0N   1dxz      -0.000442  0.000098  0.000001  0.001150 -0.005416  0.004474
  0N   1dyz      -0.000255 -0.000852  0.000000  0.011338 -0.002141 -0.011247
  0N   1dx2y2     0.000974 -0.000722  0.000003  0.009800  0.013435  0.009149
  0N   1dxy      -0.000872  0.000064 -0.000002 -0.002128 -0.009948  0.008653
  0N   2dz2       1.080096  0.945513  0.000039 -0.343258  0.260231  0.121688
  0N   2dxz       0.290062  0.715332  0.000019 -0.050695  0.139688  0.139330
  0N   2dyz      -0.204861  0.883732  0.000007 -0.300698  0.045252 -0.349929
  0N   2dx2y2    -1.211853  0.732825 -0.000008 -0.259587 -0.361137  0.284586
  0N   2dxy       0.376776 -0.423675  0.000001  0.064951  0.250467  0.269329
  0N   1f0       -0.061288 -0.015254 -0.000476  0.005484 -0.022100 -0.112961
  0N   1f+1       0.022117 -0.051587  0.000233  0.022551  0.006198 -0.125639
  0N   1f-1      -0.019180 -0.020261  0.000394 -0.003018 -0.004027 -0.022284
  0N   1f+2      -0.019523  0.036188  0.000542 -0.011825 -0.012772 -0.077567
  0N   1f-2       0.007248 -0.044914  0.000211  0.020360  0.007019  0.031209
  0N   1f+3       0.052344  0.032888 -0.000184 -0.013984  0.024114 -0.126124
  0N   1f-3      -0.028919  0.030161  0.000283 -0.006582 -0.001899 -0.009931
  1H   1s        -0.204256  0.020796  0.000020 -0.006461 -0.053521  0.454827
  1H   2s         2.704348 -0.275405  0.000007  0.070912  0.589616 -1.911347
  1H   3s        -0.474211  0.048287  0.000009 -0.067841 -0.564865  0.592767
  1H   1pz        0.042619  0.037519 -0.542331  0.347796 -0.382116 -0.119180
  1H   1px       -0.409180  0.041667  0.000004 -0.034012 -0.283112  0.461503
  1H   1py        0.072002 -0.028972  0.280528 -0.278624 -0.624530 -0.230406
  2H   1s         0.084092 -0.187279 -0.000008  0.049524  0.021153  0.454838
  2H   2s        -1.113797  2.479842  0.000012 -0.545735 -0.233234 -1.911444
  2H   3s         0.195200 -0.434761  0.000012  0.523029  0.223625  0.592872
  2H   1pz        0.088363 -0.130827  0.352154  0.665467  0.008564  0.069027
  2H   1px       -0.005051  0.104617  0.498540 -0.264912 -0.504088 -0.031667
  2H   1py       -0.153494  0.344836  0.016273  0.207425  0.076002 -0.523852
  3H   1s         0.120128  0.166470  0.000001 -0.043179  0.032282  0.454817
  3H   2s        -1.590861 -2.204334 -0.000037  0.475274 -0.355810 -1.911278
  3H   3s         0.278808  0.386493 -0.000007 -0.455294  0.341068  0.592760
  3H   1pz       -0.244692 -0.314147  0.190193  0.222675  0.004522 -0.467384
  3H   1px       -0.026051 -0.101450 -0.498539  0.138084 -0.552467 -0.031608
  3H   1py       -0.034852 -0.087261 -0.296824 -0.632091  0.206396 -0.246400
                     24        25        26        27        28        29   
                   1.88868   1.95431   1.95433   2.22479   2.23404   2.23405
                   0.00000   0.00000   0.00000   0.00000   0.00000   0.00000
                  --------  --------  --------  --------  --------  --------
  0N   1s        -0.079160  0.000011 -0.000005  0.047936 -0.000042 -0.000022
  0N   2s        -0.254696  0.000035 -0.000017  0.166997 -0.000147 -0.000073
  0N   3s         1.932270 -0.000264  0.000123 -1.306393  0.001195  0.000538
  0N   4s        -3.502916  0.000437 -0.000182  2.106176 -0.002037 -0.000812
  0N   5s         1.409958 -0.000213  0.000033 -2.594133  0.002457  0.000979
  0N   1pz        0.296578 -0.353480 -0.721909 -0.237766  0.045070 -0.002028
  0N   1px       -0.228154  0.681317 -0.492683  0.183143  0.009757  0.045739
  0N   1py        0.573350  0.454043  0.177253 -0.459876 -0.018571  0.019453
  0N   2pz       -0.183558  0.906748  1.851938  0.458454 -0.453141  0.020939
  0N   2px        0.141059 -1.747854  1.263925 -0.353544 -0.101631 -0.462717
  0N   2py       -0.354872 -1.164825 -0.454760  0.887523  0.192379 -0.195428
  0N   3pz        0.242146 -0.400613 -0.818134  0.158952 -0.179010  0.008214
  0N   3px       -0.186243  0.772187 -0.558414 -0.122470 -0.040348 -0.182858
  0N   3py        0.468113  0.514588  0.200934  0.307590  0.076187 -0.077192
  0N   1dz2      -0.002362  0.000582 -0.012142 -0.009797  0.027395  0.018012
  0N   1dxz      -0.002701 -0.000777 -0.005352 -0.011233  0.019800 -0.000518
  0N   1dyz       0.006778 -0.005805 -0.005378  0.028289  0.016436 -0.012130
  0N   1dx2y2    -0.005513 -0.012084  0.001974 -0.023004  0.006681 -0.031101
  0N   1dxy      -0.005217  0.005374 -0.000827 -0.021773 -0.008230  0.009261
  0N   2dz2       0.078097  0.220006 -0.111215  0.136946  0.021631 -0.611178
  0N   2dxz       0.089277 -0.337045 -0.244853  0.156104 -0.905226  0.559186
  0N   2dyz      -0.224378 -0.170749  0.162538 -0.393803  0.251747  0.558763
  0N   2dx2y2     0.182470 -0.060536  0.071373  0.320887  0.123832  0.153218
  0N   2dxy       0.172626 -0.082998  0.312726  0.304325  0.653197  0.550777
  0N   1f0        0.043917 -0.049146  0.072252  0.034314 -0.048961 -0.074472
  0N   1f+1       0.066388  0.071009  0.034751  0.087241 -0.077263  0.051868
  0N   1f-1       0.010605 -0.003410  0.034051  0.012229  0.011096 -0.019027
  0N   1f+2       0.023657 -0.055112 -0.017038  0.005469  0.025584 -0.064986
  0N   1f-2      -0.032506  0.051772  0.039661 -0.066566 -0.067152  0.055065
  0N   1f+3       0.048128  0.024773 -0.084600  0.035944  0.084707  0.072784
  0N   1f-3       0.013604 -0.053274 -0.005677  0.030301  0.021078 -0.010976
  1H   1s        -0.225167 -0.426195  0.308213 -0.321414 -0.102912 -0.467677
  1H   2s         0.764605  1.471628 -1.064166  0.632062  0.164986  0.749952
  1H   3s        -0.334055 -1.074428  0.776989  0.287546 -0.049684 -0.224433
  1H   1pz       -0.150149  0.225667 -0.013737 -0.284087  0.776392 -0.388720
  1H   1px       -0.197586 -0.428017  0.309507 -0.030908 -0.041274 -0.186543
  1H   1py       -0.290285  0.262306 -0.266975 -0.551306 -0.512982 -0.307103
  2H   1s        -0.225141  0.480007  0.214979 -0.321494 -0.353195  0.323388
  2H   2s         0.764389 -1.657536 -0.742304  0.632163  0.566233 -0.518684
  2H   3s        -0.333900  1.210170  0.541971  0.287540 -0.169790  0.154943
  2H   1pz       -0.309442 -0.029348  0.072946 -0.411663  0.079424  0.668505
  2H   1px        0.219895 -0.027436  0.109655  0.303462  0.729597  0.380741
  2H   1py       -0.041798 -0.614501 -0.271273 -0.352176 -0.077915  0.105953
  3H   1s        -0.225177 -0.053808 -0.523248 -0.320626  0.457035  0.144562
  3H   2s         0.764432  0.185696  1.806694  0.630792 -0.733037 -0.231878
  3H   3s        -0.333921 -0.135591 -1.319035  0.288032  0.218708  0.069125
  3H   1pz        0.144684  0.098487  0.542739 -0.049453 -0.026702 -0.318010
  3H   1px        0.219876 -0.112814 -0.008281  0.302173 -0.502299  0.652554
  3H   1py       -0.276669 -0.026456  0.390332 -0.539245  0.238536  0.558582
                     30        31        32        33        34        35   
                   2.33511   2.38354   2.38355   2.92501   3.14549   3.14551
                   0.00000   0.00000   0.00000   0.00000   0.00000   0.00000
                  --------  --------  --------  --------  --------  --------
  0N   1s         0.081621 -0.000019  0.000001 -0.022642 -0.000002 -0.000001
  0N   2s         0.272535 -0.000064  0.000002 -0.035610 -0.000004 -0.000002
  0N   3s        -1.791205  0.000413  0.000005 -1.312822 -0.000029 -0.000092
  0N   4s         1.971806 -0.000423 -0.000044  5.902980  0.000190  0.000392
  0N   5s        -3.452296  0.000867 -0.000005 -0.132424  0.000115  0.000050
  0N   1pz        0.292432  0.046594  0.670178  0.065657 -0.067794  0.467372
  0N   1px       -0.225288 -0.682458  0.167223 -0.050566  0.469723  0.152962
  0N   1py        0.565281 -0.296017 -0.280056  0.126958  0.222055 -0.180874
  0N   2pz       -0.312033  0.043482  0.622655 -0.918411  0.445444 -3.071149
  0N   2px        0.240073 -0.634258  0.155411  0.707051 -3.086566 -1.005024
  0N   2py       -0.603382 -0.274655 -0.260311 -1.775775 -1.459165  1.188455
  0N   3pz        0.387622  0.036197  0.520827 -0.048765  0.000696 -0.004998
  0N   3px       -0.298477 -0.530337  0.129963  0.037547 -0.004992 -0.001602
  0N   3py        0.749244 -0.230125 -0.217665 -0.094290 -0.002392  0.001907
  0N   1dz2      -0.006886 -0.021420  0.035759 -0.023292 -0.108412 -0.145424
  0N   1dxz      -0.007867  0.000383  0.024073 -0.026673  0.046978 -0.142860
  0N   1dyz       0.019763  0.015230  0.021205  0.067014  0.096320 -0.058650
  0N   1dx2y2    -0.016066  0.039971  0.007824 -0.054518  0.163801 -0.010241
  0N   1dxy      -0.015209 -0.012951 -0.009330 -0.051571 -0.023281  0.074228
  0N   2dz2      -0.076783  0.441415 -0.524411  0.129188  0.481020  1.414479
  0N   2dxz      -0.087871 -0.125296 -0.538477  0.147909  0.166275  0.592487
  0N   2dyz       0.220998 -0.338489 -0.257333 -0.371753 -0.437953  0.885614
  0N   2dx2y2    -0.180006 -0.618883 -0.088693  0.302394 -1.496918  0.238822
  0N   2dxy      -0.170171  0.079919  0.274828  0.285983  0.709823 -0.047319
  0N   1f0        0.121171 -0.110617  0.074263 -0.015521  0.131871  0.106060
  0N   1f+1       0.124982  0.080328  0.094886 -0.063186 -0.112186  0.133305
  0N   1f-1       0.022808 -0.025310  0.032893 -0.008149  0.036882 -0.009749
  0N   1f+2       0.086831 -0.074491 -0.051474  0.006335  0.124004 -0.039080
  0N   1f-2      -0.022022  0.057690  0.088465  0.057634 -0.112065  0.115607
  0N   1f+3       0.135834  0.088245 -0.110379 -0.014919 -0.119351 -0.170428
  0N   1f-3       0.005177 -0.060292 -0.037002 -0.026865  0.031578 -0.038300
  1H   1s        -0.427545 -0.298228  0.073107 -0.236651  0.774026  0.252046
  1H   2s         1.028277  1.917143 -0.469807 -2.111428  2.257912  0.735051
  1H   3s         0.450271 -0.095182  0.023300  0.279027 -0.469695 -0.152922
  1H   1pz        0.114815  0.122581  0.201467  0.050936 -0.130010  0.443409
  1H   1px       -0.372519 -1.258796  0.308443  1.391234 -1.360989 -0.443079
  1H   1py        0.222231  0.106032 -0.145715  0.098519  0.099082 -0.219000
  2H   1s        -0.427402  0.212636  0.221832 -0.236599 -0.605281  0.544274
  2H   2s         1.027470 -1.365917 -1.425646 -2.111325 -1.765912  1.587751
  2H   3s         0.450212  0.067611  0.070702  0.279019  0.367305 -0.330288
  2H   1pz       -0.029321  0.282003  0.505488  0.778441  0.727792 -0.251059
  2H   1px        0.005963 -0.397599 -0.116241 -0.516042 -0.060489  0.625347
  2H   1py        0.447237 -0.781912 -0.806373 -1.037006 -0.849119  0.782122
  3H   1s        -0.427557  0.085937 -0.294938 -0.236522 -0.168731 -0.796314
  3H   2s         1.027768 -0.552088  1.895497 -2.111134 -0.492369 -2.323332
  3H   3s         0.450134  0.027244 -0.093997  0.278989  0.102381  0.483258
  3H   1pz        0.382015 -0.271130  1.212929 -1.296057 -0.438719 -1.288993
  3H   1px        0.006139 -0.298726  0.286838 -0.515989  0.319326 -0.541114
  3H   1py        0.234458 -0.171885  0.149793  0.036175  0.229007 -0.138775
                     36        37        38        39        40        41   
                   3.92973   4.17029   4.17031   4.29739   4.48833   4.48834
                   0.00000   0.00000   0.00000   0.00000   0.00000   0.00000
                  --------  --------  --------  --------  --------  --------
  0N   1s         0.002317 -0.000000  0.000000 -0.000001 -0.000000  0.000001
  0N   2s         0.003953 -0.000000  0.000001 -0.000002 -0.000000  0.000001
  0N   3s         0.105334 -0.000012 -0.000006  0.000008  0.000032  0.000185
  0N   4s        -0.474269  0.000054  0.000003  0.000007 -0.000142 -0.000867
  0N   5s        -0.346881 -0.000056 -0.000009 -0.000005  0.000120  0.000690
  0N   1pz       -0.042593 -0.048659 -0.090402  0.000004 -0.006327 -0.036025
  0N   1px        0.032774 -0.101836  0.034094 -0.000002  0.035998 -0.012917
  0N   1py       -0.082351 -0.015361  0.060331  0.000005  0.017606  0.013460
  0N   2pz        0.192906  0.283735  0.527158 -0.000035  0.051826  0.295382
  0N   2px       -0.148426  0.593835 -0.198801 -0.000014 -0.295126  0.105810
  0N   2py        0.372981  0.089588 -0.351816 -0.000014 -0.144238 -0.110270
  0N   3pz        0.062454  0.050591  0.093955  0.000003  0.001165  0.006584
  0N   3px       -0.048062  0.105831 -0.035444  0.000002 -0.006638  0.002441
  0N   3py        0.120735  0.015981 -0.062708  0.000005 -0.003270 -0.002597
  0N   1dz2       0.029299  0.002396  0.280314  0.000035  0.469654  0.248555
  0N   1dxz       0.033534  0.088947 -0.366530 -0.000003 -0.649187 -0.637726
  0N   1dyz      -0.084268  0.276469  0.137230 -0.000028 -0.384241  0.479666
  0N   1dx2y2     0.068531 -0.102197  0.196533  0.000023  0.190371  0.171969
  0N   1dxy       0.064806  0.420324  0.033480  0.000027 -0.577438  0.656669
  0N   2dz2       0.022462 -0.245681 -0.194799 -0.000002 -0.338814 -0.326888
  0N   2dxz       0.025715 -0.105116 -0.042623  0.000010  0.535386  0.459886
  0N   2dyz      -0.064567 -0.059705 -0.206499  0.000028  0.267891 -0.463189
  0N   2dx2y2     0.052554  0.220958 -0.233931 -0.000019 -0.286703 -0.155679
  0N   2dxy       0.049704 -0.145763  0.089044 -0.000018  0.527633 -0.525997
  0N   1f0        0.222475 -0.102716  0.026394 -0.574995 -0.097095  0.060428
  0N   1f+1      -0.397487  0.181572  0.168968  0.283045  0.059732 -0.095255
  0N   1f-1      -0.027521 -0.415876 -0.732617  0.476928  0.059160  0.466078
  0N   1f+2       0.391370  0.443896  0.072351  0.656577  0.129765 -0.198354
  0N   1f-2       0.687813 -0.288820  0.302494  0.253441 -0.195021  0.004043
  0N   1f+3       0.282000 -0.314028 -0.072833 -0.219235 -0.075796  0.084226
  0N   1f-3      -0.338616 -0.581976  0.515942  0.342300 -0.448026 -0.037746
  1H   1s        -0.000223 -0.158076  0.052913  0.000006  0.095557 -0.034302
  1H   2s         0.321464 -0.457915  0.153311  0.000014  0.206655 -0.074098
  1H   3s         0.016364  0.050323 -0.016838 -0.000007 -0.042841  0.015233
  1H   1pz       -0.116077 -0.193813 -0.035223 -0.295842 -0.207797 -0.113459
  1H   1px       -0.137180  0.185648 -0.062143 -0.000006 -0.143151  0.051161
  1H   1py       -0.224391 -0.300815  0.152513  0.153048 -0.255424  0.188658
  2H   1s        -0.000201  0.033198 -0.163356  0.000010 -0.077492 -0.065576
  2H   2s         0.321510  0.096206 -0.473229  0.000003 -0.167515 -0.141811
  2H   3s         0.016355 -0.010566  0.051995  0.000002  0.034686  0.029280
  2H   1pz       -0.231281 -0.032427 -0.150057  0.192104  0.300247  0.103665
  2H   1px        0.164826 -0.107789  0.092199  0.271958 -0.056708 -0.261036
  2H   1py       -0.044550  0.073609 -0.376517  0.008889  0.070077  0.052476
  3H   1s        -0.000212  0.124846  0.110423 -0.000001 -0.018062  0.099936
  3H   2s         0.321473  0.361730  0.319944 -0.000037 -0.039116  0.216101
  3H   3s         0.016365 -0.039732 -0.035158  0.000012  0.008092 -0.044884
  3H   1pz        0.097261  0.195737  0.128686  0.103721 -0.078812  0.087421
  3H   1px        0.164818 -0.141605 -0.008684 -0.271973  0.122191  0.237840
  3H   1py       -0.214522  0.217582  0.261769 -0.161907  0.147354 -0.270412
                     42        43        44        45        46        47   
                   4.49272   4.74088   4.74089   5.25061   5.25064   5.57840
                   0.00000   0.00000   0.00000   0.00000   0.00000   0.00000
                  --------  --------  --------  --------  --------  --------
  0N   1s        -0.000766  0.000000  0.000000  0.000000  0.000001  0.007140
  0N   2s        -0.000010 -0.000001  0.000000  0.000003  0.000003  0.051768
  0N   3s        -0.192445  0.000025 -0.000006 -0.000084 -0.000085 -1.788328
  0N   4s         0.876611 -0.000071  0.000026  0.000248  0.000249  5.558459
  0N   5s        -0.716937  0.000011 -0.000023 -0.000057 -0.000014 -0.899327
  0N   1pz        0.010724 -0.005380  0.011282  0.348748  0.027549  0.076227
  0N   1px       -0.008284  0.010678  0.007547  0.033594  0.364385 -0.058678
  0N   1py        0.020824  0.007031 -0.002831 -0.167022  0.130802  0.147382
  0N   2pz       -0.144812 -0.237854  0.500695 -2.695773 -0.212944 -0.719826
  0N   2px        0.111730  0.473855  0.334215 -0.259668 -2.816654  0.554114
  0N   2py       -0.280704  0.311686 -0.125976  1.291045 -1.011121 -1.391775
  0N   3pz        0.061233  0.142743 -0.300321  0.093783  0.007424  0.047048
  0N   3px       -0.047119 -0.284208 -0.200533  0.009013  0.098000 -0.036216
  0N   3py        0.118364 -0.186972  0.075532 -0.044920  0.035159  0.090944
  0N   1dz2       0.258706 -0.187721 -1.006881  0.104769  0.011043  0.016358
  0N   1dxz       0.294951  0.254007 -0.563762 -0.036583  0.057805  0.018746
  0N   1dyz      -0.742422  0.548343 -0.327983  0.087530  0.029468 -0.047071
  0N   1dx2y2     0.604440  0.976834  0.184366  0.051329 -0.093621  0.038312
  0N   1dxy       0.572152 -0.366544  0.125656  0.031088  0.102374  0.036210
  0N   2dz2      -0.160432  0.133017  0.495664  1.225744  1.091148  0.157354
  0N   2dxz      -0.182612 -0.187161  0.315549  1.035814  0.068352  0.180119
  0N   2dyz       0.459686 -0.292924  0.121775  0.870821 -0.530581 -0.452647
  0N   2dx2y2    -0.374468 -0.471939 -0.101098  0.511697 -1.495382  0.368187
  0N   2dxy      -0.354480  0.154882 -0.122177 -0.499058  0.362719  0.348310
  0N   1f0        0.015999 -0.082536 -0.113432 -0.349641 -0.739708 -0.704667
  0N   1f+1       0.113288  0.102292 -0.028394 -0.636816  0.403841 -0.832477
  0N   1f-1       0.014207  0.028672 -0.127162 -0.209928 -0.186050 -0.144370
  0N   1f+2      -0.024696 -0.061426  0.066203  0.388310 -0.388252 -0.465853
  0N   1f-2      -0.115578  0.035128 -0.065296 -0.580239  0.253043  0.251284
  0N   1f+3       0.012874  0.025676  0.096035  0.579485  0.622829 -0.784299
  0N   1f-3       0.054438 -0.154893 -0.006974  0.287671 -0.361004 -0.089020
  1H   1s        -0.021656  0.029696  0.021000  0.116580  1.264701 -0.804887
  1H   2s        -0.054121 -0.175743 -0.123910  0.182552  1.980395 -1.263372
  1H   3s         0.126711  0.191417  0.135044 -0.043116 -0.467917  0.288742
  1H   1pz        0.065387  0.052398 -0.133038 -0.180535  0.042993 -0.052906
  1H   1px        0.195303  0.392447  0.276845 -0.122837 -1.332832  0.977923
  1H   1py        0.126792 -0.094936  0.020930  0.099273  0.041786 -0.102297
  2H   1s        -0.021733 -0.033024  0.015206  1.036947 -0.733377 -0.804859
  2H   2s        -0.054247  0.195195 -0.090246  1.623800 -1.148436 -1.263330
  2H   3s         0.126729 -0.212658  0.098255 -0.383659  0.271325  0.288720
  2H   1pz        0.190620 -0.216771  0.000827 -0.594909  0.274644  0.423759
  2H   1px       -0.132578  0.060218 -0.168486  0.244777 -0.379984 -0.271659
  2H   1py       -0.068335  0.385037 -0.182496  0.892691 -0.638096 -0.846254
  3H   1s        -0.021539  0.003371 -0.036211 -1.153623 -0.531398 -0.804768
  3H   2s        -0.053849 -0.019411  0.214154 -1.806506 -0.832176 -1.263198
  3H   3s         0.126642  0.021231 -0.233288  0.426819  0.196624  0.288694
  3H   1pz       -0.165801  0.006690  0.464163 -1.178562 -0.471987 -0.935458
  3H   1px       -0.132025 -0.138506  0.113212 -0.310163 -0.328810 -0.271650
  3H   1py        0.115695 -0.083459  0.078057 -0.056165 -0.136595 -0.143111
                     48   
                  31.14742
                   0.00000
                  --------
  0N   1s        -1.386574
  0N   2s         1.695432
  0N   3s        -1.523519
  0N   4s         1.584849
  0N   5s        -1.164014
  0N   1pz        0.009323
  0N   1px       -0.007174
  0N   1py        0.018023
  0N   2pz       -0.021237
  0N   2px        0.016338
  0N   2py       -0.041050
  0N   3pz        0.058832
  0N   3px       -0.045273
  0N   3py        0.113734
  0N   1dz2      -0.000639
  0N   1dxz      -0.000732
  0N   1dyz       0.001838
  0N   1dx2y2    -0.001495
  0N   1dxy      -0.001414
  0N   2dz2       0.001601
  0N   2dxz       0.001831
  0N   2dyz      -0.004598
  0N   2dx2y2     0.003740
  0N   2dxy       0.003539
  0N   1f0       -0.009014
  0N   1f+1      -0.011722
  0N   1f-1      -0.001966
  0N   1f+2      -0.005562
  0N   1f-2       0.004461
  0N   1f+3      -0.009975
  0N   1f-3      -0.001735
  1H   1s        -0.033714
  1H   2s         0.006851
  1H   3s         0.200237
  1H   1pz       -0.002410
  1H   1px       -0.022850
  1H   1py       -0.004660
  2H   1s        -0.033715
  2H   2s         0.006849
  2H   3s         0.200236
  2H   1pz       -0.014975
  2H   1px        0.010089
  2H   1py        0.014951
  3H   1s        -0.033716
  3H   2s         0.006846
  3H   3s         0.200236
  3H   1pz        0.020853
  3H   1px        0.010089
  3H   1py       -0.003584



                    ********************************
                    * MULLIKEN POPULATION ANALYSIS *
                    ********************************

-----------------------
MULLIKEN ATOMIC CHARGES
-----------------------
   0 N :   -0.672804
   1 H :    0.224255
   2 H :    0.224272
   3 H :    0.224277
Sum of atomic charges:   -0.0000000

--------------------------------
MULLIKEN REDUCED ORBITAL CHARGES
--------------------------------
  0 N s       :     3.598440  s :     3.598440
      pz      :     1.262382  p :     4.052682
      px      :     1.215877
      py      :     1.574423
      dz2     :     0.006427  d :     0.020487
      dxz     :    -0.000345
      dyz     :     0.004004
      dx2y2   :     0.007767
      dxy     :     0.002634
      f0      :     0.000280  f :     0.001195
      f+1     :     0.000251
      f-1     :    -0.000006
      f+2     :     0.000194
      f-2     :     0.000079
      f+3     :     0.000435
      f-3     :    -0.000037
  1 H s       :     0.740346  s :     0.740346
      pz      :     0.007755  p :     0.035398
      px      :     0.017156
      py      :     0.010488
  2 H s       :     0.740330  s :     0.740330
      pz      :     0.010268  p :     0.035397
      px      :     0.008426
      py      :     0.016704
  3 H s       :     0.740326  s :     0.740326
      pz      :     0.016463  p :     0.035397
      px      :     0.008425
      py      :     0.010509


                     *******************************
                     * LOEWDIN POPULATION ANALYSIS *
                     *******************************

----------------------
LOEWDIN ATOMIC CHARGES
----------------------
   0 N :   -0.406097
   1 H :    0.135363
   2 H :    0.135367
   3 H :    0.135368

-------------------------------
LOEWDIN REDUCED ORBITAL CHARGES
-------------------------------
  0 N s       :     3.200633  s :     3.200633
      pz      :     1.303288  p :     4.136529
      px      :     1.263598
      py      :     1.569643
      dz2     :     0.022267  d :     0.063608
      dxz     :     0.005119
      dyz     :     0.009534
      dx2y2   :     0.022463
      dxy     :     0.004225
      f0      :     0.001220  f :     0.005327
      f+1     :     0.001289
      f-1     :     0.000083
      f+2     :     0.000565
      f-2     :     0.000521
      f+3     :     0.001450
      f-3     :     0.000198
  1 H s       :     0.755430  s :     0.755430
      pz      :     0.021635  p :     0.109208
      px      :     0.056783
      py      :     0.030789
  2 H s       :     0.755427  s :     0.755427
      pz      :     0.030002  p :     0.109207
      px      :     0.023806
      py      :     0.055398
  3 H s       :     0.755426  s :     0.755426
      pz      :     0.054416  p :     0.109206
      px      :     0.023806
      py      :     0.030984


                      *****************************
                      * MAYER POPULATION ANALYSIS *
                      *****************************

  NA   - Mulliken gross atomic population
  ZA   - Total nuclear charge
  QA   - Mulliken gross atomic charge
  VA   - Mayer's total valence
  BVA  - Mayer's bonded valence
  FA   - Mayer's free valence

  ATOM       NA         ZA         QA         VA         BVA        FA
  0 N      7.6728     7.0000    -0.6728     2.8325     2.8325    -0.0000
  1 H      0.7757     1.0000     0.2243     0.9478     0.9478    -0.0000
  2 H      0.7757     1.0000     0.2243     0.9478     0.9478     0.0000
  3 H      0.7757     1.0000     0.2243     0.9478     0.9478    -0.0000

  Mayer bond orders larger than 0.100000
B(  0-N ,  1-H ) :   0.9442 B(  0-N ,  2-H ) :   0.9442 B(  0-N ,  3-H ) :   0.9442 


Now starting NBO....

 *********************************** NBO 7.0 ***********************************
             N A T U R A L   A T O M I C   O R B I T A L   A N D
          N A T U R A L   B O N D   O R B I T A L   A N A L Y S I S
 *********************** Giovanni  F. Caramori (I101916) ***********************
  (c) Copyright 1996-2020 Board of Regents of the University of Wisconsin System
      on behalf of the Theoretical Chemistry Institute.  All rights reserved.

          Cite this program [NBO 7.0.8 (11-Feb-2020)] as:

          NBO 7.0.  E. D. Glendening, J. K. Badenhoop, A. E. Reed,
          J. E. Carpenter, J. A. Bohmann, C. M. Morales, P. Karafiloglou,
          C. R. Landis, and F. Weinhold, Theoretical Chemistry Institute,
          University of Wisconsin, Madison, WI (2018)

       /NPA    / : Natural Population Analysis
       /NBO    / : Natural Bond Orbital Analysis
       /AONBO  / : Checkpoint the AO to NBO transformation
       /ARCHIVE/ : Write the archive file to lfn47

 Job title: ORCA Job: NH3


 NATURAL POPULATIONS:  Natural atomic orbital occupancies

  NAO Atom No lang   Type(AO)    Occupancy      Energy
 -------------------------------------------------------
   1    N  1  s      Cor( 1s)     1.99999     -16.67041
   2    N  1  s      Val( 2s)     1.52286      -1.23212
   3    N  1  s      Ryd( 3s)     0.00012       1.61288
   4    N  1  s      Ryd( 4s)     0.00000       2.82273
   5    N  1  s      Ryd( 5s)     0.00000      26.27415
   6    N  1  px     Val( 2p)     1.39505      -0.83754
   7    N  1  px     Ryd( 3p)     0.00240       0.19598
   8    N  1  px     Ryd( 4p)     0.00003       1.90741
   9    N  1  py     Val( 2p)     1.67944      -0.83050
  10    N  1  py     Ryd( 3p)     0.00534       0.09094
  11    N  1  py     Ryd( 4p)     0.00014       1.58222
  12    N  1  pz     Val( 2p)     1.43193      -0.83663
  13    N  1  pz     Ryd( 3p)     0.00278       0.18234
  14    N  1  pz     Ryd( 4p)     0.00004       1.86524
  15    N  1  dxy    Ryd( 3d)     0.00263       0.68981
  16    N  1  dxy    Ryd( 4d)     0.00001       3.70959
  17    N  1  dxz    Ryd( 3d)     0.00072       0.73758
  18    N  1  dxz    Ryd( 4d)     0.00002       3.74055
  19    N  1  dyz    Ryd( 3d)     0.00370       0.81513
  20    N  1  dyz    Ryd( 4d)     0.00002       3.75784
  21    N  1  dx2y2  Ryd( 3d)     0.00488       1.05133
  22    N  1  dx2y2  Ryd( 4d)     0.00002       3.84355
  23    N  1  dz2    Ryd( 3d)     0.00360       1.04227
  24    N  1  dz2    Ryd( 4d)     0.00001       3.84429
  25    N  1  f(0)   Ryd( 4f)     0.00013       3.89331
  26    N  1  f(c1)  Ryd( 4f)     0.00013       3.87210
  27    N  1  f(s1)  Ryd( 4f)     0.00002       3.55993
  28    N  1  f(c2)  Ryd( 4f)     0.00009       3.64926
  29    N  1  f(s2)  Ryd( 4f)     0.00006       3.52143
  30    N  1  f(c3)  Ryd( 4f)     0.00019       3.89346
  31    N  1  f(s3)  Ryd( 4f)     0.00001       3.58039

  32    H  2  s      Val( 1s)     0.64669      -0.42383
  33    H  2  s      Ryd( 2s)     0.00040       0.47527
  34    H  2  s      Ryd( 3s)     0.00004       1.35170
  35    H  2  px     Ryd( 2p)     0.00030       2.30712
  36    H  2  py     Ryd( 2p)     0.00029       1.51299
  37    H  2  pz     Ryd( 2p)     0.00015       1.53720

  38    H  3  s      Val( 1s)     0.64669      -0.42383
  39    H  3  s      Ryd( 2s)     0.00040       0.47529
  40    H  3  s      Ryd( 3s)     0.00004       1.35170
  41    H  3  px     Ryd( 2p)     0.00013       1.61566
  42    H  3  py     Ryd( 2p)     0.00047       2.02756
  43    H  3  pz     Ryd( 2p)     0.00015       1.71414

  44    H  4  s      Val( 1s)     0.64669      -0.42383
  45    H  4  s      Ryd( 2s)     0.00040       0.47527
  46    H  4  s      Ryd( 3s)     0.00004       1.35171
  47    H  4  px     Ryd( 2p)     0.00013       1.61566
  48    H  4  py     Ryd( 2p)     0.00030       1.51693
  49    H  4  pz     Ryd( 2p)     0.00032       2.22478


 Summary of Natural Population Analysis:

                                     Natural Population
             Natural    ---------------------------------------------
  Atom No    Charge        Core      Valence    Rydberg      Total
 --------------------------------------------------------------------
    N  1   -1.05635      1.99999     6.02928    0.02708     8.05635
    H  2    0.35212      0.00000     0.64669    0.00119     0.64788
    H  3    0.35212      0.00000     0.64669    0.00119     0.64788
    H  4    0.35212      0.00000     0.64669    0.00119     0.64788
 ====================================================================
 * Total *  0.00000      1.99999     7.96935    0.03065    10.00000

                                 Natural Population
 ---------------------------------------------------------
   Core                       1.99999 ( 99.9996% of    2)
   Valence                    7.96935 ( 99.6169% of    8)
   Natural Minimal Basis      9.96935 ( 99.6935% of   10)
   Natural Rydberg Basis      0.03065 (  0.3065% of   10)
 ---------------------------------------------------------

    Atom No         Natural Electron Configuration
 ----------------------------------------------------------------------------
      N  1      [core]2s( 1.52)2p( 4.51)3p( 0.01)3d( 0.02)
      H  2            1s( 0.65)
      H  3            1s( 0.65)
      H  4            1s( 0.65)


 NATURAL BOND ORBITAL ANALYSIS:

                            Occupancies       Lewis Structure    Low   High
         Max    Occ     -------------------  -----------------   occ   occ
  Cycle  Ctr   Thresh    Lewis   non-Lewis     CR  BD  nC  LP    (L)   (NL)
 ============================================================================
    1     2     1.90     9.99701   0.00299      1   3   0   1     0      0
 ----------------------------------------------------------------------------

 Structure accepted: No low occupancy Lewis orbitals

 -------------------------------------------------------
   Core                      1.99999 (100.000% of   2)
   Valence Lewis             7.99702 ( 99.963% of   8)
  ==================      =============================
   Total Lewis               9.99701 ( 99.970% of  10)
  -----------------------------------------------------
   Valence non-Lewis         0.00006 (  0.001% of  10)
   Rydberg non-Lewis         0.00293 (  0.029% of  10)
  ==================      =============================
   Total non-Lewis           0.00299 (  0.030% of  10)
 -------------------------------------------------------


     (Occupancy)   Bond orbital / Coefficients / Hybrids
 ------------------ Lewis ------------------------------------------------------
   1. (1.99999) CR ( 1) N  1            s(100.00%)
                                         1.0000  0.0000  0.0000  0.0000  0.0000
                                         0.0000  0.0000  0.0000  0.0000  0.0000
                                         0.0000  0.0000  0.0000  0.0000  0.0000
                                         0.0000  0.0000  0.0000  0.0000  0.0000
                                         0.0000  0.0000  0.0000  0.0000  0.0000
                                         0.0000  0.0000  0.0000  0.0000  0.0000
                                         0.0000
   2. (1.99795) LP ( 1) N  1            s( 25.93%)p 2.85( 73.82%)d 0.01(  0.24%)
                                                  f 0.00(  0.00%)
                                         0.0000  0.5092  0.0063  0.0000  0.0000
                                        -0.2857 -0.0195 -0.0005  0.7178  0.0489
                                         0.0014  0.3713  0.0253  0.0007  0.0235
                                        -0.0019  0.0122 -0.0010 -0.0305  0.0025
                                         0.0248 -0.0020  0.0106 -0.0009  0.0010
                                        -0.0027 -0.0002  0.0021  0.0042  0.0013
                                        -0.0020
   3. (1.99969) BD ( 1) N  1- H  2
               ( 67.65%)   0.8225* N  1 s( 24.61%)p 3.05( 75.10%)d 0.01(  0.27%)
                                                  f 0.00(  0.01%)
                                         0.0000  0.4961 -0.0032  0.0000  0.0000
                                         0.8660 -0.0286 -0.0007 -0.0059 -0.0085
                                         0.0062 -0.0031 -0.0044  0.0032 -0.0249
                                         0.0008 -0.0129  0.0004 -0.0062  0.0010
                                         0.0392  0.0023 -0.0176 -0.0021 -0.0029
                                        -0.0056 -0.0008 -0.0013 -0.0019 -0.0094
                                        -0.0014
               ( 32.35%)   0.5688* H  2 s( 99.97%)p 0.00(  0.03%)
                                         0.9998 -0.0001  0.0001 -0.0181  0.0001
                                         0.0000
   4. (1.99969) BD ( 1) N  1- H  3
               ( 67.65%)   0.8225* N  1 s( 24.61%)p 3.05( 75.10%)d 0.01(  0.27%)
                                                  f 0.00(  0.01%)
                                         0.0000  0.4961 -0.0032  0.0000  0.0000
                                        -0.2855  0.0141 -0.0030 -0.6916  0.0169
                                         0.0048  0.4362 -0.0207  0.0041  0.0171
                                         0.0012  0.0060 -0.0022 -0.0272 -0.0019
                                        -0.0340 -0.0013 -0.0211  0.0002 -0.0056
                                        -0.0016 -0.0031 -0.0061  0.0038 -0.0064
                                         0.0009
               ( 32.35%)   0.5688* H  3 s( 99.97%)p 0.00(  0.03%)
                                         0.9998 -0.0001  0.0001  0.0060  0.0144
                                        -0.0092
   5. (1.99969) BD ( 1) N  1- H  4
               ( 67.65%)   0.8225* N  1 s( 24.61%)p 3.05( 75.10%)d 0.01(  0.27%)
                                                  f 0.00(  0.01%)
                                         0.0000  0.4961 -0.0032  0.0000  0.0000
                                        -0.2855  0.0141 -0.0030 -0.0436 -0.0071
                                         0.0061 -0.8165  0.0257  0.0016  0.0148
[...]
   22. RY (14) N  1             0.00000     0.81912
   23. RY (15) N  1             0.00000     3.71614
   24. RY (16) N  1             0.00000     0.97722
   25. RY (17) N  1             0.00000     3.82049
   26. RY (18) N  1             0.00000     1.04317
   27. RY (19) N  1             0.00000     3.84270
   28. RY (20) N  1             0.00000     3.86749
   29. RY (21) N  1             0.00000     3.66515
   30. RY (22) N  1             0.00000     3.55806
   31. RY (23) N  1             0.00000     3.63415
   32. RY (24) N  1             0.00000     3.53263
   33. RY (25) N  1             0.00000     3.74869
   34. RY (26) N  1             0.00000     3.57490
   35. RY ( 1) H  2             0.00067     0.98142
   36. RY ( 2) H  2             0.00019     1.70356
   37. RY ( 3) H  2             0.00010     1.55024
   38. RY ( 4) H  2             0.00000     1.30366
   39. RY ( 5) H  2             0.00000     1.65217
   40. RY ( 1) H  3             0.00067     0.98151
   41. RY ( 2) H  3             0.00019     1.70357
   42. RY ( 3) H  3             0.00010     1.55025
   43. RY ( 4) H  3             0.00000     1.65208
   44. RY ( 5) H  3             0.00000     1.30368
   45. RY ( 1) H  4             0.00067     0.98151
   46. RY ( 2) H  4             0.00019     1.70356
   47. RY ( 3) H  4             0.00010     1.55025
   48. RY ( 4) H  4             0.00000     1.30369
   49. RY ( 5) H  4             0.00000     1.65211
          -------------------------------
                 Total Lewis    9.99706  ( 99.9706%)
           Valence non-Lewis    0.00006  (  0.0006%)
           Rydberg non-Lewis    0.00288  (  0.0288%)
          -------------------------------
               Total unit  1   10.00000  (100.0000%)
              Charge unit  1    0.00000

 $CHOOSE
   LONE 1 1 END
   BOND S 1 2 S 1 3 S 1 4 END
 $END

 NBO analysis completed in 0.06 CPU seconds (0 wall seconds)
 Maximum scratch memory used by NBO was 424789 words (3.24 MB)
Stopping NBO...Storing NBOs: NH3.nbo

                                *** returned from  NBO  program ***

-------
TIMINGS
-------

Total SCF time: 0 days 0 hours 0 min 1 sec 

Total time                  ....       1.974 sec
Sum of individual times     ....       1.761 sec  ( 89.2%)

Fock matrix formation       ....       1.047 sec  ( 53.0%)
  Split-RI-J                ....       0.624 sec  ( 59.6% of F)
  XC integration            ....       0.370 sec  ( 35.3% of F)
    Basis function eval.    ....       0.018 sec  (  4.8% of XC)
    Density eval.           ....       0.015 sec  (  3.9% of XC)
    XC-Functional eval.     ....       0.010 sec  (  2.7% of XC)
    XC-Potential eval.      ....       0.013 sec  (  3.4% of XC)
Diagonalization             ....       0.001 sec  (  0.1%)
Density matrix formation    ....       0.002 sec  (  0.1%)
Population analysis         ....       0.148 sec  (  7.5%)
Initial guess               ....       0.018 sec  (  0.9%)
Orbital Transformation      ....       0.000 sec  (  0.0%)
Orbital Orthonormalization  ....       0.001 sec  (  0.1%)
DIIS solution               ....       0.000 sec  (  0.0%)
SOSCF solution              ....       0.008 sec  (  0.4%)
Grid generation             ....       0.537 sec  ( 27.2%)


-------------------------------------------------------------------------------
                          DFT DISPERSION CORRECTION                            
                                                                               
                                 DFTD4 V2.0                                    
-------------------------------------------------------------------------------
The BP86 functional is recognized
Active option DFTDOPT                   ...         5   

-------------------------   ----------------
Dispersion correction           -0.000500261
-------------------------   ----------------

------------------   -----------------
gCP correction             0.002510203
------------------   -----------------

-------------------------   --------------------
FINAL SINGLE POINT ENERGY       -56.582778833136
-------------------------   --------------------

                                *** OPTIMIZATION RUN DONE ***

                            ***************************************
                            *     ORCA property calculations      *
                            ***************************************

                                    ---------------------
                                    Active property flags
                                    ---------------------
   (+) Dipole Moment


------------------------------------------------------------------------------
                       ORCA ELECTRIC PROPERTIES CALCULATION
------------------------------------------------------------------------------

Dipole Moment Calculation                       ... on
Quadrupole Moment Calculation                   ... off
Polarizability Calculation                      ... off
GBWName                                         ... NH3.gbw
Electron density file                           ... NH3.scfp
The origin for moment calculation is the CENTER OF MASS  = (-4.579805, -5.339893 -0.027566)

-------------
DIPOLE MOMENT
-------------
                                X             Y             Z
Electronic contribution:     -0.07608       0.19106       0.09884
Nuclear contribution   :      0.29822      -0.74911      -0.38751
                        -----------------------------------------
Total Dipole Moment    :      0.22214      -0.55805      -0.28867
                        -----------------------------------------
Magnitude (a.u.)       :      0.66641
Magnitude (Debye)      :      1.69388



--------------------
Rotational spectrum 
--------------------
 
Rotational constants in cm-1:     9.752901     9.752471     6.212525 
Rotational constants in MHz : 292384.603910 292371.728197 186246.813378 

 Dipole components along the rotational axes: 
x,y,z [a.u.] :    -0.000002     0.000016    -0.666410 
x,y,z [Debye]:    -0.000005     0.000041    -1.693881 

 


           ************************************************************
           *        Program running with 12 parallel MPI-processes    *
           *              working on a common directory               *
           ************************************************************

-------------------------------------------------------------------------------
                               ORCA SCF HESSIAN
-------------------------------------------------------------------------------

Hessian of the Kohn-Sham DFT energy:
Kohn-Sham wavefunction type                      ... RKS
Hartree-Fock exchange scaling                    ...    0.000
Number of operators                              ...    1
Number of atoms                                  ...    4
Basis set dimensions                             ...   49
Integral neglect threshold                       ... 2.5e-11
Integral primitive cutoff                        ... 2.5e-12

Setting up DFT Hessian calculations              ... 
Electron density on the grid                     ... found on disk
Electron density on the final grid               ... found on disk
Building xc-kernel on the grid                   ... done   (      0.0 sec)
Building xc-kernel on the final grid             ... done   (      0.1 sec)
                                                     done   (      0.4 sec)

Nuclear repulsion Hessian                        ... done   (      0.0 sec)

----------------------------------------------
Forming right-hand sides of CP-SCF equations     ...
----------------------------------------------
One electron integral derivatives                ... done   (      0.1 sec)
Transforming the overlap derivative matrices     ... done   (      0.0 sec)
Making the Q(x) pseudodensities                  ... done   (      0.0 sec)
Adding the E*S(x)*S(y) terms to the Hessian      ... done   (      0.0 sec)
Calculating energy weighted overlap derivatives  ... done   (      0.0 sec)
Two electron integral derivatives (RI)           ... done   (      0.3 sec)
Exchange-correlation integral derivatives        ... done   (      0.3 sec)
tr(F(y)Q(x)) contribution to the Hessian         ... done   (      0.0 sec)
Response fock operator R(S(x)) (RI)              ... done   (      0.2 sec)
XC Response fock operator R(S(x))                ... done   (      0.1 sec)
tr(F(y)S(x)) contribution to the Hessian         ... done   (      0.0 sec)
Transforming and finalizing RHSs                 ... done   (      0.0 sec)

----------------------------------------------
Solving the CP-SCF equations (RI)                ...
----------------------------------------------
     CP-SCF ITERATION   0: 
     CP-SCF ITERATION   1:      0.000534395757
     CP-SCF ITERATION   2:      0.000017982323
     CP-SCF ITERATION   3:      0.000000107978
     CP-SCF ITERATION   4:      0.000000003513

                                                 ... done   (      1.5 sec)
Forming perturbed density Hessian contributions  ... done   (      0.0 sec)
Making the perturbed densities                   ... done   (      0.0 sec)
2nd integral derivative contribs (RI)            ... done   (      0.5 sec)
Exchange-correlation Hessian                     ... done   (      0.7 sec)
Dispersion correction in the Hessian             ... 

------------------- 
Dispersion Gradient 
------------------- 
   1  :    0.000027967   -0.000070313   -0.000036372
   2  :   -0.000051379    0.000010524    0.000005444
   3  :    0.000011634    0.000047714   -0.000018418
   4  :    0.000011635    0.000012537    0.000049585

  |G| =    0.000353520



------------------- 
Dispersion Gradient 
------------------- 
   1  :    0.000028069   -0.000070446   -0.000036441
   2  :   -0.000050930    0.000010475    0.000005419
   3  :    0.000011321    0.000047867   -0.000018508
   4  :    0.000011321    0.000012552    0.000049762

  |G| =    0.000353109

done   (      0.1 sec)
gCP correction in the Hessian                    ... done   (      0.1 sec)
Dipol derivatives                                ... done   (      0.2 sec)

Total SCF Hessian time: 0 days 0 hours 0 min 5 sec 

Writing the Hessian file to the disk             ... done


Maximum memory used throughout the entire calculation: 181.4 MB

-----------------------
VIBRATIONAL FREQUENCIES
-----------------------

Scaling factor for frequencies =  1.000000000  (already applied!)

   0:         0.00 cm**-1
   1:         0.00 cm**-1
   2:         0.00 cm**-1
   3:         0.00 cm**-1
   4:         0.00 cm**-1
   5:         0.00 cm**-1
   6:      1014.74 cm**-1
   7:      1626.99 cm**-1
   8:      1627.02 cm**-1
   9:      3364.25 cm**-1
  10:      3486.20 cm**-1
  11:      3486.24 cm**-1


------------
NORMAL MODES
------------

These modes are the Cartesian displacements weighted by the diagonal matrix
M(i,i)=1/sqrt(m[i]) where m[i] is the mass of the displaced atom
Thus, these vectors are normalized but *not* orthogonal

                  0          1          2          3          4          5    
      0       0.000000   0.000000   0.000000   0.000000   0.000000   0.000000
      1       0.000000   0.000000   0.000000   0.000000   0.000000   0.000000
      2       0.000000   0.000000   0.000000   0.000000   0.000000   0.000000
      3       0.000000   0.000000   0.000000   0.000000   0.000000   0.000000
      4       0.000000   0.000000   0.000000   0.000000   0.000000   0.000000
      5       0.000000   0.000000   0.000000   0.000000   0.000000   0.000000
      6       0.000000   0.000000   0.000000   0.000000   0.000000   0.000000
      7       0.000000   0.000000   0.000000   0.000000   0.000000   0.000000
      8       0.000000   0.000000   0.000000   0.000000   0.000000   0.000000
      9       0.000000   0.000000   0.000000   0.000000   0.000000   0.000000
     10       0.000000   0.000000   0.000000   0.000000   0.000000   0.000000
     11       0.000000   0.000000   0.000000   0.000000   0.000000   0.000000
                  6          7          8          9         10         11    
      0      -0.038602  -0.063310  -0.001028  -0.012330   0.072916  -0.014881
      1       0.096981  -0.020378   0.030528   0.030958   0.015647  -0.040211
      2       0.050167  -0.009314  -0.059808   0.016020   0.025866   0.066276
      3      -0.012337  -0.046674  -0.000756   0.576584  -0.796571   0.162535
      4      -0.509215  -0.248188  -0.353917   0.019702   0.022985  -0.016687
      5      -0.263407  -0.142297   0.674088   0.010193   0.017651   0.019583
      6       0.274376   0.456056   0.448481  -0.202603  -0.061683   0.250656
      7      -0.338527   0.087626  -0.106721  -0.444136  -0.209396   0.629223
      8      -0.372820   0.482804   0.048599   0.307384   0.139087  -0.369947
      9       0.274373   0.470368  -0.433446  -0.202638  -0.154972  -0.206409
     10      -0.499888   0.443736   0.036419  -0.005752  -0.031022  -0.053766
     11      -0.060883  -0.211076   0.108395  -0.540191  -0.516167  -0.570600


-----------
IR SPECTRUM
-----------

 Mode    freq (cm**-1)   T**2         TX         TY         TZ
-------------------------------------------------------------------
   6:      1014.74  158.407155  (  4.194640 -10.540177  -5.451313)
   7:      1626.99   19.934476  (  4.208909   1.355289   0.618671)
   8:      1627.02   19.942711  (  0.068296  -2.029769   3.977195)
   9:      3364.25    2.165442  ( -0.490612   1.232281   0.637358)
  10:      3486.20    0.560512  ( -0.691655  -0.148193  -0.245283)
  11:      3486.24    0.561486  (  0.141213   0.381927  -0.629028)

The first frequency considered to be a vibration is 6
The total number of vibrations considered is 6


--------------------------
THERMOCHEMISTRY AT 298.15K
--------------------------

Temperature         ... 298.15 K
Pressure            ... 1.00 atm
Total Mass          ... 17.03 AMU

Throughout the following assumptions are being made:
  (1) The electronic state is orbitally nondegenerate
  (2) There are no thermally accessible electronically excited states
  (3) Hindered rotations indicated by low frequency modes are not
      treated as such but are treated as vibrations and this may
      cause some error
  (4) All equations used are the standard statistical mechanics
      equations for an ideal gas
  (5) All vibrations are strictly harmonic

freq.    1014.74  E(vib)   ...       0.02 
freq.    1626.99  E(vib)   ...       0.00 
freq.    1627.02  E(vib)   ...       0.00 
freq.    3364.25  E(vib)   ...       0.00 
freq.    3486.20  E(vib)   ...       0.00 
freq.    3486.24  E(vib)   ...       0.00 

------------
INNER ENERGY
------------

The inner energy is: U= E(el) + E(ZPE) + E(vib) + E(rot) + E(trans)
    E(el)   - is the total energy from the electronic structure calculation
              = E(kin-el) + E(nuc-el) + E(el-el) + E(nuc-nuc)
    E(ZPE)  - the the zero temperature vibrational energy from the frequency calculation
    E(vib)  - the the finite temperature correction to E(ZPE) due to population
              of excited vibrational states
    E(rot)  - is the rotational thermal energy
    E(trans)- is the translational thermal energy

Summary of contributions to the inner energy U:
Electronic energy                ...    -56.58277883 Eh
Zero point energy                ...      0.03327364 Eh      20.88 kcal/mol
Thermal vibrational correction   ...      0.00004058 Eh       0.03 kcal/mol
Thermal rotational correction    ...      0.00141627 Eh       0.89 kcal/mol
Thermal translational correction ...      0.00141627 Eh       0.89 kcal/mol
-----------------------------------------------------------------------
Total thermal energy                    -56.54663207 Eh


Summary of corrections to the electronic energy:
(perhaps to be used in another calculation)
Total thermal correction                  0.00287312 Eh       1.80 kcal/mol
Non-thermal (ZPE) correction              0.03327364 Eh      20.88 kcal/mol
-----------------------------------------------------------------------
Total correction                          0.03614677 Eh      22.68 kcal/mol


--------
ENTHALPY
--------

The enthalpy is H = U + kB*T
                kB is Boltzmann's constant
Total free energy                 ...    -56.54663207 Eh 
Thermal Enthalpy correction       ...      0.00094421 Eh       0.59 kcal/mol
-----------------------------------------------------------------------
Total Enthalpy                    ...    -56.54568786 Eh


Note: Only C1 symmetry has been detected, increase convergence thresholds 
      if your molecule has a higher symmetry. Symmetry factor of 1.0 is   
      used for the rotational entropy correction. 
 

Note: Rotational entropy computed according to Herzberg 
Infrared and Raman Spectra, Chapter V,1, Van Nostrand Reinhold, 1945 
Point Group:  C1, Symmetry Number:   1  
Rotational constants in cm-1:     9.752901     9.752471     6.212525 

Vibrational entropy computed according to the QRRHO of S. Grimme
Chem.Eur.J. 2012 18 9955


-------
ENTROPY
-------

The entropy contributions are T*S = T*(S(el)+S(vib)+S(rot)+S(trans))
     S(el)   - electronic entropy
     S(vib)  - vibrational entropy
     S(rot)  - rotational entropy
     S(trans)- translational entropy
The entropies will be listed as mutliplied by the temperature to get
units of energy

Electronic entropy                ...      0.00000000 Eh      0.00 kcal/mol
Vibrational entropy               ...      0.00004842 Eh      0.03 kcal/mol
Rotational entropy                ...      0.00649809 Eh      4.08 kcal/mol
Translational entropy             ...      0.01636425 Eh     10.27 kcal/mol
-----------------------------------------------------------------------
Final entropy term                ...      0.02291076 Eh     14.38 kcal/mol

In case the symmetry of your molecule has not been determined correctly
or in case you have a reason to use a different symmetry number we print 
out the resulting rotational entropy values for sn=1,12 :
 --------------------------------------------------------
|  sn= 1 | S(rot)=       0.00649809 Eh      4.08 kcal/mol|
|  sn= 2 | S(rot)=       0.00584364 Eh      3.67 kcal/mol|
|  sn= 3 | S(rot)=       0.00546080 Eh      3.43 kcal/mol|
|  sn= 4 | S(rot)=       0.00518918 Eh      3.26 kcal/mol|
|  sn= 5 | S(rot)=       0.00497849 Eh      3.12 kcal/mol|
|  sn= 6 | S(rot)=       0.00480635 Eh      3.02 kcal/mol|
|  sn= 7 | S(rot)=       0.00466080 Eh      2.92 kcal/mol|
|  sn= 8 | S(rot)=       0.00453472 Eh      2.85 kcal/mol|
|  sn= 9 | S(rot)=       0.00442352 Eh      2.78 kcal/mol|
|  sn=10 | S(rot)=       0.00432404 Eh      2.71 kcal/mol|
|  sn=11 | S(rot)=       0.00423405 Eh      2.66 kcal/mol|
|  sn=12 | S(rot)=       0.00415189 Eh      2.61 kcal/mol|
 --------------------------------------------------------


-------------------
GIBBS FREE ENERGY
-------------------

The Gibbs free energy is G = H - T*S

Total enthalpy                    ...    -56.54568786 Eh 
Total entropy correction          ...     -0.02291076 Eh    -14.38 kcal/mol
-----------------------------------------------------------------------
Final Gibbs free energy         ...    -56.56859862 Eh

For completeness - the Gibbs free energy minus the electronic energy
G-E(el)                           ...      0.01418021 Eh      8.90 kcal/mol


Timings for individual modules:

Sum of individual times         ...       21.609 sec (=   0.360 min)
GTO integral calculation        ...        2.251 sec (=   0.038 min)  10.4 %
SCF iterations                  ...       11.175 sec (=   0.186 min)  51.7 %
SCF Gradient evaluation         ...        2.659 sec (=   0.044 min)  12.3 %
Geometry relaxation             ...        0.063 sec (=   0.001 min)   0.3 %
Analytical frequency calculation...        5.461 sec (=   0.091 min)  25.3 %
                             ****ORCA TERMINATED NORMALLY****
TOTAL RUN TIME: 0 days 0 hours 0 minutes 22 seconds 282 msec
