
                                 *****************
                                 * O   R   C   A *
                                 *****************

           --- An Ab Initio, DFT and Semiempirical electronic structure package ---

                  #######################################################
                  #                        -***-                        #
                  #          Department of theory and spectroscopy      #
                  #               Directorship: Frank Neese             #
                  #        Max Planck Institute fuer Kohlenforschung    #
                  #                Kaiser Wilhelm Platz 1               #
                  #                 D-45470 Muelheim/Ruhr               #
                  #                      Germany                        #
                  #                                                     #
                  #                  All rights reserved                #
                  #                        -***-                        #
                  #######################################################


                         Program Version 4.2.1 -  RELEASE  -


 With contributions from (in alphabetic order):
   Daniel Aravena         : Magnetic Suceptibility
   Michael Atanasov       : Ab Initio Ligand Field Theory (pilot matlab implementation)
   Alexander A. Auer      : GIAO ZORA, VPT2
   Ute Becker             : Parallelization
   Giovanni Bistoni       : ED, misc. LED, open-shell LED, HFLD
   Martin Brehm           : Molecular dynamics
   Dmytro Bykov           : SCF Hessian
   Vijay G. Chilkuri      : MRCI spin determinant printing, contributions to CSF-ICE
   Dipayan Datta          : RHF DLPNO-CCSD density
   Achintya Kumar Dutta   : EOM-CC, STEOM-CC
   Dmitry Ganyushin       : Spin-Orbit,Spin-Spin,Magnetic field MRCI
   Miquel Garcia          : C-PCM Hessian, Gaussian charge scheme
   Yang Guo               : DLPNO-NEVPT2, CIM, IAO-localization
   Andreas Hansen         : Spin unrestricted coupled pair/coupled cluster methods
   Benjamin Helmich-Paris : CASSCF linear response (MC-RPA)
   Lee Huntington         : MR-EOM, pCC
   Robert Izsak           : Overlap fitted RIJCOSX, COSX-SCS-MP3, EOM
   Christian Kollmar      : KDIIS, OOCD, Brueckner-CCSD(T), CCSD density
   Simone Kossmann        : Meta GGA functionals, TD-DFT gradient, OOMP2, MP2 Hessian
   Martin Krupicka        : AUTO-CI
   Lucas Lang             : DCDCAS
   Dagmar Lenk            : GEPOL surface, SMD
   Dimitrios Liakos       : Extrapolation schemes; Compound Job, initial MDCI parallelization
   Dimitrios Manganas     : Further ROCIS development; embedding schemes
   Dimitrios Pantazis     : SARC Basis sets
   Taras Petrenko         : DFT Hessian,TD-DFT gradient, ASA, ECA, R-Raman, ABS, FL, XAS/XES, NRVS
   Peter Pinski           : DLPNO-MP2, DLPNO-MP2 Gradient
   Christoph Reimann      : Effective Core Potentials
   Marius Retegan         : Local ZFS, SOC
   Christoph Riplinger    : Optimizer, TS searches, QM/MM, DLPNO-CCSD(T), (RO)-DLPNO pert. Triples
   Tobias Risthaus        : Range-separated hybrids, TD-DFT gradient, RPA, STAB
   Michael Roemelt        : Original ROCIS implementation
   Masaaki Saitow         : Open-shell DLPNO-CCSD energy and density
   Barbara Sandhoefer     : DKH picture change effects
   Avijit Sen             : IP-ROCIS
   Kantharuban Sivalingam : CASSCF convergence, NEVPT2, FIC-MRCI
   Bernardo de Souza      : ESD, SOC TD-DFT
   Georgi Stoychev        : AutoAux, RI-MP2 NMR
   Willem Van den Heuvel  : Paramagnetic NMR
   Boris Wezisla          : Elementary symmetry handling
   Frank Wennmohs         : Technical directorship


 We gratefully acknowledge several colleagues who have allowed us to
 interface, adapt or use parts of their codes:
   Stefan Grimme, W. Hujo, H. Kruse,             : VdW corrections, initial TS optimization,
                  C. Bannwarth                     DFT functionals, gCP, sTDA/sTD-DF
   Ed Valeev, F. Pavosevic, A. Kumar             : LibInt (2-el integral package), F12 methods
   Garnet Chan, S. Sharma, J. Yang, R. Olivares  : DMRG
   Ulf Ekstrom                                   : XCFun DFT Library
   Mihaly Kallay                                 : mrcc  (arbitrary order and MRCC methods)
   Andreas Klamt, Michael Diedenhofen            : otool_cosmo (COSMO solvation model)
   Jiri Pittner, Ondrej Demel                    : Mk-CCSD
   Frank Weinhold                                : gennbo (NPA and NBO analysis)
   Christopher J. Cramer and Donald G. Truhlar   : smd solvation model
   Lars Goerigk                                  : TD-DFT with DH, B97 family of functionals
   V. Asgeirsson, H. Jonsson                     : NEB implementation
   FAccTs GmbH                                   : IRC, NEB, NEB-TS, Multilevel, MM, QM/MM, CI optimization
   S Lehtola, MJT Oliveira, MAL Marques          : LibXC Library


 Your calculation uses the libint2 library for the computation of 2-el integrals
 For citations please refer to: http://libint.valeyev.net

 Your ORCA version has been built with support for libXC version: 4.2.3
 For citations please refer to: https://tddft.org/programs/libxc/

 This ORCA versions uses:
   CBLAS   interface :  Fast vector & matrix operations
   LAPACKE interface :  Fast linear algebra routines
   SCALAPACK package :  Parallel linear algebra routines




***************************************
The coordinates will be read from file: init.xyz
***************************************


Your calculation utilizes the geometrical counterpoise correction gCP
Please cite in your paper:
H.Kruse, S. Grimme J.Chem.Phys., 136, (2012), 154101 
   

Your calculation utilizes the atom-pairwise dispersion correction
based on tight binding partial charges (D4)
Cite in your paper:
E.Caldeweyher, C.Bannwarth, S.Grimme, J.Chem.Phys., (2017), 147, 034112.
E.Caldeweyher, S.Ehlert, A.Hansen, H.Neugebauer, S.Grimme, J.Chem.Phys., (2018), in progress.
   

----- Orbital basis set information -----
Your calculation utilizes the basis: def2-TZVP
   F. Weigend and R. Ahlrichs, Phys. Chem. Chem. Phys. 7, 3297 (2005).

----- AuxJ basis set information -----
Your calculation utilizes the auxiliary basis: def2/J
   F. Weigend, Phys. Chem. Chem. Phys. 8, 1057 (2006).

================================================================================
                                        WARNINGS
                       Please study these warnings very carefully!
================================================================================


WARNING: The environment variable RSH_COMMAND is not set!
  ===> : All Displacements for the Numerical Hessian calculation
         will be started on localhost

WARNING: Geometry Optimization
  ===> : Switching off AutoStart
         For restart on a previous wavefunction, please use MOREAD

INFO   : the flag for use of LIBINT has been found!

================================================================================
                                       INPUT FILE
================================================================================
NAME = NH3‡.inp
|  1> ! BP86 D4 gCP(DFT/TZ) def2-TZVP OptTS Freq IRC TightOpt TightSCF Grid4 FinalGrid5 PrintBasis PrintMOs NBO
|  2> 
|  3> %geom
|  4>  ts_mode
|  5>   {D 1 2 3 0}
|  6>  end
|  7>  ts_active_atoms
|  8>   {0 1 2 3}
|  9>  end
| 10>  calc_hess true
| 11>  numhess true
| 12> end
| 13> 
| 14> %irc
| 15>  maxiter 1000
| 16>  de_init_displ 0.25
| 17>  TolMAXG 1e-3
| 18>  TolRMSG 2e-4
| 19> end
| 20> 
| 21> %pal
| 22>  nprocs 12
| 23> end
| 24> 
| 25> *xyzfile 0 1 init.xyz
| 26> 
| 27>                          ****END OF INPUT****
================================================================================

                       *****************************
                       * Geometry Optimization Run *
                       *****************************

Geometry optimization settings:
Update method            Update   .... Bofill
Choice of coordinates    CoordSys .... Z-matrix Internals
Initial Hessian          InHess   .... Almoef's Model

Convergence Tolerances:
Energy Change            TolE     ....  1.0000e-06 Eh
Max. Gradient            TolMAXG  ....  1.0000e-04 Eh/bohr
RMS Gradient             TolRMSG  ....  3.0000e-05 Eh/bohr
Max. Displacement        TolMAXD  ....  1.0000e-03 bohr
RMS Displacement         TolRMSD  ....  6.0000e-04 bohr
Strict Convergence                ....  False
------------------------------------------------------------------------------
                        ORCA OPTIMIZATION COORDINATE SETUP
------------------------------------------------------------------------------

The optimization will be done in new redundant internal coordinates
Making redundant internal coordinates   ...  (new redundants) done
Following TS mode number                ...    internal coordinate number:  7
TS-active-atoms for coordinate setup... 0 1 2 3 
Evaluating the initial hessian          ...  (Is done on the fly) done
Evaluating the coordinates              ...  done
Calculating the B-matrix                .... done
Calculating the G-matrix                .... done
Diagonalizing the G-matrix              .... done
The first mode is                       ....    2
The number of degrees of freedom        ....    6

    -----------------------------------------------------------------
                    Redundant Internal Coordinates


    -----------------------------------------------------------------
         Definition                    Initial Value    d2E/dq (diagonal element)
    -----------------------------------------------------------------
      1. B(H   1,N   0)                  1.0052         0.000000   
      2. B(H   2,N   0)                  1.0052         0.000000   
      3. B(H   3,N   0)                  1.0052         0.000000   
      4. A(H   1,N   0,H   3)          120.0003         0.000000   
      5. A(H   2,N   0,H   3)          119.9994         0.000000   
      6. A(H   1,N   0,H   2)          120.0003         0.000000   
      7. D(N   0,H   3,H   2,H   1)     -0.0000         0.000000   
      8. I(H   1,H   3,H   2,N   0)     -0.0000         0.000000   
    -----------------------------------------------------------------

Number of atoms                         .... 4
Number of degrees of freedom            .... 8

         *************************************************************
         *                GEOMETRY OPTIMIZATION CYCLE   1            *
         *************************************************************
---------------------------------
CARTESIAN COORDINATES (ANGSTROEM)
---------------------------------
  N      0.000003   -0.000000   -0.000000
  H      1.005163    0.000000    0.000000
  H     -0.502583    0.870494    0.000000
  H     -0.502583   -0.870494    0.000000

----------------------------
CARTESIAN COORDINATES (A.U.)
----------------------------
  NO LB      ZA    FRAG     MASS         X           Y           Z
   0 N     7.0000    0    14.007    0.000005   -0.000000   -0.000000
   1 H     1.0000    0     1.008    1.899483    0.000000    0.000000
   2 H     1.0000    0     1.008   -0.949744    1.644996    0.000000
   3 H     1.0000    0     1.008   -0.949744   -1.644996    0.000000

--------------------------------
INTERNAL COORDINATES (ANGSTROEM)
--------------------------------
 N      0   0   0     0.000000000000     0.00000000     0.00000000
 H      1   0   0     1.005160191835     0.00000000     0.00000000
 H      1   2   0     1.005162915918   120.00028106     0.00000000
 H      1   2   3     1.005162915830   120.00028123   180.00000121

---------------------------
INTERNAL COORDINATES (A.U.)
---------------------------
 N      0   0   0     0.000000000000     0.00000000     0.00000000
 H      1   0   0     1.899477483288     0.00000000     0.00000000
 H      1   2   0     1.899482631058   120.00028106     0.00000000
 H      1   2   3     1.899482630892   120.00028123   180.00000121

---------------------
BASIS SET INFORMATION
---------------------
There are 2 groups of distinct atoms

 Group   1 Type N   : 11s6p2d1f contracted to 5s3p2d1f pattern {62111/411/11/1}
 Group   2 Type H   : 5s1p contracted to 3s1p pattern {311/1}

Atom   0N    basis set group =>   1
Atom   1H    basis set group =>   2
Atom   2H    basis set group =>   2
Atom   3H    basis set group =>   2

-------------------------
BASIS SET IN INPUT FORMAT
-------------------------

 # Basis set for element : H 
 NewGTO H 
 S 3 
   1      34.0613410000      0.0254393072
   2       5.1235746000      0.1900859489
   3       1.1646626000      0.8524411301
 S 1 
   1       0.3272304100      1.0000000000
 S 1 
   1       0.1030724100      1.0000000000
 P 1 
   1       0.8000000000      1.0000000000
  end;

 # Basis set for element : N 
 NewGTO N 
 S 6 
   1   19730.8006470000      0.0005862639
   2    2957.8958745000      0.0045428821
   3     673.2213359500      0.0235584136
   4     190.6824949400      0.0947091933
   5      62.2954418980      0.2971978492
   6      22.6541611820      0.6691624689
 S 2 
   1       8.9791477428      0.6459668363
   2       3.6863002370      0.3870057440
 S 1 
   1       0.8466007680      1.0000000000
 S 1 
   1       0.3364713377      1.0000000000
 S 1 
   1       0.1364765367      1.0000000000
 P 4 
   1      49.2003805100      0.0114488252
   2      11.3467905370      0.0784223379
   3       3.4273972411      0.3081809474
   4       1.1785525134      0.7202719637
 P 1 
   1       0.4164220497      1.0000000000
 P 1 
   1       0.1426082601      1.0000000000
 D 1 
   1       1.6540000000      1.0000000000
 D 1 
   1       0.4690000000      1.0000000000
 F 1 
   1       1.0930000000      1.0000000000
  end;

---------------------------------
AUXILIARY/J BASIS SET INFORMATION
---------------------------------
There are 2 groups of distinct atoms

 Group   1 Type N   : 12s5p4d2f1g contracted to 6s4p3d1f1g pattern {711111/2111/211/2/1}
 Group   2 Type H   : 5s2p1d contracted to 3s1p1d pattern {311/2/1}

Atom   0N    basis set group =>   1
Atom   1H    basis set group =>   2
Atom   2H    basis set group =>   2
Atom   3H    basis set group =>   2

-------------------------------------
AUXILIARY/J BASIS SET IN INPUT FORMAT
-------------------------------------

 # Auxiliary/J basis set for element : H 
 NewAuxJGTO H 
 S 3 
   1      15.6752927000      0.1007184237
   2       3.6063578000      0.3404257499
   3       1.2080016000      0.6491996172
 S 1 
   1       0.4726794000      1.0000000000
 S 1 
   1       0.2018100000      1.0000000000
 P 2 
   1       2.0281365000      0.5596620919
   2       0.5358730000      0.5596620919
 D 1 
   1       2.2165124000      1.0000000000
  end;

 # Auxiliary/J basis set for element : N 
 NewAuxJGTO N 
 S 7 
   1    2542.9401785000      0.0128431329
   2    1029.5472946000      0.0206655120
   3     424.9053546000      0.0652200677
   4     178.4573708000      0.1617388940
   5      76.1362742000      0.3094256941
   6      32.9338653000      0.3918849307
   7      14.4155436000      0.1822470660
 S 1 
   1       6.3718891000     -1.0000000000
 S 1 
   1       2.8381742000      1.0000000000
 S 1 
   1       1.2711793000      1.0000000000
 S 1 
   1       0.5712407000      1.0000000000
 S 1 
   1       0.2569887000      1.0000000000
 P 2 
   1      17.8975990000     -1.0974070137
   2       6.5346319000      0.1380055963
 P 1 
   1       2.3523645000      1.0000000000
 P 1 
   1       0.8397377000      1.0000000000
 P 1 
   1       0.2989335000      1.0000000000
 D 2 
   1       7.6909870000      0.1770780943
   2       2.3044972000      0.8918319220
 D 1 
   1       0.8403987000      1.0000000000
 D 1 
   1       0.3303797000      1.0000000000
 F 2 
   1       2.3331076000      0.6223178877
   2       0.8446137000      0.5036714203
 G 1 
   1       1.4037700000     -1.0000000000
  end;



           ************************************************************
           *        Program running with 12 parallel MPI-processes    *
           *              working on a common directory               *
           ************************************************************
------------------------------------------------------------------------------
                           ORCA GTO INTEGRAL CALCULATION
                           -- RI-GTO INTEGRALS CHOSEN --
------------------------------------------------------------------------------

                         BASIS SET STATISTICS AND STARTUP INFO

Gaussian basis set:
 # of primitive gaussian shells          ...   38
 # of primitive gaussian functions       ...   70
 # of contracted shells                  ...   23
 # of contracted basis functions         ...   49
 Highest angular momentum                ...    3
 Maximum contraction depth               ...    6
Auxiliary gaussian basis set:
 # of primitive gaussian shells          ...   48
 # of primitive gaussian functions       ...  118
 # of contracted shells                  ...   30
 # of contracted aux-basis functions     ...   82
 Highest angular momentum                ...    4
 Maximum contraction depth               ...    7
Ratio of auxiliary to basis functions    ...  1.67
Integral package used                  ... LIBINT
 One Electron integrals                  ... done
 Ordering auxiliary basis shells         ... done
 Integral threshhold             Thresh  ...  2.500e-11
 Primitive cut-off               TCut    ...  2.500e-12
 Pre-screening matrix                    ... done
 Shell pair data                         ... 
 Ordering of the shell pairs             ... done (   0.000 sec) 276 of 276 pairs
 Determination of significant pairs      ... done (   0.000 sec)
 Creation of shell pair data             ... done (   0.000 sec)
 Storage of shell pair data              ... done (   0.012 sec)
 Shell pair data done in (   0.013 sec)
 Computing two index integrals           ... done
 Cholesky decomposition of the V-matrix  ... done


Timings:
 Total evaluation time                   ...   0.202 sec (  0.003 min)
 One electron matrix time                ...   0.012 sec (  0.000 min) =  6.0%
 Schwartz matrix evaluation time         ...   0.146 sec (  0.002 min) = 72.3%
 Two index repulsion integral time       ...   0.005 sec (  0.000 min) =  2.3%
 Cholesky decomposition of V             ...   0.003 sec (  0.000 min) =  1.7%
 Three index repulsion integral time     ...   0.000 sec (  0.000 min) =  0.0%



           ************************************************************
           *        Program running with 12 parallel MPI-processes    *
           *              working on a common directory               *
           ************************************************************
-------------------------------------------------------------------------------
                                 ORCA SCF
-------------------------------------------------------------------------------

------------
SCF SETTINGS
------------
Hamiltonian:
 Density Functional     Method          .... DFT(GTOs)
 Exchange Functional    Exchange        .... B88
   X-Alpha parameter    XAlpha          ....  0.666667
   Becke's b parameter  XBeta           ....  0.004200
 Correlation Functional Correlation     .... P86
 LDA part of GGA corr.  LDAOpt          .... PW91-LDA
 Gradients option       PostSCFGGA      .... off
   Density functional embedding theory  .... OFF
 RI-approximation to the Coulomb term is turned on
   Number of auxiliary basis functions  .... 82


General Settings:
 Integral files         IntName         .... NH3‡
 Hartree-Fock type      HFTyp           .... RHF
 Total Charge           Charge          ....    0
 Multiplicity           Mult            ....    1
 Number of Electrons    NEL             ....   10
 Basis Dimension        Dim             ....   49
 Nuclear Repulsion      ENuc            ....     11.9675068210 Eh

Convergence Acceleration:
 DIIS                   CNVDIIS         .... on
   Start iteration      DIISMaxIt       ....    12
   Startup error        DIISStart       ....  0.200000
   # of expansion vecs  DIISMaxEq       ....     5
   Bias factor          DIISBfac        ....   1.050
   Max. coefficient     DIISMaxC        ....  10.000
 Newton-Raphson         CNVNR           .... off
 SOSCF                  CNVSOSCF        .... on
   Start iteration      SOSCFMaxIt      ....   150
   Startup grad/error   SOSCFStart      ....  0.003300
 Level Shifting         CNVShift        .... on
   Level shift para.    LevelShift      ....    0.2500
   Turn off err/grad.   ShiftErr        ....    0.0010
 Zerner damping         CNVZerner       .... off
 Static damping         CNVDamp         .... on
   Fraction old density DampFac         ....    0.7000
   Max. Damping (<1)    DampMax         ....    0.9800
   Min. Damping (>=0)   DampMin         ....    0.0000
   Turn off err/grad.   DampErr         ....    0.1000
 Fernandez-Rico         CNVRico         .... off

SCF Procedure:
 Maximum # iterations   MaxIter         ....   125
 SCF integral mode      SCFMode         .... Direct
   Integral package                     .... LIBINT
 Reset frequency        DirectResetFreq ....    20
 Integral Threshold     Thresh          ....  2.500e-11 Eh
 Primitive CutOff       TCut            ....  2.500e-12 Eh

Convergence Tolerance:
 Convergence Check Mode ConvCheckMode   .... Total+1el-Energy
 Convergence forced     ConvForced      .... 0
 Energy Change          TolE            ....  1.000e-08 Eh
 1-El. energy change                    ....  1.000e-05 Eh
 Orbital Gradient       TolG            ....  1.000e-05
 Orbital Rotation angle TolX            ....  1.000e-05
 DIIS Error             TolErr          ....  5.000e-07


Diagonalization of the overlap matrix:
Smallest eigenvalue                        ... 4.896e-03
Time for diagonalization                   ...    0.001 sec
Threshold for overlap eigenvalues          ... 1.000e-08
Number of eigenvalues below threshold      ... 0
Time for construction of square roots      ...    0.004 sec
Total time needed                          ...    0.005 sec

-------------------
DFT GRID GENERATION
-------------------

General Integration Accuracy     IntAcc      ...  4.670
Radial Grid Type                 RadialGrid  ... Gauss-Chebyshev
Angular Grid (max. acc.)         AngularGrid ... Lebedev-302
Angular grid pruning method      GridPruning ... 3 (G Style)
Weight generation scheme         WeightScheme... Becke
Basis function cutoff            BFCut       ...    1.0000e-11
Integration weight cutoff        WCut        ...    1.0000e-14
Grids for H and He will be reduced by one unit

# of grid points (after initial pruning)     ...  16394 (   0.0 sec)
# of grid points (after weights+screening)   ...  16135 (   0.0 sec)
nearest neighbour list constructed           ...    0.0 sec
Grid point re-assignment to atoms done       ...    0.0 sec
Grid point division into batches done        ...    0.1 sec
Reduced shell lists constructed in    0.1 sec

Total number of grid points                  ...    16135
Total number of batches                      ...      254
Average number of points per batch           ...       63
Average number of grid points per atom       ...     4034
Average number of shells per batch           ...    21.48 (93.38%)
Average number of basis functions per batch  ...    46.35 (94.59%)
Average number of large shells per batch     ...    20.96 (97.57%)
Average number of large basis fcns per batch ...    45.83 (98.87%)
Maximum spatial batch extension              ...   2.60,  2.57, 15.66 au
Average spatial batch extension              ...   0.11,  0.12,  0.22 au

Time for grid setup =    0.149 sec

------------------------------
INITIAL GUESS: MODEL POTENTIAL
------------------------------
Loading Hartree-Fock densities                     ... done
Calculating cut-offs                               ... done
Setting up the integral package                    ... done
Initializing the effective Hamiltonian             ... done
Starting the Coulomb interaction                   ... done (   0.0 sec)
Reading the grid                                   ... done
Mapping shells                                     ... done
Starting the XC term evaluation                    ... done (   0.0 sec)
  promolecular density results
     # of electrons  =      9.998560841
     EX              =     -7.451039093
     EC              =     -0.337128712
     EX+EC           =     -7.788167806
Transforming the Hamiltonian                       ... done (   0.0 sec)
Diagonalizing the Hamiltonian                      ... done (   0.0 sec)
Back transforming the eigenvectors                 ... done (   0.0 sec)
Now organizing SCF variables                       ... done
                      ------------------
                      INITIAL GUESS DONE (   0.3 sec)
                      ------------------
--------------
SCF ITERATIONS
--------------
ITER       Energy         Delta-E        Max-DP      RMS-DP      [F,P]     Damp
               ***  Starting incremental Fock matrix formation  ***
  0    -56.4512934843   0.000000000000 0.10740007  0.00405013  0.3546956 0.7000
  1    -56.5175322584  -0.066238774076 0.07113672  0.00253869  0.1365757 0.7000
                               ***Turning on DIIS***
  2    -56.5355592833  -0.018027024977 0.06339885  0.00275004  0.0134087 0.0000
  3    -56.5692181073  -0.033658823939 0.04360815  0.00141167  0.0950822 0.0000
  4    -56.5764525940  -0.007234486712 0.01498247  0.00049329  0.0263483 0.0000
  5    -56.5770220388  -0.000569444783 0.00440505  0.00015470  0.0062006 0.0000
                      *** Initiating the SOSCF procedure ***
                           *** Shutting down DIIS ***
                      *** Re-Reading the Fockian *** 
                      *** Removing any level shift *** 
ITER      Energy       Delta-E        Grad      Rot      Max-DP    RMS-DP
  6    -56.57705470  -0.0000326609  0.000440  0.000440  0.001170  0.000046
               *** Restarting incremental Fock matrix formation ***
  7    -56.57705631  -0.0000016068  0.000139  0.000266  0.000532  0.000022
  8    -56.57705632  -0.0000000170  0.000121  0.000065  0.000099  0.000006
  9    -56.57705639  -0.0000000648  0.000028  0.000029  0.000071  0.000004
 10    -56.57705639  -0.0000000052  0.000005  0.000009  0.000020  0.000001
                 **** Energy Check signals convergence ****
              ***Rediagonalizing the Fockian in SOSCF/NRSCF***

               *****************************************************
               *                     SUCCESS                       *
               *           SCF CONVERGED AFTER  11 CYCLES          *
               *****************************************************

Setting up the final grid:

General Integration Accuracy     IntAcc      ...  5.010
Radial Grid Type                 RadialGrid  ... Gauss-Chebyshev
Angular Grid (max. acc.)         AngularGrid ... Lebedev-434
Angular grid pruning method      GridPruning ... 3 (G Style)
Weight generation scheme         WeightScheme... Becke
Basis function cutoff            BFCut       ...    1.0000e-11
Integration weight cutoff        WCut        ...    1.0000e-14
Grids for H and He will be reduced by one unit

# of grid points (after initial pruning)     ...  30666 (   0.0 sec)
# of grid points (after weights+screening)   ...  30107 (   0.0 sec)
nearest neighbour list constructed           ...    0.0 sec
Grid point re-assignment to atoms done       ...    0.0 sec
Grid point division into batches done        ...    0.3 sec
Reduced shell lists constructed in    0.3 sec

Total number of grid points                  ...    30107
Total number of batches                      ...      473
Average number of points per batch           ...       63
Average number of grid points per atom       ...     7527
Average number of shells per batch           ...    21.66 (94.17%)
Average number of basis functions per batch  ...    46.83 (95.57%)
Average number of large shells per batch     ...    21.17 (97.75%)
Average number of large basis fcns per batch ...    45.66 (97.50%)
Maximum spatial batch extension              ...   2.66,  2.74, 15.10 au
Average spatial batch extension              ...   0.09,  0.10,  0.15 au

Final grid set up in    0.5 sec
Final integration                            ... done (   0.1 sec)
Change in XC energy                          ...     0.000003338
Integrated number of electrons               ...    10.000001739
Previous integrated no of electrons          ...    10.000011442

----------------
TOTAL SCF ENERGY
----------------

Total Energy       :          -56.57705306 Eh           -1539.53988 eV

Components:
Nuclear Repulsion  :           11.96750682 Eh             325.65242 eV
Electronic Energy  :          -68.54455988 Eh           -1865.19230 eV
One Electron Energy:          -99.78384574 Eh           -2715.25648 eV
Two Electron Energy:           31.23928586 Eh             850.06418 eV

Virial components:
Potential Energy   :         -112.88905748 Eh           -3071.86742 eV
Kinetic Energy     :           56.31200442 Eh            1532.32754 eV
Virial Ratio       :            2.00470679


DFT components:
N(Alpha)           :        5.000000869660 electrons
N(Beta)            :        5.000000869660 electrons
N(Total)           :       10.000001739320 electrons
E(X)               :       -7.689275236414 Eh       
E(C)               :       -0.345280263547 Eh       
E(XC)              :       -8.034555499960 Eh       
DFET-embed. en.    :        0.000000000000 Eh       

---------------
SCF CONVERGENCE
---------------

  Last Energy change         ...   -1.4113e-10  Tolerance :   1.0000e-08
  Last MAX-Density change    ...    7.7739e-07  Tolerance :   1.0000e-07
  Last RMS-Density change    ...    2.6711e-08  Tolerance :   5.0000e-09
  Last Orbital Gradient      ...    4.2281e-07  Tolerance :   1.0000e-05
  Last Orbital Rotation      ...    3.9122e-07  Tolerance :   1.0000e-05

             **** THE GBW FILE WAS UPDATED (NH3‡.gbw) ****
             **** DENSITY FILE WAS UPDATED (NH3‡.scfp) ****
             **** ENERGY FILE WAS UPDATED (NH3‡.en.tmp) ****
             **** THE GBW FILE WAS UPDATED (NH3‡.gbw) ****
             **** DENSITY FILE WAS UPDATED (NH3‡.scfp) ****
----------------
ORBITAL ENERGIES
----------------

  NO   OCC          E(Eh)            E(eV) 
   0   2.0000     -13.960468      -379.8836 
   1   2.0000      -0.757655       -20.6168 
   2   2.0000      -0.430573       -11.7165 
   3   2.0000      -0.430571       -11.7164 
   4   2.0000      -0.193556        -5.2669 
   5   0.0000       0.018999         0.5170 
   6   0.0000       0.099016         2.6944 
   7   0.0000       0.099018         2.6944 
   8   0.0000       0.279871         7.6157 
   9   0.0000       0.279883         7.6160 
  10   0.0000       0.327178         8.9030 
  11   0.0000       0.349867         9.5204 
  12   0.0000       0.452598        12.3158 
  13   0.0000       0.492000        13.3880 
  14   0.0000       0.492021        13.3886 
  15   0.0000       0.886706        24.1285 
  16   0.0000       0.886735        24.1293 
  17   0.0000       1.155379        31.4395 
  18   0.0000       1.155410        31.4403 
  19   0.0000       1.197877        32.5959 
  20   0.0000       1.459592        39.7175 
  21   0.0000       1.680861        45.7386 
  22   0.0000       1.725080        46.9418 
  23   0.0000       1.725097        46.9423 
  24   0.0000       1.822500        49.5927 
  25   0.0000       1.924931        52.3800 
  26   0.0000       1.924955        52.3807 
  27   0.0000       2.090546        56.8867 
  28   0.0000       2.214881        60.2700 
  29   0.0000       2.292152        62.3726 
  30   0.0000       2.292178        62.3733 
  31   0.0000       2.525680        68.7273 
  32   0.0000       2.525703        68.7279 
  33   0.0000       2.857271        77.7503 
  34   0.0000       3.158451        85.9458 
  35   0.0000       3.158455        85.9459 
  36   0.0000       4.121499       112.1517 
  37   0.0000       4.121525       112.1524 
  38   0.0000       4.230307       115.1125 
  39   0.0000       4.473683       121.7351 
  40   0.0000       4.473734       121.7365 
  41   0.0000       4.518928       122.9663 
  42   0.0000       4.595002       125.0364 
  43   0.0000       4.701020       127.9213 
  44   0.0000       4.701037       127.9217 
  45   0.0000       5.144034       139.9763 
  46   0.0000       5.144078       139.9775 
  47   0.0000       5.814065       158.2087 
  48   0.0000      31.187569       848.6569 
------------------
MOLECULAR ORBITALS
------------------
                      0         1         2         3         4         5   
                 -13.96047  -0.75765  -0.43057  -0.43057  -0.19356   0.01900
                   2.00000   2.00000   2.00000   2.00000   2.00000   0.00000
                  --------  --------  --------  --------  --------  --------
  0N   1s        -0.449015  0.098120  0.000001 -0.000000 -0.000000  0.051321
  0N   2s        -0.625689  0.219133  0.000001 -0.000000 -0.000000  0.121425
  0N   3s        -0.036799 -0.333436 -0.000001  0.000000  0.000000 -0.273484
  0N   4s         0.023430 -0.389307 -0.000007  0.000000  0.000000 -0.018144
  0N   5s        -0.015778 -0.132093  0.000028 -0.000000  0.000000 -1.888159
  0N   1pz       -0.000000 -0.000000  0.000000 -0.000000 -0.433144 -0.000000
  0N   1px        0.000000  0.000001 -0.350983  0.000038 -0.000000  0.000004
  0N   1py       -0.000000 -0.000000 -0.000038 -0.350985 -0.000000  0.000000
  0N   2pz        0.000000 -0.000000  0.000000 -0.000000 -0.355412 -0.000000
  0N   2px       -0.000000 -0.000009 -0.249214  0.000027  0.000000 -0.000019
  0N   2py        0.000000 -0.000000 -0.000027 -0.249199  0.000000 -0.000000
  0N   3pz       -0.000000 -0.000000 -0.000000 -0.000000 -0.401242 -0.000000
  0N   3px        0.000000  0.000002 -0.133400  0.000014 -0.000000  0.000015
  0N   3py       -0.000000 -0.000000 -0.000014 -0.133415 -0.000000  0.000000
  0N   1dz2       0.000337  0.007632  0.000000 -0.000000 -0.000000 -0.004418
  0N   1dxz       0.000000  0.000000 -0.000000  0.000000 -0.000000  0.000000
  0N   1dyz       0.000000  0.000000 -0.000000 -0.000000 -0.000000 -0.000000
  0N   1dx2y2     0.000000  0.000001 -0.010327  0.000001  0.000000  0.000000
  0N   1dxy      -0.000000 -0.000000  0.000001  0.010327 -0.000000  0.000000
  0N   2dz2       0.000159  0.013224 -0.000003  0.000000 -0.000000 -0.017063
  0N   2dxz      -0.000000 -0.000000 -0.000000 -0.000000  0.000002 -0.000000
  0N   2dyz      -0.000000  0.000000  0.000000 -0.000000 -0.000000  0.000000
  0N   2dx2y2     0.000000 -0.000008  0.002821 -0.000000  0.000000 -0.000009
  0N   2dxy       0.000000  0.000000 -0.000000 -0.002821  0.000000  0.000000
  0N   1f0        0.000000  0.000000 -0.000000  0.000000  0.007750 -0.000000
  0N   1f+1      -0.000000  0.000001  0.005020 -0.000001 -0.000000  0.000001
  0N   1f-1      -0.000000  0.000000  0.000001  0.005020  0.000000  0.000000
  0N   1f+2      -0.000000 -0.000000 -0.000000 -0.000000 -0.000000 -0.000000
  0N   1f-2       0.000000  0.000000 -0.000000  0.000000 -0.000000 -0.000000
  0N   1f+3       0.000195  0.004961 -0.000001  0.000000 -0.000000 -0.004028
  0N   1f-3       0.000000 -0.000000  0.000000  0.000000 -0.000000 -0.000000
  1H   1s        -0.000031 -0.089129 -0.180481  0.000019 -0.000000  0.038238
  1H   2s        -0.000067 -0.079812 -0.232321  0.000025 -0.000000  0.057596
  1H   3s         0.002767 -0.007851 -0.070049  0.000008 -0.000000  0.939428
  1H   1pz       -0.000000  0.000000  0.000000 -0.000000 -0.024347  0.000000
  1H   1px       -0.000650  0.014802  0.022798 -0.000002  0.000000  0.036370
  1H   1py       -0.000000  0.000000 -0.000001 -0.012256 -0.000000 -0.000000
  2H   1s        -0.000031 -0.089132  0.090224 -0.156312 -0.000000  0.038235
  2H   2s        -0.000067 -0.079828  0.116130 -0.201209 -0.000000  0.057570
  2H   3s         0.002767 -0.007844  0.035012 -0.060655 -0.000000  0.939461
  2H   1pz       -0.000000  0.000000 -0.000000  0.000000 -0.024345  0.000000
  2H   1px        0.000325 -0.007406 -0.003493 -0.015180 -0.000000 -0.018190
  2H   1py       -0.000563  0.012823 -0.015175  0.014038  0.000000  0.031506
  3H   1s        -0.000031 -0.089132  0.090257  0.156292 -0.000000  0.038235
  3H   2s        -0.000067 -0.079828  0.116173  0.201184 -0.000000  0.057570
  3H   3s         0.002767 -0.007844  0.035025  0.060647 -0.000000  0.939461
  3H   1pz       -0.000000  0.000000 -0.000000 -0.000000 -0.024345  0.000000
  3H   1px        0.000325 -0.007406 -0.003489  0.015180 -0.000000 -0.018190
  3H   1py        0.000563 -0.012823  0.015178  0.014035 -0.000000 -0.031506
                      6         7         8         9        10        11   
                   0.09902   0.09902   0.27987   0.27988   0.32718   0.34987
                   0.00000   0.00000   0.00000   0.00000   0.00000   0.00000
                  --------  --------  --------  --------  --------  --------
  0N   1s         0.000001 -0.000000 -0.000001  0.000000 -0.000000 -0.031282
  0N   2s         0.000001 -0.000000 -0.000005  0.000000 -0.000000 -0.070503
  0N   3s         0.000010 -0.000000  0.000051  0.000000 -0.000000 -0.016937
  0N   4s        -0.000058  0.000000 -0.000220 -0.000000  0.000000  0.762750
  0N   5s         0.000128 -0.000000  0.000850  0.000000  0.000000  1.245596
  0N   1pz       -0.000000 -0.000000 -0.000000  0.000000 -0.332579  0.000000
  0N   1px       -0.263058  0.000395 -0.008177 -0.000000  0.000000  0.000009
  0N   1py        0.000395  0.263059  0.000000 -0.008226 -0.000000 -0.000000
  0N   2pz       -0.000000 -0.000000 -0.000000  0.000000 -0.766607  0.000000
  0N   2px       -0.096997  0.000146  0.325520  0.000019  0.000000 -0.000034
  0N   2py        0.000146  0.097016 -0.000019  0.325451 -0.000000  0.000000
  0N   3pz        0.000000  0.000000  0.000000 -0.000000  1.242784 -0.000000
  0N   3px       -0.994567  0.001494  1.861652  0.000109 -0.000000 -0.000314
  0N   3py        0.001495  0.994754 -0.000109  1.861709  0.000000  0.000000
  0N   1dz2       0.000001 -0.000000  0.000005  0.000000  0.000000  0.023243
  0N   1dxz       0.000000 -0.000000 -0.000000 -0.000000  0.000001 -0.000000
  0N   1dyz       0.000000 -0.000000  0.000000 -0.000000 -0.000000  0.000000
  0N   1dx2y2     0.007482 -0.000011 -0.034846 -0.000002  0.000000  0.000005
  0N   1dxy       0.000011  0.007487 -0.000002  0.034850  0.000000  0.000000
  0N   2dz2      -0.000008  0.000000 -0.000010  0.000000 -0.000000 -0.068034
  0N   2dxz       0.000000  0.000000  0.000000  0.000000 -0.000007  0.000000
  0N   2dyz      -0.000000 -0.000000 -0.000000  0.000000 -0.000000 -0.000000
  0N   2dx2y2     0.057183 -0.000086  0.200783  0.000012  0.000000 -0.000013
  0N   2dxy       0.000086  0.057141  0.000012 -0.200831  0.000000 -0.000000
  0N   1f0       -0.000000  0.000000  0.000000  0.000000  0.004651 -0.000000
  0N   1f+1      -0.002121  0.000003 -0.027014 -0.000002 -0.000000  0.000004
  0N   1f-1       0.000003  0.002119  0.000002 -0.027020  0.000000 -0.000000
  0N   1f+2       0.000000  0.000000  0.000000 -0.000000  0.000004  0.000000
  0N   1f-2       0.000000  0.000000 -0.000000 -0.000000 -0.000000  0.000000
  0N   1f+3      -0.000000 -0.000000 -0.000002  0.000000 -0.000000 -0.033048
  0N   1f-3       0.000000  0.000001 -0.000000 -0.000001  0.000000 -0.000000
  1H   1s         0.023985 -0.000036 -0.110954 -0.000007 -0.000000 -0.110734
  1H   2s        -0.013441  0.000020 -1.616939 -0.000095 -0.000000 -1.235936
  1H   3s         2.079576 -0.003125 -0.196086 -0.000012  0.000000  0.294628
  1H   1pz        0.000000 -0.000000  0.000000  0.000000 -0.002530  0.000000
  1H   1px        0.066167 -0.000099  0.142310  0.000008  0.000000  0.064701
  1H   1py        0.000013  0.008836 -0.000004  0.072789 -0.000000  0.000000
  2H   1s        -0.012023 -0.020759  0.055470 -0.096090 -0.000000 -0.110773
  2H   2s         0.006710  0.011486  0.808234 -1.400037 -0.000000 -1.236284
  2H   3s        -1.042522 -1.799459  0.097910 -0.169724 -0.000000  0.294570
  2H   1pz       -0.000000 -0.000000 -0.000000  0.000000 -0.002530  0.000000
  2H   1px        0.009970  0.032453  0.090158 -0.030105 -0.000000 -0.032373
  2H   1py       -0.032542 -0.047355 -0.030109  0.124934  0.000000  0.056050
  3H   1s        -0.011960  0.020795  0.055459  0.096097 -0.000000 -0.110773
  3H   2s         0.006676 -0.011506  0.808069  1.400132 -0.000000 -1.236284
  3H   3s        -1.037110  1.802583  0.097890  0.169735 -0.000000  0.294570
  3H   1pz       -0.000000  0.000000 -0.000000 -0.000000 -0.002530  0.000000
  3H   1px        0.009873 -0.032482  0.090154  0.030116 -0.000000 -0.032373
  3H   1py        0.032399 -0.047452  0.030094  0.124937 -0.000000 -0.056050
                     12        13        14        15        16        17   
                   0.45260   0.49200   0.49202   0.88671   0.88674   1.15538
                   0.00000   0.00000   0.00000   0.00000   0.00000   0.00000
                  --------  --------  --------  --------  --------  --------
  0N   1s         0.062932  0.000000 -0.000015  0.000000  0.000000 -0.000000
  0N   2s         0.126348  0.000000 -0.000031  0.000000  0.000000 -0.000000
  0N   3s         0.166142  0.000000 -0.000047  0.000000  0.000000  0.000000
  0N   4s        -3.023322 -0.000001  0.000769 -0.000000 -0.000000 -0.000000
  0N   5s         6.193937  0.000001 -0.001498  0.000000  0.000000 -0.000000
  0N   1pz       -0.000000  0.000000  0.000000  0.000004 -0.000000 -0.000000
  0N   1px        0.000097  0.000085  0.372045  0.000000  0.000000 -0.000001
  0N   1py        0.000000 -0.372043  0.000085  0.000000 -0.000000  0.022662
  0N   2pz       -0.000000  0.000000  0.000000  0.000002  0.000000 -0.000000
  0N   2px        0.000293  0.000249  1.090539  0.000000 -0.000000 -0.000030
  0N   2py        0.000000 -1.090495  0.000249 -0.000000 -0.000000  1.205466
  0N   3pz        0.000000 -0.000000 -0.000000 -0.000006 -0.000000  0.000000
  0N   3px       -0.000641 -0.000471 -2.065222  0.000000 -0.000000 -0.000036
  0N   3py       -0.000001  2.065114 -0.000471 -0.000000 -0.000000  1.438189
  0N   1dz2       0.012663  0.000000 -0.000002  0.000000 -0.000000  0.000000
  0N   1dxz      -0.000000  0.000000  0.000000  0.005546  0.000000 -0.000000
  0N   1dyz      -0.000000 -0.000000  0.000000  0.000000 -0.005534  0.000000
  0N   1dx2y2     0.000002 -0.000001 -0.005311 -0.000000  0.000000 -0.000000
  0N   1dxy       0.000000 -0.005309  0.000001 -0.000000 -0.000000 -0.000396
  0N   2dz2       0.021230 -0.000000 -0.000031  0.000000  0.000000  0.000000
  0N   2dxz       0.000000 -0.000000  0.000000 -0.815770 -0.000003 -0.000000
  0N   2dyz      -0.000000 -0.000000 -0.000000 -0.000003  0.815730  0.000000
  0N   2dx2y2     0.000029  0.000002  0.010006  0.000000 -0.000000 -0.000040
  0N   2dxy      -0.000000  0.009937 -0.000002  0.000000  0.000000 -1.575973
  0N   1f0        0.000000 -0.000000 -0.000000 -0.000003 -0.000000  0.000000
  0N   1f+1      -0.000004 -0.000003 -0.013677 -0.000000  0.000000  0.000002
  0N   1f-1      -0.000000  0.013669 -0.000003  0.000000  0.000000 -0.069207
  0N   1f+2      -0.000000  0.000000  0.000000  0.007885  0.000000 -0.000000
  0N   1f-2      -0.000000  0.000000  0.000000 -0.000000  0.007887 -0.000000
  0N   1f+3       0.014840  0.000000 -0.000008  0.000000  0.000000  0.000000
  0N   1f-3      -0.000000 -0.000002  0.000000 -0.000000 -0.000000 -0.000004
  1H   1s         0.047392 -0.000025 -0.110197  0.000000 -0.000000 -0.000004
  1H   2s         0.015605 -0.000184 -0.806234 -0.000000  0.000000  0.000068
  1H   3s        -1.468412  0.000546  2.398774 -0.000000 -0.000000 -0.000003
  1H   1pz        0.000000 -0.000000  0.000000 -0.215413 -0.000001 -0.000000
  1H   1px       -0.023544  0.000009  0.040122  0.000000 -0.000000 -0.000010
  1H   1py        0.000000 -0.020935  0.000005  0.000000  0.000000 -0.118796
  2H   1s         0.047397  0.095436  0.055057 -0.000000 -0.000000  0.126411
  2H   2s         0.015812  0.698289  0.402922  0.000000  0.000000 -2.347686
  2H   3s        -1.469283 -2.077315 -1.198374  0.000000  0.000000  0.095182
  2H   1pz       -0.000000 -0.000000 -0.000000  0.107704  0.186585  0.000000
  2H   1px        0.011787  0.008301  0.025720 -0.000000  0.000000 -0.218338
  2H   1py       -0.020414 -0.035300 -0.008283 -0.000000 -0.000000  0.259380
  3H   1s         0.047397 -0.095411  0.055100 -0.000000  0.000000 -0.126407
  3H   2s         0.015812 -0.698105  0.403240  0.000000 -0.000000  2.347618
  3H   3s        -1.469285  2.076767 -1.199321  0.000000 -0.000000 -0.095179
  3H   1pz        0.000000  0.000000 -0.000000  0.107706 -0.186584 -0.000000
  3H   1px        0.011787 -0.008290  0.025723 -0.000000 -0.000000  0.218337
  3H   1py        0.020414 -0.035296  0.008299  0.000000 -0.000000  0.259369
                     18        19        20        21        22        23   
                   1.15541   1.19788   1.45959   1.68086   1.72508   1.72510
                   0.00000   0.00000   0.00000   0.00000   0.00000   0.00000
                  --------  --------  --------  --------  --------  --------
  0N   1s        -0.000001  0.006032  0.000000  0.000000  0.000002  0.000000
  0N   2s        -0.000002  0.023845  0.000000  0.000000  0.000006  0.000000
  0N   3s         0.000030 -0.475381 -0.000000 -0.000000 -0.000079 -0.000000
  0N   4s        -0.000034  1.476072 -0.000000  0.000000  0.000264  0.000000
  0N   5s        -0.000456  1.974232  0.000000 -0.000000 -0.000169 -0.000000
  0N   1pz        0.000000  0.000000 -0.000000 -0.583228 -0.000000 -0.000000
  0N   1px        0.022646 -0.000001 -0.000000  0.000000 -0.650199  0.000029
  0N   1py        0.000001 -0.000000 -0.000014 -0.000000  0.000029  0.650205
  0N   2pz       -0.000000  0.000000  0.000000  0.361182  0.000000  0.000000
  0N   2px        1.205384  0.000144  0.000000 -0.000000  2.303999 -0.000103
  0N   2py        0.000030  0.000000  0.000045  0.000000 -0.000103 -2.303974
  0N   3pz       -0.000000  0.000000 -0.000000 -0.555810 -0.000000 -0.000000
  0N   3px        1.438298  0.000199  0.000000  0.000000 -0.864692  0.000039
  0N   3py        0.000036  0.000000 -0.000001 -0.000000  0.000039  0.864698
  0N   1dz2      -0.000006  0.006620  0.000000 -0.000000 -0.000002 -0.000000
  0N   1dxz      -0.000000 -0.000000 -0.000000 -0.000001 -0.000000  0.000000
  0N   1dyz       0.000000  0.000000 -0.000000 -0.000000  0.000000  0.000000
  0N   1dx2y2     0.000407  0.000006  0.000000 -0.000000  0.011066 -0.000000
  0N   1dxy      -0.000000 -0.000000 -0.000002 -0.000000  0.000000  0.011067
  0N   2dz2       0.000193 -1.459677 -0.000000 -0.000000 -0.000009 -0.000000
  0N   2dxz       0.000000 -0.000000  0.000000  0.000020  0.000000 -0.000000
  0N   2dyz       0.000000 -0.000000  0.000000  0.000000 -0.000000 -0.000000
  0N   2dx2y2     1.575902  0.000195  0.000000 -0.000000  0.911611 -0.000041
  0N   2dxy      -0.000040 -0.000000  0.000005 -0.000000  0.000041  0.911588
  0N   1f0       -0.000000 -0.000000  0.000000 -0.009330 -0.000000 -0.000000
  0N   1f+1      -0.069198 -0.000014 -0.000000  0.000000 -0.146589  0.000007
  0N   1f-1      -0.000002 -0.000000 -0.000002 -0.000000  0.000007  0.146587
  0N   1f+2       0.000000  0.000000 -0.000000 -0.000003  0.000000  0.000000
  0N   1f-2       0.000000  0.000000 -0.000000  0.000000 -0.000000  0.000000
  0N   1f+3       0.000006 -0.099758  0.000000 -0.000000 -0.000016 -0.000000
  0N   1f-3      -0.000000 -0.000000  0.032917  0.000000 -0.000000  0.000001
  1H   1s         0.145994  0.083030  0.000000  0.000000  0.514391 -0.000023
  1H   2s        -2.710581 -1.599472 -0.000000 -0.000000 -2.415234  0.000108
  1H   3s         0.109816 -0.008074  0.000000  0.000000  1.397021 -0.000063
  1H   1pz        0.000000 -0.000000  0.000000  0.573080 -0.000000  0.000000
  1H   1px        0.385378  0.217879  0.000000  0.000000  0.788226 -0.000035
  1H   1py       -0.000003 -0.000000  0.609702  0.000000 -0.000025 -0.558917
  2H   1s        -0.072994  0.082970  0.000010  0.000000 -0.257202 -0.445467
  2H   2s         1.355510 -1.598940 -0.000034 -0.000000  1.207614  2.091528
  2H   3s        -0.054834 -0.008056  0.000014  0.000000 -0.698496 -1.209788
  2H   1pz       -0.000000 -0.000000 -0.000000  0.573109  0.000000  0.000000
  2H   1px        0.007242 -0.108920 -0.528048 -0.000000  0.616236  0.099250
  2H   1py       -0.218337  0.188614 -0.304860  0.000000 -0.099279 -0.730862
  3H   1s        -0.073000  0.082970 -0.000010  0.000000 -0.257162  0.445490
  3H   2s         1.355628 -1.598940  0.000035 -0.000000  1.207427 -2.091636
  3H   3s        -0.054839 -0.008056 -0.000014  0.000000 -0.698387  1.209851
  3H   1pz       -0.000000 -0.000000  0.000000  0.573109  0.000000 -0.000000
  3H   1px        0.007253 -0.108920  0.528048 -0.000000  0.616227 -0.099306
  3H   1py        0.218350 -0.188614 -0.304860 -0.000000  0.099214 -0.730871
                     24        25        26        27        28        29   
                   1.82250   1.92493   1.92495   2.09055   2.21488   2.29215
                   0.00000   0.00000   0.00000   0.00000   0.00000   0.00000
                  --------  --------  --------  --------  --------  --------
  0N   1s        -0.079976  0.000000 -0.000000 -0.000000  0.106197  0.000006
  0N   2s        -0.252540  0.000000 -0.000000 -0.000000  0.363097  0.000022
  0N   3s         2.238818 -0.000000  0.000000  0.000000 -2.709386 -0.000159
  0N   4s        -5.447791  0.000000 -0.000000 -0.000000  3.925379  0.000192
  0N   5s         2.376826 -0.000000  0.000000  0.000000 -3.615780 -0.000240
  0N   1pz       -0.000000 -0.000056 -0.000000 -1.111229 -0.000000  0.000000
  0N   1px       -0.000028 -0.000000  0.000000 -0.000000 -0.000095  1.061383
  0N   1py        0.000000 -0.000000 -0.000000 -0.000000  0.000000 -0.000023
  0N   2pz       -0.000000  0.000079  0.000000  1.759143  0.000000 -0.000000
  0N   2px        0.000084  0.000000 -0.000000  0.000000  0.000155 -1.357794
  0N   2py       -0.000000  0.000000  0.000000 -0.000000 -0.000000  0.000029
  0N   3pz       -0.000000 -0.000036 -0.000000 -0.544564 -0.000000  0.000000
  0N   3px       -0.000001 -0.000000  0.000000 -0.000000 -0.000051  0.846611
  0N   3py        0.000000 -0.000000 -0.000000  0.000000  0.000000 -0.000018
  0N   1dz2       0.040619 -0.000000  0.000000 -0.000000  0.065158  0.000003
  0N   1dxz       0.000000  0.024837  0.000001 -0.000002  0.000000  0.000000
  0N   1dyz      -0.000000 -0.000001  0.024820 -0.000000 -0.000000  0.000000
  0N   1dx2y2     0.000007  0.000000 -0.000000  0.000000 -0.000006 -0.010476
  0N   1dxy       0.000000 -0.000000 -0.000000 -0.000000 -0.000000 -0.000000
  0N   2dz2       0.159249 -0.000000  0.000000  0.000000 -0.123632 -0.000005
  0N   2dxz      -0.000000 -1.006635 -0.000027  0.000036  0.000000 -0.000000
  0N   2dyz       0.000000  0.000027 -1.006641  0.000000  0.000000 -0.000000
  0N   2dx2y2     0.000005  0.000000 -0.000000  0.000000  0.000034  0.699970
  0N   2dxy       0.000000 -0.000000 -0.000000  0.000000 -0.000000  0.000015
  0N   1f0        0.000000 -0.000005 -0.000000  0.036698  0.000000 -0.000000
  0N   1f+1      -0.000009 -0.000000  0.000000 -0.000000  0.000010 -0.080891
  0N   1f-1       0.000000 -0.000000 -0.000000  0.000000 -0.000000  0.000002
  0N   1f+2       0.000000  0.048813  0.000001 -0.000008 -0.000000  0.000000
  0N   1f-2       0.000000  0.000001 -0.048818  0.000000  0.000000 -0.000000
  0N   1f+3       0.273656 -0.000000  0.000000 -0.000000  0.203649  0.000018
  0N   1f-3       0.000000 -0.000000 -0.000000 -0.000000  0.000000 -0.000000
  1H   1s        -0.523186  0.000000 -0.000000  0.000000 -0.467840  0.050734
  1H   2s         1.718341 -0.000000  0.000000 -0.000000  0.507379 -0.177588
  1H   3s        -0.794676  0.000000 -0.000000 -0.000000  0.501904 -0.556455
  1H   1pz        0.000000  1.025483  0.000028 -0.385206 -0.000000  0.000000
  1H   1px       -0.496391  0.000000 -0.000000  0.000000 -0.152005  0.356607
  1H   1py       -0.000000  0.000000  0.000000 -0.000000  0.000000 -0.000015
  2H   1s        -0.523252 -0.000000  0.000000  0.000000 -0.467771 -0.025431
  2H   2s         1.718501  0.000000 -0.000000 -0.000000  0.507429  0.088897
  2H   3s        -0.794731 -0.000000  0.000000 -0.000000  0.501814  0.278279
  2H   1pz        0.000000 -0.512775  0.888071 -0.385148 -0.000000 -0.000000
  2H   1px        0.248202  0.000000 -0.000000 -0.000000  0.075982  0.612247
  2H   1py       -0.429915 -0.000000  0.000000  0.000000 -0.131622  0.147548
  3H   1s        -0.523252 -0.000000 -0.000000  0.000000 -0.467771 -0.025429
  3H   2s         1.718500  0.000000  0.000000 -0.000000  0.507429  0.088891
  3H   3s        -0.794731 -0.000000 -0.000000 -0.000000  0.501814  0.278258
  3H   1pz        0.000000 -0.512727 -0.888099 -0.385148  0.000000 -0.000000
  3H   1px        0.248202  0.000000  0.000000 -0.000000  0.075982  0.612254
  3H   1py        0.429915  0.000000  0.000000 -0.000000  0.131622 -0.147568
                     30        31        32        33        34        35   
                   2.29218   2.52568   2.52570   2.85727   3.15845   3.15845
                   0.00000   0.00000   0.00000   0.00000   0.00000   0.00000
                  --------  --------  --------  --------  --------  --------
  0N   1s         0.000000 -0.000004 -0.000000 -0.033120 -0.000000  0.000004
  0N   2s         0.000000 -0.000012 -0.000000 -0.073841 -0.000000  0.000012
  0N   3s        -0.000000  0.000084  0.000000 -1.038565  0.000000 -0.000083
  0N   4s         0.000000 -0.000137 -0.000000  5.895931 -0.000000  0.000097
  0N   5s        -0.000000  0.000188  0.000000 -0.124527  0.000000 -0.000141
  0N   1pz        0.000000  0.000000 -0.000000  0.000000 -0.000000  0.000000
  0N   1px       -0.000023 -0.233957 -0.000006  0.000011 -0.000045  0.302773
  0N   1py       -1.061399  0.000006 -0.233791  0.000000  0.302786  0.000045
  0N   2pz       -0.000000 -0.000000  0.000000  0.000000  0.000000 -0.000000
  0N   2px        0.000029 -2.087031 -0.000050  0.000001  0.000422 -2.835089
  0N   2py        1.357370  0.000050 -2.087272  0.000000 -2.834949 -0.000422
  0N   3pz        0.000000  0.000000 -0.000000  0.000000 -0.000000  0.000000
  0N   3px       -0.000018 -0.466547 -0.000011  0.000018 -0.000035  0.234662
  0N   3py       -0.846608  0.000011 -0.466424  0.000000  0.234717  0.000035
  0N   1dz2       0.000000 -0.000003  0.000000  0.147165 -0.000000  0.000020
  0N   1dxz      -0.000000  0.000000  0.000000 -0.000000  0.000000  0.000000
  0N   1dyz      -0.000000 -0.000000  0.000000  0.000000  0.000000 -0.000000
  0N   1dx2y2     0.000000  0.059429  0.000001 -0.000003 -0.000023  0.153477
  0N   1dxy      -0.010485  0.000001 -0.059441 -0.000000 -0.153481 -0.000023
  0N   2dz2      -0.000000 -0.000016 -0.000000 -1.348297  0.000000  0.000016
  0N   2dxz       0.000000 -0.000000  0.000000 -0.000000  0.000000 -0.000000
  0N   2dyz       0.000000  0.000000 -0.000000  0.000000 -0.000000 -0.000000
  0N   2dx2y2    -0.000015 -0.146053 -0.000003  0.000036  0.000288 -1.932638
  0N   2dxy       0.700037 -0.000003  0.146010  0.000000  1.932566  0.000288
  0N   1f0       -0.000000 -0.000000 -0.000000 -0.000000 -0.000000 -0.000000
  0N   1f+1       0.000002  0.165232  0.000004 -0.000006  0.000058 -0.392437
  0N   1f-1       0.080929 -0.000004  0.165222 -0.000000 -0.392475 -0.000058
  0N   1f+2       0.000000 -0.000000  0.000000  0.000000  0.000000  0.000000
  0N   1f-2       0.000000  0.000000  0.000000  0.000000 -0.000000  0.000000
  0N   1f+3       0.000000 -0.000008 -0.000000 -0.138637 -0.000000  0.000010
  0N   1f-3       0.000004  0.000000  0.000003 -0.000000  0.000001  0.000000
  1H   1s        -0.000001 -0.286631 -0.000007 -0.256790 -0.000141  0.945064
  1H   2s         0.000004  2.323781  0.000055 -2.155318 -0.000280  1.883446
  1H   3s         0.000012 -0.257575 -0.000006  0.283103  0.000071 -0.477327
  1H   1pz        0.000000  0.000000 -0.000000  0.000000 -0.000000 -0.000000
  1H   1px       -0.000008 -1.365131 -0.000033  1.418524  0.000185 -1.243968
  1H   1py       -0.697358 -0.000017  0.728999 -0.000000 -0.464881 -0.000069
  2H   1s        -0.043978  0.143328 -0.248204 -0.256763  0.818482 -0.472402
  2H   2s         0.154194 -1.161977  2.012450 -2.155289  1.631110 -0.941442
  2H   3s         0.481833  0.128748 -0.223115  0.283120 -0.413432  0.238631
  2H   1pz       -0.000000 -0.000000  0.000000  0.000000 -0.000000  0.000000
  2H   1px       -0.147431  0.205359  0.906771 -0.709252  0.337433 -0.659593
  2H   1py       -0.441995  0.906775 -0.841560  1.228459 -1.049179  0.337186
  3H   1s         0.043979  0.143317  0.248210 -0.256763 -0.818342 -0.472645
  3H   2s        -0.154198 -1.161881 -2.012505 -2.155288 -1.630829 -0.941927
  3H   3s        -0.481845  0.128738  0.223121  0.283120  0.413361  0.238754
  3H   1pz        0.000000 -0.000000 -0.000000  0.000000  0.000000  0.000000
  3H   1px        0.147405  0.205402 -0.906761 -0.709252 -0.337237 -0.659693
  3H   1py       -0.441989 -0.906735 -0.841604 -1.228459 -1.049079 -0.337498
                     36        37        38        39        40        41   
                   4.12150   4.12152   4.23031   4.47368   4.47373   4.51893
                   0.00000   0.00000   0.00000   0.00000   0.00000   0.00000
                  --------  --------  --------  --------  --------  --------
  0N   1s         0.000000  0.000000 -0.000000 -0.000000 -0.000000 -0.000000
  0N   2s         0.000000  0.000000 -0.000000 -0.000000 -0.000000 -0.000000
  0N   3s        -0.000000 -0.000000  0.000000  0.000000  0.000000 -0.000000
  0N   4s         0.000000  0.000000 -0.000000  0.000000 -0.000000  0.000000
  0N   5s        -0.000000 -0.000000  0.000000  0.000000  0.000000  0.000000
  0N   1pz        0.000025  0.000000 -0.115286  0.000004 -0.000000 -0.000000
  0N   1px       -0.000000 -0.000000  0.000000 -0.000000 -0.000000 -0.000000
  0N   1py       -0.000000  0.000000  0.000000 -0.000000 -0.000000  0.000011
  0N   2pz       -0.000077 -0.000000  0.369113 -0.000014  0.000000  0.000000
  0N   2px       -0.000000 -0.000000 -0.000000 -0.000000  0.000000  0.000000
  0N   2py       -0.000000  0.000000 -0.000000  0.000000 -0.000000 -0.000031
  0N   3pz       -0.000001  0.000000  0.054850  0.000001  0.000000  0.000000
  0N   3px        0.000000 -0.000000  0.000000  0.000000  0.000000  0.000000
  0N   3py       -0.000000 -0.000000  0.000000 -0.000000  0.000000 -0.000011
  0N   1dz2       0.000000  0.000000  0.000000  0.000000 -0.000000  0.000000
  0N   1dxz      -0.534638 -0.000009 -0.000066  1.057521 -0.000003  0.000000
  0N   1dyz      -0.000009  0.534645 -0.000000  0.000003  1.057518  0.000000
  0N   1dx2y2     0.000000  0.000000 -0.000000 -0.000000 -0.000000 -0.000000
  0N   1dxy      -0.000000  0.000000 -0.000000 -0.000000  0.000000 -0.000057
  0N   2dz2      -0.000000 -0.000000  0.000000 -0.000000  0.000000 -0.000000
  0N   2dxz      -0.049682 -0.000001 -0.000018 -0.847658  0.000002 -0.000000
  0N   2dyz      -0.000001  0.049670  0.000000 -0.000002 -0.847678 -0.000000
  0N   2dx2y2    -0.000000 -0.000000 -0.000000  0.000000  0.000000  0.000000
  0N   2dxy       0.000000 -0.000000  0.000000  0.000000 -0.000000  0.000054
  0N   1f0        0.000182 -0.000000 -1.101010  0.000024 -0.000000 -0.000000
  0N   1f+1      -0.000000 -0.000000  0.000000 -0.000000 -0.000000 -0.000000
  0N   1f-1      -0.000000  0.000000  0.000000  0.000000 -0.000000  0.000014
  0N   1f+2      -0.946312 -0.000016 -0.000167 -0.559146  0.000001 -0.000000
  0N   1f-2       0.000016 -0.946309  0.000000  0.000001  0.559152  0.000000
  0N   1f+3       0.000000  0.000000  0.000000  0.000000 -0.000000  0.000000
  0N   1f-3      -0.000000  0.000000 -0.000000 -0.000000 -0.000000  1.214455
  1H   1s         0.000000 -0.000000  0.000000 -0.000000 -0.000000 -0.000000
  1H   2s        -0.000000 -0.000000 -0.000000 -0.000000  0.000000 -0.000000
  1H   3s        -0.000000  0.000000 -0.000000 -0.000000 -0.000000  0.000000
  1H   1pz        0.398941  0.000007 -0.341442  0.384143 -0.000001  0.000000
  1H   1px       -0.000000  0.000000  0.000000 -0.000000 -0.000000  0.000000
  1H   1py       -0.000000  0.000000 -0.000000 -0.000000  0.000000  0.396707
  2H   1s        -0.000000 -0.000000  0.000000  0.000000 -0.000000  0.000019
  2H   2s         0.000000  0.000000 -0.000000  0.000000 -0.000000  0.000021
  2H   3s         0.000000  0.000000 -0.000000  0.000000 -0.000000  0.000000
  2H   1pz       -0.199375 -0.345440 -0.341543 -0.192058  0.332683  0.000000
  2H   1px       -0.000000  0.000000 -0.000000 -0.000000  0.000000 -0.343565
  2H   1py       -0.000000  0.000000  0.000000  0.000000 -0.000000 -0.198359
  3H   1s        -0.000000  0.000000  0.000000  0.000000  0.000000 -0.000019
  3H   2s        -0.000000 -0.000000 -0.000000  0.000000  0.000000 -0.000021
  3H   3s         0.000000 -0.000000 -0.000000  0.000000  0.000000 -0.000000
  3H   1pz       -0.199386  0.345433 -0.341543 -0.192059 -0.332682 -0.000000
  3H   1px       -0.000000 -0.000000 -0.000000 -0.000000 -0.000000  0.343565
  3H   1py        0.000000  0.000000 -0.000000 -0.000000 -0.000000 -0.198359
                     42        43        44        45        46        47   
                   4.59500   4.70102   4.70104   5.14403   5.14408   5.81406
                   0.00000   0.00000   0.00000   0.00000   0.00000   0.00000
                  --------  --------  --------  --------  --------  --------
  0N   1s        -0.004695 -0.000000  0.000000  0.000000  0.000001 -0.004197
  0N   2s        -0.014325 -0.000000 -0.000001  0.000000  0.000001 -0.045094
  0N   3s        -0.049736  0.000000  0.000000 -0.000000  0.000022  1.785154
  0N   4s         0.771159  0.000000  0.000059 -0.000000 -0.000121 -5.818324
  0N   5s        -0.859972 -0.000000 -0.000133 -0.000000  0.000005  0.945668
  0N   1pz        0.000000 -0.000000  0.000000  0.000000  0.000000  0.000000
  0N   1px       -0.000010 -0.000002  0.151813  0.000009  0.405288 -0.000021
  0N   1py        0.000000 -0.151846 -0.000002 -0.405308  0.000009  0.000000
  0N   2pz        0.000000  0.000000 -0.000000 -0.000000 -0.000000 -0.000000
  0N   2px       -0.000027  0.000004 -0.367291 -0.000080 -3.711914  0.000143
  0N   2py       -0.000000  0.367522  0.000004  3.711959 -0.000080 -0.000000
  0N   3pz       -0.000000  0.000000  0.000000  0.000000  0.000000  0.000000
  0N   3px        0.000057  0.000005 -0.463129  0.000003  0.134377 -0.000011
  0N   3py       -0.000000  0.463069  0.000005 -0.134470  0.000003  0.000000
  0N   1dz2      -1.183704 -0.000000 -0.000142 -0.000000  0.000021  0.238599
  0N   1dxz      -0.000000  0.000000  0.000000  0.000000 -0.000000 -0.000000
  0N   1dyz      -0.000000 -0.000000  0.000000  0.000000  0.000000  0.000000
  0N   1dx2y2    -0.000150 -0.000013  1.210069 -0.000007 -0.327729 -0.000015
  0N   1dxy      -0.000000  1.210048  0.000013 -0.327801  0.000007 -0.000000
  0N   2dz2       0.660214  0.000000  0.000103  0.000000  0.000023  1.215643
  0N   2dxz       0.000000 -0.000000 -0.000000  0.000000 -0.000000  0.000000
  0N   2dyz       0.000000  0.000000 -0.000000  0.000000 -0.000000 -0.000000
  0N   2dx2y2     0.000114  0.000014 -1.310873 -0.000039 -1.788668  0.000081
  0N   2dxy       0.000000 -1.310981 -0.000014 -1.788637  0.000039  0.000000
  0N   1f0       -0.000000 -0.000000  0.000000 -0.000000  0.000000  0.000000
  0N   1f+1      -0.000037 -0.000004  0.343154  0.000024  1.088369 -0.000035
  0N   1f-1       0.000000 -0.343220 -0.000004 -1.088330  0.000024  0.000000
  0N   1f+2       0.000000 -0.000000 -0.000000  0.000000 -0.000000  0.000000
  0N   1f-2      -0.000000 -0.000000  0.000000 -0.000000 -0.000000  0.000000
  0N   1f+3       0.240460  0.000000  0.000055  0.000000  0.000042  1.497851
  0N   1f-3       0.000000  0.000057  0.000000 -0.000010  0.000000 -0.000000
  1H   1s         0.068739 -0.000004  0.358518  0.000029  1.333557  0.917061
  1H   2s        -0.022282 -0.000006  0.541997  0.000051  2.332969  1.289386
  1H   3s         0.142896 -0.000001  0.119888 -0.000012 -0.567476 -0.291033
  1H   1pz       -0.000000  0.000000  0.000000 -0.000000 -0.000000 -0.000000
  1H   1px        0.223827 -0.000001  0.066308 -0.000033 -1.520290 -0.989391
  1H   1py       -0.000000  0.245995  0.000003  0.085836 -0.000002 -0.000000
  2H   1s         0.068766 -0.310546 -0.179225 -1.154888 -0.666713  0.917127
  2H   2s        -0.022252 -0.469462 -0.270985 -2.020385 -1.166393  1.289517
  2H   3s         0.142929 -0.103756 -0.059914  0.491490  0.283720 -0.291072
  2H   1pz       -0.000000 -0.000000 -0.000000  0.000000  0.000000 -0.000000
  2H   1px       -0.111925  0.135158 -0.167906 -0.621157 -0.444425  0.494753
  2H   1py        0.193898  0.011833 -0.135192  1.161687  0.621078 -0.856895
  3H   1s         0.068766  0.310550 -0.179219  1.154859 -0.666763  0.917127
  3H   2s        -0.022252  0.469468 -0.270975  2.020335 -1.166481  1.289517
  3H   3s         0.142929  0.103757 -0.059912 -0.491477  0.283741 -0.291072
  3H   1pz       -0.000000  0.000000 -0.000000 -0.000000  0.000000 -0.000000
  3H   1px       -0.111925 -0.135154 -0.167909  0.621138 -0.444452  0.494753
  3H   1py       -0.193898  0.011830  0.135192  1.161661 -0.621129  0.856895
                     48   
                  31.18757
                   0.00000
                  --------
  0N   1s        -1.386931
  0N   2s         1.697262
  0N   3s        -1.524078
  0N   4s         1.555701
  0N   5s        -1.104367
  0N   1pz       -0.000000
  0N   1px        0.000000
  0N   1py       -0.000000
  0N   2pz        0.000000
  0N   2px       -0.000004
  0N   2py        0.000000
  0N   3pz       -0.000000
  0N   3px        0.000001
  0N   3py       -0.000000
  0N   1dz2       0.010895
  0N   1dxz      -0.000000
  0N   1dyz      -0.000000
  0N   1dx2y2    -0.000000
  0N   1dxy      -0.000000
  0N   2dz2      -0.011670
  0N   2dxz       0.000000
  0N   2dyz       0.000000
  0N   2dx2y2    -0.000002
  0N   2dxy      -0.000000
  0N   1f0       -0.000000
  0N   1f+1       0.000000
  0N   1f-1      -0.000000
  0N   1f+2      -0.000000
  0N   1f-2      -0.000000
  0N   1f+3      -0.016149
  0N   1f-3      -0.000000
  1H   1s        -0.023446
  1H   2s        -0.020028
  1H   3s         0.198579
  1H   1pz       -0.000000
  1H   1px       -0.034088
  1H   1py       -0.000000
  2H   1s        -0.023448
  2H   2s        -0.020031
  2H   3s         0.198579
  2H   1pz       -0.000000
  2H   1px        0.017042
  2H   1py       -0.029518
  3H   1s        -0.023448
  3H   2s        -0.020031
  3H   3s         0.198579
  3H   1pz       -0.000000
  3H   1px        0.017042
  3H   1py        0.029518



                    ********************************
                    * MULLIKEN POPULATION ANALYSIS *
                    ********************************

-----------------------
MULLIKEN ATOMIC CHARGES
-----------------------
   0 N :   -0.726529
   1 H :    0.242175
   2 H :    0.242177
   3 H :    0.242177
Sum of atomic charges:   -0.0000000

--------------------------------
MULLIKEN REDUCED ORBITAL CHARGES
--------------------------------
  0 N s       :     3.470008  s :     3.470008
      pz      :     1.953482  p :     4.248917
      px      :     1.147719
      py      :     1.147716
      dz2     :     0.004085  d :     0.005066
      dxz     :     0.000000
      dyz     :     0.000000
      dx2y2   :     0.000491
      dxy     :     0.000491
      f0      :     0.000346  f :     0.002537
      f+1     :     0.000697
      f-1     :     0.000697
      f+2     :     0.000000
      f-2     :     0.000000
      f+3     :     0.000796
      f-3     :     0.000000
  1 H s       :     0.719306  s :     0.719306
      pz      :     0.015392  p :     0.038518
      px      :     0.017817
      py      :     0.005310
  2 H s       :     0.719303  s :     0.719303
      pz      :     0.015390  p :     0.038520
      px      :     0.008438
      py      :     0.014692
  3 H s       :     0.719303  s :     0.719303
      pz      :     0.015390  p :     0.038520
      px      :     0.008438
      py      :     0.014692


                     *******************************
                     * LOEWDIN POPULATION ANALYSIS *
                     *******************************

----------------------
LOEWDIN ATOMIC CHARGES
----------------------
   0 N :   -0.396006
   1 H :    0.132000
   2 H :    0.132003
   3 H :    0.132003

-------------------------------
LOEWDIN REDUCED ORBITAL CHARGES
-------------------------------
  0 N s       :     3.079790  s :     3.079790
      pz      :     1.871939  p :     4.265958
      px      :     1.197009
      py      :     1.197010
      dz2     :     0.003001  d :     0.045851
      dxz     :     0.000000
      dyz     :     0.000000
      dx2y2   :     0.021424
      dxy     :     0.021425
      f0      :     0.000001  f :     0.004407
      f+1     :     0.001642
      f-1     :     0.001642
      f+2     :     0.000000
      f-2     :     0.000000
      f+3     :     0.001122
      f-3     :     0.000000
  1 H s       :     0.750384  s :     0.750384
      pz      :     0.042687  p :     0.117616
      px      :     0.058004
      py      :     0.016925
  2 H s       :     0.750384  s :     0.750384
      pz      :     0.042686  p :     0.117614
      px      :     0.027194
      py      :     0.047733
  3 H s       :     0.750384  s :     0.750384
      pz      :     0.042686  p :     0.117614
      px      :     0.027194
      py      :     0.047733


                      *****************************
                      * MAYER POPULATION ANALYSIS *
                      *****************************

  NA   - Mulliken gross atomic population
  ZA   - Total nuclear charge
  QA   - Mulliken gross atomic charge
  VA   - Mayer's total valence
  BVA  - Mayer's bonded valence
  FA   - Mayer's free valence

  ATOM       NA         ZA         QA         VA         BVA        FA
  0 N      7.7265     7.0000    -0.7265     2.8200     2.8200    -0.0000
  1 H      0.7578     1.0000     0.2422     0.9519     0.9519    -0.0000
  2 H      0.7578     1.0000     0.2422     0.9519     0.9519     0.0000
  3 H      0.7578     1.0000     0.2422     0.9519     0.9519    -0.0000

  Mayer bond orders larger than 0.100000
B(  0-N ,  1-H ) :   0.9400 B(  0-N ,  2-H ) :   0.9400 B(  0-N ,  3-H ) :   0.9400 


Now starting NBO....

 *********************************** NBO 7.0 ***********************************
             N A T U R A L   A T O M I C   O R B I T A L   A N D
          N A T U R A L   B O N D   O R B I T A L   A N A L Y S I S
 *********************** Giovanni  F. Caramori (I101916) ***********************
  (c) Copyright 1996-2020 Board of Regents of the University of Wisconsin System
      on behalf of the Theoretical Chemistry Institute.  All rights reserved.

          Cite this program [NBO 7.0.8 (11-Feb-2020)] as:

          NBO 7.0.  E. D. Glendening, J. K. Badenhoop, A. E. Reed,
          J. E. Carpenter, J. A. Bohmann, C. M. Morales, P. Karafiloglou,
          C. R. Landis, and F. Weinhold, Theoretical Chemistry Institute,
          University of Wisconsin, Madison, WI (2018)

       /NPA    / : Natural Population Analysis
       /NBO    / : Natural Bond Orbital Analysis
       /AONBO  / : Checkpoint the AO to NBO transformation
       /ARCHIVE/ : Write the archive file to lfn47

 Job title: ORCA Job: NH3‡


 NATURAL POPULATIONS:  Natural atomic orbital occupancies

  NAO Atom No lang   Type(AO)    Occupancy      Energy
 -------------------------------------------------------
   1    N  1  s      Cor( 1s)     1.99999     -16.65444
   2    N  1  s      Val( 2s)     1.38636      -1.20775
   3    N  1  s      Ryd( 4s)     0.00000       4.58657
   4    N  1  s      Ryd( 3s)     0.00000       0.68109
   5    N  1  s      Ryd( 5s)     0.00000      25.42791
   6    N  1  px     Val( 2p)     1.36697      -0.85344
   7    N  1  px     Ryd( 3p)     0.00206       0.23727
   8    N  1  px     Ryd( 4p)     0.00000       2.03127
   9    N  1  py     Val( 2p)     1.36697      -0.85344
  10    N  1  py     Ryd( 3p)     0.00206       0.23728
  11    N  1  py     Ryd( 4p)     0.00000       2.03132
  12    N  1  pz     Val( 2p)     1.99214      -0.80074
  13    N  1  pz     Ryd( 3p)     0.00564      -0.02914
  14    N  1  pz     Ryd( 4p)     0.00000       1.34017
  15    N  1  dxy    Ryd( 3d)     0.00219       1.26105
  16    N  1  dxy    Ryd( 4d)     0.00000       3.92794
  17    N  1  dxz    Ryd( 3d)     0.00000       0.64847
  18    N  1  dxz    Ryd( 4d)     0.00000       3.57971
  19    N  1  dyz    Ryd( 3d)     0.00000       0.64850
  20    N  1  dyz    Ryd( 4d)     0.00000       3.57978
  21    N  1  dx2y2  Ryd( 3d)     0.00219       1.26107
  22    N  1  dx2y2  Ryd( 4d)     0.00000       3.92795
  23    N  1  dz2    Ryd( 3d)     0.00256       0.97478
  24    N  1  dz2    Ryd( 4d)     0.00000       3.75674
  25    N  1  f(0)   Ryd( 4f)     0.00052       3.46128
  26    N  1  f(c1)  Ryd( 4f)     0.00036       3.70513
  27    N  1  f(s1)  Ryd( 4f)     0.00036       3.70504
  28    N  1  f(c2)  Ryd( 4f)     0.00000       3.40676
  29    N  1  f(s2)  Ryd( 4f)     0.00000       3.40679
  30    N  1  f(c3)  Ryd( 4f)     0.00052       4.25540
  31    N  1  f(s3)  Ryd( 4f)     0.00000       3.66266

  32    H  2  s      Val( 1s)     0.62202      -0.39582
  33    H  2  s      Ryd( 3s)     0.00023       1.48445
  34    H  2  s      Ryd( 2s)     0.00000       0.33911
  35    H  2  px     Ryd( 2p)     0.00019       2.35036
  36    H  2  py     Ryd( 2p)     0.00003       1.64776
  37    H  2  pz     Ryd( 2p)     0.00056       1.54718

  38    H  3  s      Val( 1s)     0.62202      -0.39582
  39    H  3  s      Ryd( 3s)     0.00023       1.48443
  40    H  3  s      Ryd( 2s)     0.00000       0.33914
  41    H  3  px     Ryd( 2p)     0.00007       1.82338
  42    H  3  py     Ryd( 2p)     0.00015       2.17469
  43    H  3  pz     Ryd( 2p)     0.00056       1.54718

  44    H  4  s      Val( 1s)     0.62202      -0.39582
  45    H  4  s      Ryd( 3s)     0.00023       1.48443
  46    H  4  s      Ryd( 2s)     0.00000       0.33914
  47    H  4  px     Ryd( 2p)     0.00007       1.82338
  48    H  4  py     Ryd( 2p)     0.00015       2.17469
  49    H  4  pz     Ryd( 2p)     0.00056       1.54718


 Summary of Natural Population Analysis:

                                     Natural Population
             Natural    ---------------------------------------------
  Atom No    Charge        Core      Valence    Rydberg      Total
 --------------------------------------------------------------------
    N  1   -1.13089      1.99999     6.11244    0.01846     8.13089
    H  2    0.37696      0.00000     0.62202    0.00102     0.62304
    H  3    0.37696      0.00000     0.62202    0.00102     0.62304
    H  4    0.37696      0.00000     0.62202    0.00102     0.62304
 ====================================================================
 * Total *  0.00000      1.99999     7.97849    0.02151    10.00000

                                 Natural Population
 ---------------------------------------------------------
   Core                       1.99999 ( 99.9997% of    2)
   Valence                    7.97849 ( 99.7312% of    8)
   Natural Minimal Basis      9.97849 ( 99.7849% of   10)
   Natural Rydberg Basis      0.02151 (  0.2151% of   10)
 ---------------------------------------------------------

    Atom No         Natural Electron Configuration
 ----------------------------------------------------------------------------
      N  1      [core]2s( 1.39)2p( 4.73)3p( 0.01)3d( 0.01)
      H  2            1s( 0.62)
      H  3            1s( 0.62)
      H  4            1s( 0.62)


 NATURAL BOND ORBITAL ANALYSIS:

                            Occupancies       Lewis Structure    Low   High
         Max    Occ     -------------------  -----------------   occ   occ
  Cycle  Ctr   Thresh    Lewis   non-Lewis     CR  BD  nC  LP    (L)   (NL)
 ============================================================================
    1     2     1.90     9.99735   0.00265      1   3   0   1     0      0
 ----------------------------------------------------------------------------

 Structure accepted: No low occupancy Lewis orbitals

 -------------------------------------------------------
   Core                      1.99999 (100.000% of   2)
   Valence Lewis             7.99735 ( 99.967% of   8)
  ==================      =============================
   Total Lewis               9.99735 ( 99.973% of  10)
  -----------------------------------------------------
   Valence non-Lewis         0.00013 (  0.001% of  10)
   Rydberg non-Lewis         0.00252 (  0.025% of  10)
  ==================      =============================
   Total non-Lewis           0.00265 (  0.027% of  10)
 -------------------------------------------------------


     (Occupancy)   Bond orbital / Coefficients / Hybrids
 ------------------ Lewis ------------------------------------------------------
   1. (1.99999) CR ( 1) N  1            s(100.00%)
                                         1.0000  0.0000  0.0000  0.0000  0.0000
                                         0.0000  0.0000  0.0000  0.0000  0.0000
                                         0.0000  0.0000  0.0000  0.0000  0.0000
                                         0.0000  0.0000  0.0000  0.0000  0.0000
                                         0.0000  0.0000  0.0000  0.0000  0.0000
                                         0.0000  0.0000  0.0000  0.0000  0.0000
                                         0.0000
   2. (1.99831) LP ( 1) N  1            s(  0.00%)p 1.00( 99.97%)d 0.00(  0.00%)
                                                  f 0.00(  0.03%)
                                         0.0000  0.0000  0.0000  0.0000  0.0000
                                         0.0000  0.0000  0.0000  0.0000  0.0000
                                         0.0000  0.9985  0.0531  0.0000  0.0000
                                         0.0000  0.0000  0.0000  0.0000  0.0000
                                         0.0000  0.0000  0.0000  0.0000 -0.0162
                                         0.0000  0.0000  0.0000  0.0000  0.0000
                                         0.0000
   3. (1.99968) BD ( 1) N  1- H  2
               ( 68.89%)   0.8300* N  1 s( 33.26%)p 2.00( 66.54%)d 0.01(  0.17%)
                                                  f 0.00(  0.03%)
                                         0.0000  0.5767  0.0000  0.0000  0.0000
                                         0.8151 -0.0316  0.0000  0.0000  0.0000
                                         0.0000  0.0000  0.0000  0.0000  0.0000
                                         0.0000  0.0000  0.0000  0.0000  0.0000
                                         0.0326  0.0004 -0.0248  0.0006  0.0000
                                        -0.0131  0.0000  0.0000  0.0000 -0.0112
                                         0.0000
               ( 31.11%)   0.5578* H  2 s( 99.97%)p 0.00(  0.03%)
                                         0.9999  0.0003  0.0000 -0.0169  0.0000
                                         0.0000
   4. (1.99968) BD ( 1) N  1- H  3
               ( 68.89%)   0.8300* N  1 s( 33.26%)p 2.00( 66.54%)d 0.01(  0.17%)
                                                  f 0.00(  0.03%)
                                         0.0000  0.5767  0.0000  0.0000  0.0000
                                        -0.4076  0.0158  0.0000  0.7059 -0.0274
                                         0.0000  0.0000  0.0000  0.0000 -0.0283
                                        -0.0004  0.0000  0.0000  0.0000  0.0000
                                        -0.0163 -0.0002 -0.0248  0.0006  0.0000
                                         0.0066 -0.0114  0.0000  0.0000 -0.0112
[...]
                       ORCA ELECTRIC PROPERTIES CALCULATION
------------------------------------------------------------------------------

Dipole Moment Calculation                       ... on
Quadrupole Moment Calculation                   ... off
Polarizability Calculation                      ... off
GBWName                                         ... NH3‡.gbw
Electron density file                           ... NH3‡.scfp
The origin for moment calculation is the CENTER OF MASS  = ( 0.000001, -0.000000  0.000000)

-------------
DIPOLE MOMENT
-------------
                                X             Y             Z
Electronic contribution:      0.00000      -0.00000      -0.00000
Nuclear contribution   :     -0.00000       0.00000      -0.00000
                        -----------------------------------------
Total Dipole Moment    :      0.00000      -0.00000      -0.00000
                        -----------------------------------------
Magnitude (a.u.)       :      0.00000
Magnitude (Debye)      :      0.00000



--------------------
Rotational spectrum 
--------------------
 
Rotational constants in cm-1:    11.037472    11.037464     5.518734 
Rotational constants in MHz : 330895.083975 330894.851171 165447.483786 

 Dipole components along the rotational axes: 
x,y,z [a.u.] :    -0.000000    -0.000002    -0.000000 
x,y,z [Debye]:    -0.000000    -0.000004    -0.000000 

 


           ************************************************************
           *        Program running with 12 parallel MPI-processes    *
           *              working on a common directory               *
           ************************************************************

-------------------------------------------------------------------------------
                               ORCA SCF HESSIAN
-------------------------------------------------------------------------------

Hessian of the Kohn-Sham DFT energy:
Kohn-Sham wavefunction type                      ... RKS
Hartree-Fock exchange scaling                    ...    0.000
Number of operators                              ...    1
Number of atoms                                  ...    4
Basis set dimensions                             ...   49
Integral neglect threshold                       ... 2.5e-11
Integral primitive cutoff                        ... 2.5e-12

Setting up DFT Hessian calculations              ... 
Electron density on the grid                     ... found on disk
Electron density on the final grid               ... found on disk
Building xc-kernel on the grid                   ... done   (      0.0 sec)
Building xc-kernel on the final grid             ... done   (      0.0 sec)
                                                     done   (      0.1 sec)

Nuclear repulsion Hessian                        ... done   (      0.0 sec)

----------------------------------------------
Forming right-hand sides of CP-SCF equations     ...
----------------------------------------------
One electron integral derivatives                ... done   (      0.2 sec)
Transforming the overlap derivative matrices     ... done   (      0.0 sec)
Making the Q(x) pseudodensities                  ... done   (      0.0 sec)
Adding the E*S(x)*S(y) terms to the Hessian      ... done   (      0.0 sec)
Calculating energy weighted overlap derivatives  ... done   (      0.0 sec)
Two electron integral derivatives (RI)           ... done   (      0.4 sec)
Exchange-correlation integral derivatives        ... done   (      0.7 sec)
tr(F(y)Q(x)) contribution to the Hessian         ... done   (      0.0 sec)
Response fock operator R(S(x)) (RI)              ... done   (      0.2 sec)
XC Response fock operator R(S(x))                ... done   (      0.1 sec)
tr(F(y)S(x)) contribution to the Hessian         ... done   (      0.0 sec)
Transforming and finalizing RHSs                 ... done   (      0.0 sec)

----------------------------------------------
Solving the CP-SCF equations (RI)                ...
----------------------------------------------
     CP-SCF ITERATION   0: 
     CP-SCF ITERATION   1:      0.000044307415
     CP-SCF ITERATION   2:      0.000000175887
     CP-SCF ITERATION   3:      0.000000003400

                                                 ... done   (      1.3 sec)
Forming perturbed density Hessian contributions  ... done   (      0.0 sec)
Making the perturbed densities                   ... done   (      0.0 sec)
2nd integral derivative contribs (RI)            ... done   (      0.6 sec)
Exchange-correlation Hessian                     ... done   (      0.6 sec)
Dispersion correction in the Hessian             ... 

------------------- 
Dispersion Gradient 
------------------- 
   1  :    0.000000014    0.000000000   -0.000000000
   2  :   -0.000056746   -0.000000000    0.000000000
   3  :    0.000028382   -0.000048804    0.000000000
   4  :    0.000028382    0.000048804    0.000000000

  |G| =    0.000211131



------------------- 
Dispersion Gradient 
------------------- 
   1  :   -0.000000012    0.000000000   -0.000000000
   2  :   -0.000056360   -0.000000000    0.000000000
   3  :    0.000028170   -0.000049149    0.000000000
   4  :    0.000028170    0.000049149    0.000000000

  |G| =    0.000211011

done   (      0.1 sec)
gCP correction in the Hessian                    ... done   (      0.0 sec)
Dipol derivatives                                ... done   (      0.3 sec)

Total SCF Hessian time: 0 days 0 hours 0 min 5 sec 

Writing the Hessian file to the disk             ... done


Maximum memory used throughout the entire calculation: 181.4 MB

-----------------------
VIBRATIONAL FREQUENCIES
-----------------------

Scaling factor for frequencies =  1.000000000  (already applied!)

   0:         0.00 cm**-1
   1:         0.00 cm**-1
   2:         0.00 cm**-1
   3:         0.00 cm**-1
   4:         0.00 cm**-1
   5:         0.00 cm**-1
   6:      -789.16 cm**-1 ***imaginary mode***
   7:      1529.40 cm**-1
   8:      1529.40 cm**-1
   9:      3537.45 cm**-1
  10:      3733.14 cm**-1
  11:      3733.16 cm**-1


------------
NORMAL MODES
------------

These modes are the Cartesian displacements weighted by the diagonal matrix
M(i,i)=1/sqrt(m[i]) where m[i] is the mass of the displaced atom
Thus, these vectors are normalized but *not* orthogonal

                  0          1          2          3          4          5    
      0       0.000000   0.000000   0.000000   0.000000   0.000000   0.000000
      1       0.000000   0.000000   0.000000   0.000000   0.000000   0.000000
      2       0.000000   0.000000   0.000000   0.000000   0.000000   0.000000
      3       0.000000   0.000000   0.000000   0.000000   0.000000   0.000000
      4       0.000000   0.000000   0.000000   0.000000   0.000000   0.000000
      5       0.000000   0.000000   0.000000   0.000000   0.000000   0.000000
      6       0.000000   0.000000   0.000000   0.000000   0.000000   0.000000
      7       0.000000   0.000000   0.000000   0.000000   0.000000   0.000000
      8       0.000000   0.000000   0.000000   0.000000   0.000000   0.000000
      9       0.000000   0.000000   0.000000   0.000000   0.000000   0.000000
     10       0.000000   0.000000   0.000000   0.000000   0.000000   0.000000
     11       0.000000   0.000000   0.000000   0.000000   0.000000   0.000000
                  6          7          8          9         10         11    
      0      -0.000000   0.000008   0.080898   0.000003  -0.000003   0.085935
      1      -0.000000  -0.080898   0.000008   0.000000   0.085934   0.000003
      2       0.123688  -0.000000   0.000000   0.000000   0.000000  -0.000000
      3      -0.000000   0.000006   0.062012   0.577336   0.000028  -0.813306
      4       0.000000   0.811454  -0.000081   0.000000   0.017206   0.000001
      5      -0.572918   0.000000   0.000000  -0.000000  -0.000000   0.000000
      6       0.000000   0.378165  -0.593119  -0.288686   0.359625  -0.190401
      7      -0.000000   0.156311  -0.378248   0.500002  -0.605681   0.359586
      8      -0.572916  -0.000000  -0.000000  -0.000000   0.000000  -0.000000
      9       0.000000  -0.378283  -0.593043  -0.288686  -0.359611  -0.190426
     10       0.000000   0.156386   0.378217  -0.500002  -0.605656  -0.359628
     11      -0.572916   0.000000  -0.000000  -0.000000  -0.000000  -0.000000


-----------
IR SPECTRUM
-----------

 Mode    freq (cm**-1)   T**2         TX         TY         TZ
-------------------------------------------------------------------
   7:      1529.40   40.010219  ( -0.000629   6.325363   0.000000)
   8:      1529.40   40.025212  ( -6.326548  -0.000629  -0.000000)
   9:      3537.45    0.000003  ( -0.001647  -0.000000  -0.000000)
  10:      3733.14   39.085417  (  0.000219  -6.251833   0.000000)
  11:      3733.16   39.095051  ( -6.252604  -0.000219   0.000000)

The first frequency considered to be a vibration is 7
The total number of vibrations considered is 5


--------------------------
THERMOCHEMISTRY AT 298.15K
--------------------------

Temperature         ... 298.15 K
Pressure            ... 1.00 atm
Total Mass          ... 17.03 AMU

Throughout the following assumptions are being made:
  (1) The electronic state is orbitally nondegenerate
  (2) There are no thermally accessible electronically excited states
  (3) Hindered rotations indicated by low frequency modes are not
      treated as such but are treated as vibrations and this may
      cause some error
  (4) All equations used are the standard statistical mechanics
      equations for an ideal gas
  (5) All vibrations are strictly harmonic

freq.    1529.40  E(vib)   ...       0.00 
freq.    1529.40  E(vib)   ...       0.00 
freq.    3537.45  E(vib)   ...       0.00 
freq.    3733.14  E(vib)   ...       0.00 
freq.    3733.16  E(vib)   ...       0.00 

------------
INNER ENERGY
------------

The inner energy is: U= E(el) + E(ZPE) + E(vib) + E(rot) + E(trans)
    E(el)   - is the total energy from the electronic structure calculation
              = E(kin-el) + E(nuc-el) + E(el-el) + E(nuc-nuc)
    E(ZPE)  - the the zero temperature vibrational energy from the frequency calculation
    E(vib)  - the the finite temperature correction to E(ZPE) due to population
              of excited vibrational states
    E(rot)  - is the rotational thermal energy
    E(trans)- is the translational thermal energy

Summary of contributions to the inner energy U:
Electronic energy                ...    -56.57515961 Eh
Zero point energy                ...      0.03203684 Eh      20.10 kcal/mol
Thermal vibrational correction   ...      0.00000870 Eh       0.01 kcal/mol
Thermal rotational correction    ...      0.00141627 Eh       0.89 kcal/mol
Thermal translational correction ...      0.00141627 Eh       0.89 kcal/mol
-----------------------------------------------------------------------
Total thermal energy                    -56.54028153 Eh


Summary of corrections to the electronic energy:
(perhaps to be used in another calculation)
Total thermal correction                  0.00284124 Eh       1.78 kcal/mol
Non-thermal (ZPE) correction              0.03203684 Eh      20.10 kcal/mol
-----------------------------------------------------------------------
Total correction                          0.03487808 Eh      21.89 kcal/mol


--------
ENTHALPY
--------

The enthalpy is H = U + kB*T
                kB is Boltzmann's constant
Total free energy                 ...    -56.54028153 Eh 
Thermal Enthalpy correction       ...      0.00094421 Eh       0.59 kcal/mol
-----------------------------------------------------------------------
Total Enthalpy                    ...    -56.53933732 Eh


Note: Rotational entropy computed according to Herzberg 
Infrared and Raman Spectra, Chapter V,1, Van Nostrand Reinhold, 1945 
Point Group:  C2v, Symmetry Number:   2  
Rotational constants in cm-1:    11.037472    11.037464     5.518734 

Vibrational entropy computed according to the QRRHO of S. Grimme
Chem.Eur.J. 2012 18 9955


-------
ENTROPY
-------

The entropy contributions are T*S = T*(S(el)+S(vib)+S(rot)+S(trans))
     S(el)   - electronic entropy
     S(vib)  - vibrational entropy
     S(rot)  - rotational entropy
     S(trans)- translational entropy
The entropies will be listed as mutliplied by the temperature to get
units of energy

Electronic entropy                ...      0.00000000 Eh      0.00 kcal/mol
Vibrational entropy               ...      0.00000988 Eh      0.01 kcal/mol
Rotational entropy                ...      0.00578270 Eh      3.63 kcal/mol
Translational entropy             ...      0.01636425 Eh     10.27 kcal/mol
-----------------------------------------------------------------------
Final entropy term                ...      0.02215682 Eh     13.90 kcal/mol

In case the symmetry of your molecule has not been determined correctly
or in case you have a reason to use a different symmetry number we print 
out the resulting rotational entropy values for sn=1,12 :
 --------------------------------------------------------
|  sn= 1 | S(rot)=       0.00643715 Eh      4.04 kcal/mol|
|  sn= 2 | S(rot)=       0.00578270 Eh      3.63 kcal/mol|
|  sn= 3 | S(rot)=       0.00539986 Eh      3.39 kcal/mol|
|  sn= 4 | S(rot)=       0.00512824 Eh      3.22 kcal/mol|
|  sn= 5 | S(rot)=       0.00491755 Eh      3.09 kcal/mol|
|  sn= 6 | S(rot)=       0.00474541 Eh      2.98 kcal/mol|
|  sn= 7 | S(rot)=       0.00459986 Eh      2.89 kcal/mol|
|  sn= 8 | S(rot)=       0.00447378 Eh      2.81 kcal/mol|
|  sn= 9 | S(rot)=       0.00436257 Eh      2.74 kcal/mol|
|  sn=10 | S(rot)=       0.00426309 Eh      2.68 kcal/mol|
|  sn=11 | S(rot)=       0.00417310 Eh      2.62 kcal/mol|
|  sn=12 | S(rot)=       0.00409095 Eh      2.57 kcal/mol|
 --------------------------------------------------------


-------------------
GIBBS FREE ENERGY
-------------------

The Gibbs free energy is G = H - T*S

Total enthalpy                    ...    -56.53933732 Eh 
Total entropy correction          ...     -0.02215682 Eh    -13.90 kcal/mol
-----------------------------------------------------------------------
Final Gibbs free energy         ...    -56.56149415 Eh

For completeness - the Gibbs free energy minus the electronic energy
G-E(el)                           ...      0.01366547 Eh      8.58 kcal/mol




------------------------------------------------------------------------------- 
                    Intrinsic Reaction Coordinate Calculation                  
------------------------------------------------------------------------------- 

System:
Nr. of atoms                        .... 4
Algorithm: SD (steepest descent step) plus correction
Settings:
Max. no of cycles        MaxIter    .... 1000
Direction                           .... Forward and backward
Initial displacement Hessian type   .... Read
Hessian Filename                    .... NH3‡.hess
Following Hessian mode              .... 0
Initial displacement type           .... Energy
  Initial displacement energy change.... 0.250 mEh
Coordinate system following type    .... Cartesian
Length of steepest descent step     .... 0.150 bohr
Do parabolic fit 
  if SD step is uphill              .... YES
Do Correction to SD step            .... YES
Scaling for length of correction
  compared to SD step               .... 0.333
Do parabolic fit to SD correction   .... YES
Only interpolate for parabolic fit  .... YES
Do update to length of
  SD step and correction            .... YES
Convergence Tolerances:
  Max. Gradient            TolMAXG  ....  1.0000e-03 Eh/bohr
  RMS Gradient             TolRMSG  ....  2.0000e-04 Eh/bohr
Storing full IRC trajectory in      .... NH3‡_IRC_Full_trj.xyz
Storing forward trajectory in       .... NH3‡_IRC_F_trj.xyz
Storing backward trajectory in      .... NH3‡_IRC_B_trj.xyz


 ...good, the file NH3‡.hess exists
Reading the hessian file           ...... done
Determining length of initial displacement:
  Requested energy change (quadratic behavior): 0.250 mEh
  Resulting scaling factor for initial displacement along normalized TS mode: 0.1326

         *************************************************************
         *                          FORWARD IRC                      *
         *************************************************************

Iteration    E(Eh)      dE(kcal/mol)  max(|G|)   RMS(G) 
Convergence thresholds                0.001000  0.000200            
    0       -56.575405   -0.153992    0.005218  0.001794
    1       -56.577584   -1.521570    0.010790  0.006483
    2       -56.579858   -2.948392    0.013987  0.004972
    3       -56.582021   -4.305392    0.006559  0.003455
    4       -56.582501   -4.606552    0.006526  0.003090
    5       -56.582588   -4.661670    0.004110  0.001972
    6       -56.582727   -4.748731    0.002184  0.000911
    7       -56.582778   -4.780790    0.000111  0.000053

                      ***********************HURRAY********************
                      ***            THE IRC HAS CONVERGED          ***
                      *************************************************


         *************************************************************
         *                          BACKWARD IRC                     *
         *************************************************************

Iteration    E(Eh)      dE(kcal/mol)  max(|G|)   RMS(G) 
Convergence thresholds                0.001000  0.000200            
    0       -56.575405   -0.153992    0.005218  0.001794
    1       -56.577584   -1.521570    0.010790  0.006483
    2       -56.579858   -2.948393    0.013987  0.004972
    3       -56.582021   -4.305406    0.006556  0.003455
    4       -56.582501   -4.606887    0.006524  0.003088
    5       -56.582589   -4.661906    0.004106  0.001970
    6       -56.582727   -4.748846    0.002180  0.000909
    7       -56.582778   -4.780785    0.000115  0.000055

                      ***********************HURRAY********************
                      ***            THE IRC HAS CONVERGED          ***
                      *************************************************


---------------------------------------------------------------
                       IRC PATH SUMMARY              
---------------------------------------------------------------
All gradients are in Eh/Bohr.

Step        E(Eh)      dE(kcal/mol)  max(|G|)   RMS(G) 
   1       -56.582778   -4.780785    0.000115  0.000055
   2       -56.582727   -4.748846    0.002180  0.000909
   3       -56.582589   -4.661906    0.004106  0.001970
   4       -56.582501   -4.606887    0.006524  0.003088
   5       -56.582021   -4.305406    0.006556  0.003455
   6       -56.579858   -2.948393    0.013987  0.004972
   7       -56.577584   -1.521570    0.010790  0.006483
   8       -56.575405   -0.153992    0.005218  0.001794
   9       -56.575160    0.000000    0.000100  0.000050 <= TS
  10       -56.575405   -0.153992    0.005218  0.001794
  11       -56.577584   -1.521570    0.010790  0.006483
  12       -56.579858   -2.948392    0.013987  0.004972
  13       -56.582021   -4.305392    0.006559  0.003455
  14       -56.582501   -4.606552    0.006526  0.003090
  15       -56.582588   -4.661670    0.004110  0.001972
  16       -56.582727   -4.748731    0.002184  0.000911
  17       -56.582778   -4.780790    0.000111  0.000053

Timings for individual modules:

Sum of individual times         ...      273.548 sec (=   4.559 min)
GTO integral calculation        ...       38.457 sec (=   0.641 min)  14.1 %
SCF iterations                  ...      202.837 sec (=   3.381 min)  74.2 %
SCF Gradient evaluation         ...       26.285 sec (=   0.438 min)   9.6 %
Geometry relaxation             ...        0.077 sec (=   0.001 min)   0.0 %
Analytical frequency calculation...        5.892 sec (=   0.098 min)   2.2 %
                             ****ORCA TERMINATED NORMALLY****
TOTAL RUN TIME: 0 days 0 hours 4 minutes 50 seconds 781 msec
