
                                 *****************
                                 * O   R   C   A *
                                 *****************

           --- An Ab Initio, DFT and Semiempirical electronic structure package ---

                  #######################################################
                  #                        -***-                        #
                  #          Department of theory and spectroscopy      #
                  #               Directorship: Frank Neese             #
                  #        Max Planck Institute fuer Kohlenforschung    #
                  #                Kaiser Wilhelm Platz 1               #
                  #                 D-45470 Muelheim/Ruhr               #
                  #                      Germany                        #
                  #                                                     #
                  #                  All rights reserved                #
                  #                        -***-                        #
                  #######################################################


                         Program Version 4.2.1 -  RELEASE  -


 With contributions from (in alphabetic order):
   Daniel Aravena         : Magnetic Suceptibility
   Michael Atanasov       : Ab Initio Ligand Field Theory (pilot matlab implementation)
   Alexander A. Auer      : GIAO ZORA, VPT2
   Ute Becker             : Parallelization
   Giovanni Bistoni       : ED, misc. LED, open-shell LED, HFLD
   Martin Brehm           : Molecular dynamics
   Dmytro Bykov           : SCF Hessian
   Vijay G. Chilkuri      : MRCI spin determinant printing, contributions to CSF-ICE
   Dipayan Datta          : RHF DLPNO-CCSD density
   Achintya Kumar Dutta   : EOM-CC, STEOM-CC
   Dmitry Ganyushin       : Spin-Orbit,Spin-Spin,Magnetic field MRCI
   Miquel Garcia          : C-PCM Hessian, Gaussian charge scheme
   Yang Guo               : DLPNO-NEVPT2, CIM, IAO-localization
   Andreas Hansen         : Spin unrestricted coupled pair/coupled cluster methods
   Benjamin Helmich-Paris : CASSCF linear response (MC-RPA)
   Lee Huntington         : MR-EOM, pCC
   Robert Izsak           : Overlap fitted RIJCOSX, COSX-SCS-MP3, EOM
   Christian Kollmar      : KDIIS, OOCD, Brueckner-CCSD(T), CCSD density
   Simone Kossmann        : Meta GGA functionals, TD-DFT gradient, OOMP2, MP2 Hessian
   Martin Krupicka        : AUTO-CI
   Lucas Lang             : DCDCAS
   Dagmar Lenk            : GEPOL surface, SMD
   Dimitrios Liakos       : Extrapolation schemes; Compound Job, initial MDCI parallelization
   Dimitrios Manganas     : Further ROCIS development; embedding schemes
   Dimitrios Pantazis     : SARC Basis sets
   Taras Petrenko         : DFT Hessian,TD-DFT gradient, ASA, ECA, R-Raman, ABS, FL, XAS/XES, NRVS
   Peter Pinski           : DLPNO-MP2, DLPNO-MP2 Gradient
   Christoph Reimann      : Effective Core Potentials
   Marius Retegan         : Local ZFS, SOC
   Christoph Riplinger    : Optimizer, TS searches, QM/MM, DLPNO-CCSD(T), (RO)-DLPNO pert. Triples
   Tobias Risthaus        : Range-separated hybrids, TD-DFT gradient, RPA, STAB
   Michael Roemelt        : Original ROCIS implementation
   Masaaki Saitow         : Open-shell DLPNO-CCSD energy and density
   Barbara Sandhoefer     : DKH picture change effects
   Avijit Sen             : IP-ROCIS
   Kantharuban Sivalingam : CASSCF convergence, NEVPT2, FIC-MRCI
   Bernardo de Souza      : ESD, SOC TD-DFT
   Georgi Stoychev        : AutoAux, RI-MP2 NMR
   Willem Van den Heuvel  : Paramagnetic NMR
   Boris Wezisla          : Elementary symmetry handling
   Frank Wennmohs         : Technical directorship


 We gratefully acknowledge several colleagues who have allowed us to
 interface, adapt or use parts of their codes:
   Stefan Grimme, W. Hujo, H. Kruse,             : VdW corrections, initial TS optimization,
                  C. Bannwarth                     DFT functionals, gCP, sTDA/sTD-DF
   Ed Valeev, F. Pavosevic, A. Kumar             : LibInt (2-el integral package), F12 methods
   Garnet Chan, S. Sharma, J. Yang, R. Olivares  : DMRG
   Ulf Ekstrom                                   : XCFun DFT Library
   Mihaly Kallay                                 : mrcc  (arbitrary order and MRCC methods)
   Andreas Klamt, Michael Diedenhofen            : otool_cosmo (COSMO solvation model)
   Jiri Pittner, Ondrej Demel                    : Mk-CCSD
   Frank Weinhold                                : gennbo (NPA and NBO analysis)
   Christopher J. Cramer and Donald G. Truhlar   : smd solvation model
   Lars Goerigk                                  : TD-DFT with DH, B97 family of functionals
   V. Asgeirsson, H. Jonsson                     : NEB implementation
   FAccTs GmbH                                   : IRC, NEB, NEB-TS, Multilevel, MM, QM/MM, CI optimization
   S Lehtola, MJT Oliveira, MAL Marques          : LibXC Library


 Your calculation uses the libint2 library for the computation of 2-el integrals
 For citations please refer to: http://libint.valeyev.net

 Your ORCA version has been built with support for libXC version: 4.2.3
 For citations please refer to: https://tddft.org/programs/libxc/

 This ORCA versions uses:
   CBLAS   interface :  Fast vector & matrix operations
   LAPACKE interface :  Fast linear algebra routines
   SCALAPACK package :  Parallel linear algebra routines




***************************************
The coordinates will be read from file: init.xyz
***************************************


Your calculation utilizes the SMD solvation module
Please cite in your paper:
A.V. Marenich, C.J. Cramer, D.G. Truhlar J. Phys. Chem. B, 113, (2009), 6378 

Your calculation utilizes the semiempirical GFN2-xTB method
Please cite in your paper:
C. Bannwarth, Ehlert S., S. Grimme,  J. Chem. Theory Comput., 15, (2019), 1652.
   

----- Orbital basis set information -----
Your calculation utilizes the basis: def2-SVP
   F. Weigend and R. Ahlrichs, Phys. Chem. Chem. Phys. 7, 3297 (2005).

================================================================================
                                        WARNINGS
                       Please study these warnings very carefully!
================================================================================


WARNING: The environment variable RSH_COMMAND is not set!
  ===> : All Displacements for the Numerical Hessian calculation
         will be started on localhost

WARNING: Geometry Optimization
  ===> : Switching off AutoStart
         For restart on a previous wavefunction, please use MOREAD

WARNING: Found dipole moment calculation with XTB calculation
  ===> : Switching off dipole moment calculation


INFO   : the flag for use of LIBINT has been found!

================================================================================
                                       INPUT FILE
================================================================================
NAME = opt+freq.inp
|  1> ! XTB2 Opt NumFreq
|  2> 
|  3> %cpcm
|  4>  smd true
|  5>  smdsolvent "ch2cl2"
|  6> end
|  7> 
|  8> %pal
|  9>  nprocs 12
| 10> end
| 11> 
| 12> *xyzfile 0 1 init.xyz
| 13> 
| 14> 
| 15>                          ****END OF INPUT****
================================================================================

                       *****************************
                       * Geometry Optimization Run *
                       *****************************

Geometry optimization settings:
Update method            Update   .... BFGS
Choice of coordinates    CoordSys .... Z-matrix Internals
Initial Hessian          InHess   .... Almoef's Model

Convergence Tolerances:
Energy Change            TolE     ....  5.0000e-06 Eh
Max. Gradient            TolMAXG  ....  3.0000e-04 Eh/bohr
RMS Gradient             TolRMSG  ....  1.0000e-04 Eh/bohr
Max. Displacement        TolMAXD  ....  4.0000e-03 bohr
RMS Displacement         TolRMSD  ....  2.0000e-03 bohr
Strict Convergence                ....  False
------------------------------------------------------------------------------
                        ORCA OPTIMIZATION COORDINATE SETUP
------------------------------------------------------------------------------

The optimization will be done in new redundant internal coordinates
Making redundant internal coordinates   ...  (new redundants) done
Evaluating the initial hessian          ...  (Almloef) done
Evaluating the coordinates              ...  done
Calculating the B-matrix                .... done
Calculating the G-matrix                .... done
Diagonalizing the G-matrix              .... done
The first mode is                       ....  288
The number of degrees of freedom        ....   84

    -----------------------------------------------------------------
                    Redundant Internal Coordinates


    -----------------------------------------------------------------
         Definition                    Initial Value    Approx d2E/dq
    -----------------------------------------------------------------
      1. B(C   1,C   0)                  1.3959         0.611370   
      2. B(C   2,C   1)                  1.3973         0.608218   
      3. B(C   3,C   2)                  1.3806         0.646838   
      4. B(C   4,C   3)                  1.3874         0.630746   
      5. B(C   5,C   4)                  1.3875         0.630495   
      6. B(C   5,C   0)                  1.3817         0.644251   
      7. B(H   6,C   0)                  1.0799         0.373710   
      8. B(H   7,C   2)                  1.0805         0.372826   
      9. B(H   8,C   4)                  1.0801         0.373395   
     10. B(C   9,C   1)                  1.4594         0.484116   
     11. B(H  10,C   9)                  1.1063         0.339182   
     12. B(O  11,C   9)                  1.2133         1.071182   
     13. B(N  12,C   9)                  3.0933         0.001072   
     14. B(N  12,O  11)                  3.4866         0.000226   
     15. B(N  12,H  10)                  3.1143         0.000190   
     16. B(N  12,C   1)                  3.4180         0.000325   
     17. B(N  12,H   6)                  3.7566         0.000018   
     18. B(H  13,H  10)                  2.9849         0.000065   
     19. B(H  13,O  11)                  3.1212         0.000185   
     20. B(H  13,C   9)                  3.0112         0.000310   
     21. B(H  13,C   1)                  3.7368         0.000022   
     22. B(H  13,N  12)                  1.0145         0.425634   
     23. B(C  15,C  14)                  1.5267         0.378155   
     24. B(C  15,N  12)                  1.4586         0.434990   
     25. B(C  15,C   9)                  3.5778         0.000202   
     26. B(C  15,C   2)                  3.7565         0.000105   
     27. B(C  15,C   1)                  3.5476         0.000226   
     28. B(H  16,O  11)                  3.0141         0.000275   
     29. B(H  16,H  10)                  3.7026         0.000005   
     30. B(H  16,C   9)                  3.0195         0.000301   
     31. B(H  16,H   7)                  2.8942         0.000091   
     32. B(H  16,C   2)                  2.9770         0.000351   
     33. B(H  16,C   1)                  3.0044         0.000318   
     34. B(H  16,C  15)                  1.0938         0.355164   
     35. B(H  17,C  15)                  1.1036         0.342576   
     36. B(H  18,C   0)                  2.9331         0.000413   
     37. B(H  18,H   6)                  3.4216         0.000013   
     38. B(H  18,C   5)                  3.0397         0.000279   
     39. B(H  18,C   4)                  3.2467         0.000130   
     40. B(H  18,C   3)                  3.3532         0.000088   
     41. B(H  18,C   2)                  3.2574         0.000125   
     42. B(H  18,C  14)                  1.0910         0.358736   
     43. B(H  18,C   1)                  3.0463         0.000272   
     44. B(H  19,C  14)                  1.0930         0.356215   
     45. B(H  20,N  12)                  1.0157         0.423697   
     46. B(C  21,C  14)                  1.5260         0.379054   
     47. B(H  22,H   7)                  3.4369         0.000012   
     48. B(H  22,C  21)                  1.0918         0.357725   
     49. B(H  22,C   3)                  3.1931         0.000159   
     50. B(H  22,C   2)                  3.3157         0.000101   
     51. B(H  23,C  21)                  1.0933         0.355773   
     52. B(H  24,H  22)                  3.2112         0.000028   
     53. B(H  24,C   3)                  1.0798         0.373798   
     54. B(H  25,H  18)                  3.5874         0.000007   
     55. B(H  25,C   5)                  1.0800         0.373572   
     56. B(C  26,C  21)                  1.5240         0.381868   
     57. B(H  27,C  26)                  1.0877         0.363116   
     58. B(H  28,C  26)                  1.0883         0.362421   
     59. B(H  29,C  26)                  1.0873         0.363650   
     60. B(H  29,H   8)                  3.2960         0.000021   
     61. B(H  29,C   4)                  3.3724         0.000082   
     62. B(H  29,C   3)                  3.6783         0.000027   
     63. A(C   1,C   0,H   6)          119.3959         0.354291   
     64. A(C   1,C   0,C   5)          120.0307         0.435973   
     65. A(C   5,C   0,H   6)          120.5718         0.357455   
     66. A(C   0,C   1,C   2)          119.5027         0.431482   
     67. A(C   2,C   1,C  15)           87.5303         0.146231   
     68. A(C   0,C   1,N  12)           93.3452         0.150737   
     69. A(C   9,C   1,C  15)           79.3420         0.143350   
     70. A(N  12,C   1,C  15)           24.0809         0.099317   
     71. A(C   0,C   1,C   9)          120.1216         0.414242   
     72. A(C   9,C   1,N  12)           64.8260         0.147561   
     73. A(C   2,C   1,C   9)          120.3743         0.413861   
     74. A(C   2,C   1,N  12)          111.3528         0.150665   
     75. A(C   0,C   1,C  15)          102.9167         0.146298   
     76. A(C   1,C   2,C  15)           70.6534         0.137109   
     77. A(H   7,C   2,C  15)           88.2761         0.126246   
     78. A(C   1,C   2,C   3)          120.2158         0.435882   
     79. A(C   3,C   2,C  15)          110.6872         0.137784   
     80. A(C   3,C   2,H   7)          121.2095         0.357555   
     81. A(C   1,C   2,H   7)          118.5746         0.353839   
     82. A(C   2,C   3,H  24)          120.0668         0.357713   
     83. A(C   4,C   3,H  24)          120.0442         0.356186   
     84. A(C   2,C   3,C   4)          119.8890         0.438749   
     85. A(C   5,C   4,H   8)          119.8691         0.356096   
     86. A(C   3,C   4,H   8)          119.8235         0.356120   
     87. A(C   3,C   4,C   5)          120.3074         0.436729   
     88. A(C   0,C   5,C   4)          120.0540         0.438401   
     89. A(C   0,C   5,H  25)          119.9986         0.357433   
     90. A(C   4,C   5,H  25)          119.9472         0.356125   
     91. A(C   1,C   9,H  10)          114.1128         0.335180   
     92. A(C   1,C   9,O  11)          125.7268         0.455222   
     93. A(O  11,C   9,N  12)           98.5475         0.180057   
     94. A(C   1,C   9,C  15)           77.0249         0.142005   
     95. A(H  10,C   9,N  12)           80.8033         0.150210   
     96. A(C   1,C   9,N  12)           89.8974         0.165707   
     97. A(H  10,C   9,O  11)          120.1596         0.381235   
     98. A(O  11,C   9,C  15)           89.7965         0.151921   
     99. A(H  10,C   9,C  15)          104.3812         0.131296   
    100. A(N  12,C   9,C  15)           23.8665         0.102179   
    101. A(C   9,O  11,N  12)           61.3249         0.152505   
    102. A(C  15,N  12,H  20)          109.7146         0.336700   
    103. A(H  13,N  12,H  20)          107.4560         0.301445   
    104. A(C   1,N  12,H  20)          142.3282         0.137570   
    105. A(C   1,N  12,C  15)           82.9476         0.145689   
    106. A(C   1,N  12,H  13)          100.4013         0.137620   
    107. A(C   9,N  12,O  11)           20.1276         0.102301   
    108. A(O  11,N  12,C  15)           89.7634         0.140788   
    109. A(O  11,N  12,H  13)           60.8694         0.133417   
    110. A(C   1,N  12,O  11)           40.3316         0.099155   
    111. A(O  11,N  12,H  20)          160.2610         0.133371   
    112. A(C   1,N  12,C   9)           25.2767         0.103560   
    113. A(C   9,N  12,H  20)          149.1845         0.152621   
    114. A(C   9,N  12,C  15)           97.0303         0.163255   
    115. A(C   9,N  12,H  13)           75.8847         0.152686   
    116. A(H  13,N  12,C  15)          110.0869         0.336956   
    117. A(H  18,C  14,C  21)          109.7382         0.324893   
    118. A(C  15,C  14,C  21)          112.1543         0.365017   
    119. A(H  18,C  14,H  19)          107.8653         0.290172   
    120. A(C  15,C  14,H  19)          109.0938         0.324390   
    121. A(C  15,C  14,H  18)          108.2458         0.324766   
    122. A(H  19,C  14,C  21)          109.6382         0.324517   
    123. A(C   1,C  15,H  17)          158.8046         0.132468   
    124. A(C   1,C  15,H  16)           52.2057         0.132824   
    125. A(C   1,C  15,C  14)           86.0222         0.140395   
    126. A(C   1,C  15,N  12)           72.9715         0.141613   
    127. A(H  16,C  15,H  17)          107.5823         0.287951   
    128. A(C  14,C  15,H  17)          109.4857         0.322319   
    129. A(N  12,C  15,H  17)          112.8332         0.327850   
    130. A(C  14,C  15,H  16)          109.6328         0.324233   
    131. A(C   9,C  15,H  17)          141.2560         0.131392   
    132. A(C   2,C  15,C   9)           39.4135         0.096849   
    133. A(C   9,C  15,C  14)          108.5448         0.139122   
    134. A(C   9,C  15,N  12)           59.1032         0.140311   
    135. A(N  12,C  15,H  16)          107.1838         0.329809   
    136. A(C   1,C  15,C   9)           23.6332         0.098338   
    137. A(N  12,C  15,C  14)          110.0355         0.371409   
    138. A(C   1,C  15,C   2)           21.8163         0.097049   
    139. A(C   2,C  15,H  17)          143.4368         0.125539   
    140. A(C   2,C  15,H  16)           38.3429         0.125839   
    141. A(C   2,C  15,C  14)           81.0872         0.132203   
    142. A(C   2,C  15,N  12)           94.5774         0.133227   
    143. A(C   9,C  15,H  16)           51.4327         0.131739   
    144. A(H  23,C  21,C  26)          109.5076         0.324845   
    145. A(H  22,C  21,C  26)          109.5072         0.325137   
    146. A(C  14,C  21,C  26)          111.7216         0.365628   
    147. A(H  22,C  21,H  23)          107.6585         0.289987   
    148. A(C  14,C  21,H  23)          109.3954         0.324450   
    149. A(C  14,C  21,H  22)          108.9598         0.324742   
    150. A(H  28,C  26,H  29)          108.3555         0.291582   
    151. A(H  27,C  26,H  29)          108.6117         0.291670   
    152. A(C  21,C  26,H  29)          110.3069         0.326017   
    153. A(H  27,C  26,H  28)          108.3692         0.291515   
    154. A(C  21,C  26,H  28)          110.5604         0.325835   
    155. A(C  21,C  26,H  27)          110.5681         0.325938   
    156. D(N  12,C   1,C   0,H   6)     62.8155         0.037605   
    157. D(N  12,C   1,C   0,C   5)   -116.7274         0.037605   
    158. D(C   9,C   1,C   0,C   5)   -179.4239         0.037605   
    159. D(C   2,C   1,C   0,C   5)      0.1540         0.037605   
    160. D(C  15,C   1,C   0,C   5)    -94.3754         0.037605   
    161. D(C   2,C   1,C   0,H   6)    179.6968         0.037605   
    162. D(C  15,C   1,C   0,H   6)     85.1674         0.037605   
    163. D(C   9,C   1,C   0,H   6)      0.1190         0.037605   
    164. D(H   7,C   2,C   1,C   9)     -0.7257         0.042029   
    165. D(H   7,C   2,C   1,N  12)    -73.2530         0.042029   
    166. D(C   3,C   2,C   1,C   9)    179.3485         0.042029   
    167. D(C   3,C   2,C   1,C  15)    103.2261         0.042029   
    168. D(H   7,C   2,C   1,C   0)    179.6975         0.042029   
    169. D(C  15,C   2,C   1,C   0)   -103.4544         0.042029   
    170. D(H   7,C   2,C   1,C  15)    -76.8481         0.042029   
    171. D(C  15,C   2,C   1,N  12)      3.5951         0.042029   
    172. D(C   3,C   2,C   1,C   0)     -0.2283         0.042029   
    173. D(C   3,C   2,C   1,N  12)    106.8212         0.042029   
    174. D(C  15,C   2,C   1,C   9)     76.1223         0.042029   
    175. D(H  24,C   3,C   2,C   1)   -179.8487         0.044404   
    176. D(H  24,C   3,C   2,C  15)   -100.7941         0.044404   
    177. D(C   4,C   3,C   2,H   7)   -179.7800         0.044404   
    178. D(C   4,C   3,C   2,C  15)     79.1984         0.044404   
    179. D(H  24,C   3,C   2,H   7)      0.2275         0.044404   
    180. D(C   4,C   3,C   2,C   1)      0.1438         0.044404   
    181. D(H   8,C   4,C   3,C   2)    179.9828         0.038355   
    182. D(H   8,C   4,C   3,H  24)     -0.0247         0.038355   
    183. D(C   5,C   4,C   3,C   2)      0.0157         0.038355   
    184. D(C   5,C   4,C   3,H  24)   -179.9918         0.038355   
    185. D(C   4,C   5,C   0,C   1)      0.0038         0.033740   
    186. D(C   0,C   5,C   4,C   3)     -0.0898         0.034342   
    187. D(C   4,C   5,C   0,H   6)   -179.5336         0.033740   
    188. D(C   0,C   5,C   4,H   8)    179.9431         0.034342   
    189. D(H  25,C   5,C   4,C   3)   -179.9398         0.034342   
    190. D(H  25,C   5,C   0,H   6)      0.3163         0.033740   
    191. D(H  25,C   5,C   0,C   1)    179.8537         0.033740   
    192. D(H  25,C   5,C   4,H   8)      0.0931         0.034342   
    193. D(C  15,C   9,C   1,N  12)     20.2750         0.025873   
    194. D(C  15,C   9,C   1,C   2)    -80.7279         0.025873   
    195. D(N  12,C   9,C   1,C  15)    -20.2750         0.025873   
    196. D(N  12,C   9,C   1,C   2)   -101.0029         0.025873   
    197. D(C  15,C   9,C   1,C   0)     98.8462         0.025873   
    198. D(H  10,C   9,C   1,C   0)     -1.2974         0.025873   
    199. D(H  10,C   9,C   1,C   2)    179.1285         0.025873   
    200. D(O  11,C   9,C   1,C   0)    179.0456         0.025873   
    201. D(H  10,C   9,C   1,N  12)    -79.8686         0.025873   
    202. D(H  10,C   9,C   1,C  15)   -100.1436         0.025873   
    203. D(O  11,C   9,C   1,N  12)    100.4744         0.025873   
    204. D(O  11,C   9,C   1,C  15)     80.1994         0.025873   
    205. D(O  11,C   9,C   1,C   2)     -0.5285         0.025873   
    206. D(N  12,C   9,C   1,C   0)     78.5712         0.025873   
    207. D(N  12,O  11,C   9,C  15)    -22.2861         0.149719   
    208. D(N  12,O  11,C   9,H  10)     84.2844         0.149719   
    209. D(N  12,O  11,C   9,C   1)    -96.0776         0.149719   
    210. D(C  15,N  12,C   1,C   2)     -8.8319         0.001500   
    211. D(H  13,N  12,C   1,C   2)    100.3844         0.001500   
    212. D(H  13,N  12,C   1,C   0)   -136.0759         0.001500   
    213. D(H  13,N  12,C   1,C   9)    -14.2070         0.001500   
    214. D(H  13,N  12,C   1,C  15)    109.2163         0.001500   
    215. D(C  15,N  12,C   1,C   9)   -123.4233         0.001500   
    216. D(H  20,N  12,C   1,C   0)      1.3820         0.001500   
    217. D(H  20,N  12,C   1,C   2)   -122.1577         0.001500   
    218. D(C  15,N  12,C   1,C   0)    114.7078         0.001500   
    219. D(H  20,N  12,O  11,C   9)    -77.6099         0.001500   
    220. D(O  11,N  12,C   1,C   9)    -25.4169         0.001500   
    221. D(O  11,N  12,C   9,H  10)   -119.3626         0.001500   
    222. D(O  11,N  12,C   9,C   1)    126.1720         0.001500   
    223. D(C   1,N  12,C   9,H  10)    114.4655         0.001500   
    224. D(H  20,N  12,C   9,H  10)     20.5518         0.001500   
    225. D(H  20,N  12,C   9,C   1)    -93.9137         0.001500   
    226. D(C  15,N  12,C   9,H  10)    171.0380         0.001500   
    227. D(C  15,N  12,C   9,C   1)     56.5725         0.001500   
    228. D(H  13,N  12,C   9,C  15)    109.0146         0.001500   
    229. D(H  20,N  12,C   9,C  15)   -150.4862         0.001500   
    230. D(H  13,N  12,C   9,O  11)     39.4151         0.001500   
    231. D(H  13,N  12,C   9,H  10)    -79.9474         0.001500   
    232. D(C   1,N  12,C   9,C  15)    -56.5725         0.001500   
    233. D(C  15,N  12,C   9,O  11)    -69.5994         0.001500   
    234. D(H  13,N  12,C   9,C   1)    165.5871         0.001500   
    235. D(O  11,N  12,C   9,C  15)     69.5994         0.001500   
    236. D(O  11,N  12,C   1,C  15)     98.0064         0.001500   
    237. D(C   1,N  12,C   9,O  11)   -126.1720         0.001500   
    238. D(C  15,N  12,O  11,C   9)    111.5278         0.001500   
    239. D(O  11,N  12,C   1,C   2)     89.1745         0.001500   
    240. D(O  11,N  12,C   1,C   0)   -147.2858         0.001500   
    241. D(C   9,N  12,C   1,C  15)    123.4233         0.001500   
    242. D(C   1,N  12,O  11,C   9)     32.1795         0.001500   
    243. D(H  13,N  12,O  11,C   9)   -135.1762         0.001500   
    244. D(C   9,N  12,C   1,C   2)    114.5914         0.001500   
    245. D(C   9,N  12,C   1,C   0)   -121.8689         0.001500   
    246. D(H  20,N  12,C   1,C  15)   -113.3257         0.001500   
    247. D(H  20,N  12,C   1,C   9)    123.2509         0.001500   
    248. D(H  20,N  12,C   9,O  11)    139.9144         0.001500   
    249. D(H  17,C  15,C   2,H   7)    -26.3029         0.001500   
    250. D(H  17,C  15,C   2,C   3)     96.5693         0.001500   
    251. D(H  17,C  15,C   2,C   1)   -147.4827         0.001500   
    252. D(H  16,C  15,C   2,C   3)    124.0414         0.001500   
    253. D(H  16,C  15,C   2,C   1)   -120.0105         0.001500   
    254. D(C  14,C  15,C   2,H   7)   -137.1180         0.001500   
    255. D(C  14,C  15,C   2,C   1)    101.7022         0.001500   
    256. D(N  12,C  15,C   2,H   7)    113.2885         0.001500   
    257. D(N  12,C  15,C   2,C   3)   -123.8393         0.001500   
    258. D(N  12,C  15,C   2,C   1)     -7.8912         0.001500   
    259. D(C   9,C  15,C   1,N  12)    -50.2293         0.001500   
    260. D(C   9,C  15,C   1,C   2)    121.5417         0.001500   
    261. D(C   9,C  15,C   1,C   0)   -118.7340         0.001500   
    262. D(C   2,C  15,C   1,N  12)   -171.7710         0.001500   
    263. D(C   2,C  15,C   1,C   9)   -121.5417         0.001500   
    264. D(C   2,C  15,C   1,C   0)    119.7243         0.001500   
    265. D(H  17,C  15,C   1,N  12)   -109.4325         0.001500   
    266. D(H  17,C  15,C   1,C   9)    -59.2032         0.001500   
    267. D(H  17,C  15,C   1,C   2)     62.3385         0.001500   
    268. D(H  17,C  15,C   1,C   0)   -177.9372         0.001500   
    269. D(H  16,C  15,C   1,N  12)   -128.9422         0.001500   
    270. D(H  16,C  15,C   1,C   9)    -78.7129         0.001500   
    271. D(H  16,C  15,C   1,C   2)     42.8288         0.001500   
    272. D(H  16,C  15,C   1,C   0)    162.5531         0.001500   
    273. D(C  14,C  15,C   2,C   3)    -14.2458         0.001500   
    274. D(C  14,C  15,C   1,N  12)    112.3630         0.001500   
    275. D(C  14,C  15,C   1,C   9)    162.5923         0.001500   
    276. D(C   2,C  15,C  14,C  21)     81.1910         0.013374   
    277. D(H  16,C  15,C   2,H   7)      1.1692         0.001500   
    278. D(C  14,C  15,C   1,C   2)    -75.8660         0.001500   
    279. D(C   2,C  15,C  14,H  19)   -157.1448         0.013374   
    280. D(C   2,C  15,C  14,H  18)    -40.0190         0.013374   
    281. D(C   1,C  15,C   2,C   3)   -115.9480         0.001500   
    282. D(C  14,C  15,C   1,C   0)     43.8584         0.001500   
    283. D(C   1,C  15,C  14,C  21)    102.5854         0.013374   
    284. D(C   1,C  15,C  14,H  19)   -135.7504         0.013374   
    285. D(N  12,C  15,C   1,C   9)     50.2293         0.001500   
    286. D(N  12,C  15,C   1,C   2)    171.7710         0.001500   
    287. D(H  17,C  15,C  14,H  18)    176.1847         0.013374   
    288. D(N  12,C  15,C   1,C   0)    -68.5047         0.001500   
    289. D(H  16,C  15,C  14,H  19)    176.8617         0.013374   
    290. D(H  16,C  15,C  14,H  18)    -66.0125         0.013374   
    291. D(N  12,C  15,C  14,C  21)    172.8411         0.013374   
    292. D(N  12,C  15,C  14,H  18)     51.6310         0.013374   
    293. D(C   9,C  15,N  12,O  11)    -18.8161         0.024094   
    294. D(C   9,C  15,N  12,C   1)     21.0434         0.024094   
    295. D(C   9,C  15,N  12,H  20)    164.4501         0.024094   
    296. D(C   9,C  15,N  12,H  13)    -77.4942         0.024094   
    297. D(C   2,C  15,N  12,O  11)    -36.8006         0.024094   
    298. D(C   2,C  15,N  12,C   9)    -17.9846         0.024094   
    299. D(C   2,C  15,N  12,H  20)    146.4655         0.024094   
    300. D(C   2,C  15,N  12,H  13)    -95.4788         0.024094   
    301. D(C   1,C  15,N  12,O  11)    -39.8595         0.024094   
    302. D(C   1,C  15,N  12,H  20)    143.4067         0.024094   
    303. D(C   1,C  15,N  12,H  13)    -98.5376         0.024094   
    304. D(H  17,C  15,N  12,O  11)    118.4284         0.024094   
    305. D(H  17,C  15,N  12,C   1)    158.2879         0.024094   
    306. D(H  17,C  15,N  12,H  20)    -58.3054         0.024094   
    307. D(H  17,C  15,N  12,H  13)     59.7503         0.024094   
    308. D(H  16,C  15,N  12,O  11)      0.1812         0.024094   
    309. D(H  16,C  15,N  12,C   9)     18.9973         0.024094   
    310. D(H  16,C  15,N  12,C   1)     40.0407         0.024094   
    311. D(H  16,C  15,N  12,H  20)   -176.5526         0.024094   
    312. D(H  16,C  15,N  12,H  13)    -58.4969         0.024094   
    313. D(C  14,C  15,N  12,O  11)   -118.9701         0.024094   
    314. D(C  14,C  15,N  12,C   9)   -100.1540         0.024094   
    315. D(C  14,C  15,N  12,C   1)    -79.1106         0.024094   
    316. D(C  14,C  15,N  12,H  20)     64.2961         0.024094   
    317. D(C  14,C  15,N  12,H  13)   -177.6482         0.024094   
    318. D(C   2,C  15,C   9,N  12)    151.0037         0.001500   
    319. D(C   2,C  15,C   9,O  11)    -96.9489         0.001500   
    320. D(C   2,C  15,C   9,H  10)    141.8693         0.001500   
    321. D(H  17,C  15,N  12,C   9)    137.2445         0.024094   
    322. D(C   2,C  15,C   9,C   1)     29.9240         0.001500   
    323. D(C   1,C  15,C   9,N  12)    121.0797         0.001500   
    324. D(C   1,C  15,C   9,O  11)   -126.8729         0.001500   
    325. D(C   1,C  15,N  12,C   9)    -21.0434         0.024094   
    326. D(C   1,C  15,C   9,H  10)    111.9453         0.001500   
    327. D(H  17,C  15,C   9,N  12)    -88.6717         0.001500   
    328. D(H  17,C  15,C   9,O  11)     23.3757         0.001500   
    329. D(C   2,C  15,N  12,C   1)      3.0589         0.024094   
    330. D(H  17,C  15,C   9,H  10)    -97.8061         0.001500   
    331. D(H  17,C  15,C   9,C   1)    150.2486         0.001500   
    332. D(H  16,C  15,C   9,N  12)   -156.5623         0.001500   
    333. D(H  16,C  15,C   9,O  11)    -44.5150         0.001500   
    334. D(H  16,C  15,C   9,H  10)   -165.6968         0.001500   
    335. D(H  16,C  15,C   9,C   1)     82.3579         0.001500   
    336. D(C  14,C  15,C   9,N  12)    102.7314         0.001500   
    337. D(N  12,C  15,C  14,H  19)    -65.4947         0.013374   
    338. D(C  14,C  15,C   9,O  11)   -145.2212         0.001500   
    339. D(C  14,C  15,C   9,H  10)     93.5970         0.001500   
    340. D(C  14,C  15,C   9,C   1)    -18.3483         0.001500   
    341. D(H  16,C  15,C  14,C  21)     55.1975         0.013374   
    342. D(N  12,C  15,C   9,O  11)    112.0474         0.001500   
    343. D(H  17,C  15,C  14,H  19)     59.0589         0.013374   
    344. D(H  17,C  15,C  14,C  21)    -62.6053         0.013374   
    345. D(C   1,C  15,C  14,H  18)    -18.6246         0.013374   
    346. D(N  12,C  15,C   9,H  10)     -9.1344         0.001500   
    347. D(N  12,C  15,C   9,C   1)   -121.0797         0.001500   
    348. D(C   9,C  15,C   2,H   7)     88.6246         0.001500   
    349. D(C   9,C  15,C   2,C   3)   -148.5031         0.001500   
    350. D(C   9,C  15,C   2,C   1)    -32.5551         0.001500   
    351. D(C   9,C  15,C  14,H  18)    -11.3573         0.013374   
    352. D(C   9,C  15,C  14,H  19)   -128.4831         0.013374   
    353. D(C   9,C  15,C  14,C  21)    109.8527         0.013374   
    354. D(C   1,C  15,C   2,H   7)    121.1798         0.001500   
    355. D(C  26,C  21,C  14,H  19)     58.9659         0.011454   
    356. D(C  26,C  21,C  14,H  18)    -59.3344         0.011454   
    357. D(C  26,C  21,C  14,C  15)   -179.6821         0.011454   
    358. D(H  23,C  21,C  14,H  19)    -62.4563         0.011454   
    359. D(H  23,C  21,C  14,H  18)    179.2434         0.011454   
    360. D(H  23,C  21,C  14,C  15)     58.8957         0.011454   
    361. D(H  22,C  21,C  14,H  19)   -179.9075         0.011454   
    362. D(H  22,C  21,C  14,H  18)     61.7922         0.011454   
    363. D(H  22,C  21,C  14,C  15)    -58.5554         0.011454   
    364. D(H  29,C  26,C  21,H  23)   -179.7309         0.011616   
    365. D(H  29,C  26,C  21,H  22)    -61.8966         0.011616   
    366. D(H  29,C  26,C  21,C  14)     58.9118         0.011616   
    367. D(H  28,C  26,C  21,H  23)     60.4393         0.011616   
    368. D(H  28,C  26,C  21,H  22)    178.2736         0.011616   
    369. D(H  28,C  26,C  21,C  14)    -60.9180         0.011616   
    370. D(H  27,C  26,C  21,H  23)    -59.5766         0.011616   
    371. D(H  27,C  26,C  21,H  22)     58.2577         0.011616   
    372. D(H  27,C  26,C  21,C  14)    179.0661         0.011616   
    -----------------------------------------------------------------

Number of atoms                         .... 30
Number of degrees of freedom            .... 372

         *************************************************************
         *                GEOMETRY OPTIMIZATION CYCLE   1            *
         *************************************************************
      -----------------------------------------------------------      
     |                   =====================                   |     
     |                           x T B                           |     
     |                   =====================                   |     
     |                         S. Grimme                         |     
     |          Mulliken Center for Theoretical Chemistry        |     
     |                    University of Bonn                     |     
      -----------------------------------------------------------      

   * xtb version 6.3.0 (49875a8) compiled by 'schneider@apollo14' on 2020-05-23

   xtb is free software: you can redistribute it and/or modify it under
   the terms of the GNU Lesser General Public License as published by
   the Free Software Foundation, either version 3 of the License, or
   (at your option) any later version.
   
   xtb is distributed in the hope that it will be useful,
   but WITHOUT ANY WARRANTY; without even the implied warranty of
   MERCHANTABILITY or FITNESS FOR A PARTICULAR PURPOSE.  See the
   GNU Lesser General Public License for more details.
   
   Cite this work as:
   * S. Grimme, C. Bannwarth, P. Shushkov, J. Chem. Theory Comput., 2017,
     13, 1989-2009. DOI: 10.1021/acs.jctc.7b00118
   * C. Bannwarth, S. Ehlert and S. Grimme., J. Chem. Theory Comput., 2019,
     15, 1652-1671. DOI: 10.1021/acs.jctc.8b01176
   * P. Pracht, E. Caldeweyher, S. Ehlert, S. Grimme, ChemRxiv, 2019, preprint.
     DOI: 10.26434/chemrxiv.8326202.v1
   
   for GFN-FF:
   * S. Spicher and S. Grimme, Angew. Chem. Int. Ed., 2020,
     DOI: 10.1002/anie.202004239
   
   for DFT-D4:
   * E. Caldeweyher, C. Bannwarth and S. Grimme, J. Chem. Phys., 2017,
     147, 034112. DOI: 10.1063/1.4993215
   * E. Caldeweyher, S. Ehlert, A. Hansen, H. Neugebauer, S. Spicher,
     C. Bannwarth and S. Grimme, J. Chem. Phys., 2019, 150, 154122.
     DOI: 10.1063/1.5090222
   
   for sTDA-xTB:
   * S. Grimme and C. Bannwarth, J. Chem. Phys., 2016, 145, 054103.
     DOI: 10.1063/1.4959605
   
   in the mass-spec context:
   * V. Asgeirsson, C. Bauer and S. Grimme, Chem. Sci., 2017, 8, 4879.
     DOI: 10.1039/c7sc00601b
   * J. Koopman and S. Grimme, ACS Omega 2019, 4, 12, 15120-15133.
     DOI: 10.1021/acsomega.9b02011
   
   for metadynamics refer to:
   * S. Grimme, J. Chem. Theory Comput., 2019, 155, 2847-2862
     DOI: 10.1021/acs.jctc.9b00143
   
   with help from (in alphabetical order)
   C. Bannwarth, F. Bohle, G. Brandenburg, E. Caldeweyher, M. Checinski,
   S. Dohm, S. Ehlert, S. Ehrlich, F. März, H. Neugebauer, J. Pisarek,
   P. Pracht, P. Shushkov, and S. Spicher.
   
 * started run on 2020/06/19 at 18:53:08.509     

           -------------------------------------------------
          |                Calculation Setup                |
           -------------------------------------------------

          program call               : /opt/orca/otool_xtb opt+freq_XTB.xyz --grad -c 0 -u 0 -P 12 --namespace opt+freq --gbsa CH2Cl2
          calculation namespace      : opt+freq
          coordinate file            : opt+freq_XTB.xyz
          number of atoms            :                    30
          number of electrons        :                    72
          charge                     :                     0
          spin                       :                   0.0
          first test random number   :      0.80931369462469

   ID    Z sym.   atoms
    1    6 C      1-6, 10, 15, 16, 22, 27
    2    1 H      7-9, 11, 14, 17-21, 23-26, 28-30
    3    8 O      12
    4    7 N      13

molecular fragmentation (1/2 indicates fragments):
111111111111222222222222112222
# atoms in fragment 1/2:    14    16
 fragment masses (1/2) :      106.12       73.14
CMA distance (Bohr)    :   6.912
constraining FC (au)   :  0.0500
########################################################################
[WARNING] Please study the warnings concerning your input carefully
-1- prog_main_parseArguments: Process number higher than OMP_NUM_THREADS, I hope you know what you are doing.
########################################################################
 Solvent             : CH2Cl2
 Using internal parameter file: .param_gbsa2_CH2Cl2
 Gsolv ref. state (COSMO-RS): gsolv [1 M gas/solution]
 temperature (mdtemp)       :    298.14999999999998     
 dielectric constant        :    8.9299999999999997     
 rho                        :    1.3300000000000003     
 mass                       :    84.930000000000007     
 surface tension            :    15.568945408385856     
 probe radius               :   0.71987590000000001     
 Gshift (Eh)                :    4.4408291734517593E-003
 c1                         :    1.4917377599999999     
 soset                      :    0.0000000000000000     
 HB correction              :  F

           -------------------------------------------------
          |                 G F N 2 - x T B                 |
           -------------------------------------------------

        Reference                      10.1021/acs.jctc.8b01176
      * Hamiltonian:
        H0-scaling (s, p, d)           1.850000    2.230000    2.230000
        zeta-weighting                 0.500000
      * Dispersion:
        s8                             2.700000
        a1                             0.520000
        a2                             5.000000
        s9                             5.000000
      * Repulsion:
        kExp                           1.500000    1.000000
        rExp                           1.000000
      * Coulomb:
        alpha                          2.000000
        third order                    shell-resolved
        anisotropic                    true
        a3                             3.000000
        a5                             4.000000
        cn-shift                       1.200000
        cn-exp                         4.000000
        max-rad                        5.000000

q/qsh data taken from xtbrestart
CAMM data taken from xtbrestart

          ...................................................
          :                      SETUP                      :
          :.................................................:
          :  # basis functions                  69          :
          :  # atomic orbitals                  69          :
          :  # shells                           43          :
          :  # electrons                        72          :
          :  max. iterations                   250          :
          :  Hamiltonian                  GFN2-xTB          :
          :  restarted?                       true          :
          :  GBSA solvation                   true          :
          :  PC potential                    false          :
          :  electronic temp.          300.0000000     K    :
          :  accuracy                    1.0000000          :
          :  -> integral cutoff          0.2500000E+02      :
          :  -> integral neglect         0.1000000E-07      :
          :  -> SCF convergence          0.1000000E-05 Eh   :
          :  -> wf. convergence          0.1000000E-03 e    :
          :  Broyden damping             0.4000000          :
          ...................................................

 iter      E             dE          RMSdq      gap      omega  full diag
   1    -39.7709178 -0.397709E+02  0.140E-06    2.27       0.0  T
   2    -39.7709178  0.142109E-12  0.926E-07    2.27   19714.3  T
   3    -39.7709178 -0.127898E-12  0.612E-07    2.27   29854.9  T

   *** convergence criteria satisfied after 3 iterations ***

         #    Occupation            Energy/Eh            Energy/eV
      -------------------------------------------------------------
         1        2.0000           -0.7151272             -19.4596
       ...           ...                  ...                  ...
        30        2.0000           -0.4347156             -11.8292
        31        2.0000           -0.4318938             -11.7524
        32        2.0000           -0.4257618             -11.5856
        33        2.0000           -0.4194935             -11.4150
        34        2.0000           -0.4166121             -11.3366
        35        2.0000           -0.4019558             -10.9378
        36        2.0000           -0.3761188             -10.2347 (HOMO)
        37                         -0.2927634              -7.9665 (LUMO)
        38                         -0.2347353              -6.3875
        39                         -0.2001664              -5.4468
        40                         -0.0936777              -2.5491
        41                          0.0309056               0.8410
       ...                                ...                  ...
        69                          0.6617672              18.0076
      -------------------------------------------------------------
                  HL-Gap            0.0833554 Eh            2.2682 eV
             Fermi-level           -0.3344411 Eh           -9.1006 eV

 SCC (total)                   0 d,  0 h,  0 min,  0.067 sec
 SCC setup                      ...        0 min,  0.001 sec (  1.718%)
 Dispersion                     ...        0 min,  0.000 sec (  0.564%)
 classical contributions        ...        0 min,  0.000 sec (  0.191%)
 integral evaluation            ...        0 min,  0.012 sec ( 17.418%)
 iterations                     ...        0 min,  0.019 sec ( 29.117%)
 molecular gradient             ...        0 min,  0.026 sec ( 38.741%)
 printout                       ...        0 min,  0.008 sec ( 12.211%)

         :::::::::::::::::::::::::::::::::::::::::::::::::::::
         ::                     SUMMARY                     ::
         :::::::::::::::::::::::::::::::::::::::::::::::::::::
         :: total energy             -39.181539421007 Eh    ::
         :: total w/o Gsasa/hb       -39.166708711422 Eh    ::
         :: gradient norm              0.000550101923 Eh/a0 ::
         :: HOMO-LUMO gap              2.268214745111 eV    ::
         ::.................................................::
         :: SCC energy               -39.785748537324 Eh    ::
         :: -> isotropic ES            0.045098723986 Eh    ::
         :: -> anisotropic ES          0.004463992108 Eh    ::
         :: -> anisotropic XC          0.025629313050 Eh    ::
         :: -> dispersion             -0.025866528337 Eh    ::
         :: -> Gsolv                  -0.021435470326 Eh    ::
         ::    -> Gborn               -0.006604760740 Eh    ::
         ::    -> Gsasa               -0.019271538759 Eh    ::
         ::    -> Ghb                  0.000000000000 Eh    ::
         ::    -> Gshift               0.004440829173 Eh    ::
         :: repulsion energy           0.603616028245 Eh    ::
         :: add. restraining           0.000000000000 Eh    ::
         :::::::::::::::::::::::::::::::::::::::::::::::::::::

           -------------------------------------------------
          |                Property Printout                |
           -------------------------------------------------

    * Orbital Energies and Occupations

         #    Occupation            Energy/Eh            Energy/eV
      -------------------------------------------------------------
         1        2.0000           -0.7151272             -19.4596
       ...           ...                  ...                  ...
        24        2.0000           -0.4871678             -13.2565
        25        2.0000           -0.4807961             -13.0831
        26        2.0000           -0.4642278             -12.6323
        27        2.0000           -0.4478186             -12.1858
        28        2.0000           -0.4461251             -12.1397
        29        2.0000           -0.4374242             -11.9029
        30        2.0000           -0.4347156             -11.8292
        31        2.0000           -0.4318938             -11.7524
        32        2.0000           -0.4257618             -11.5856
        33        2.0000           -0.4194935             -11.4150
        34        2.0000           -0.4166121             -11.3366
        35        2.0000           -0.4019558             -10.9378
        36        2.0000           -0.3761188             -10.2347 (HOMO)
        37                         -0.2927634              -7.9665 (LUMO)
        38                         -0.2347353              -6.3875
        39                         -0.2001664              -5.4468
        40                         -0.0936777              -2.5491
        41                          0.0309056               0.8410
        42                          0.0909362               2.4745
        43                          0.0977372               2.6596
        44                          0.1095372               2.9807
        45                          0.1166075               3.1731
        46                          0.1290757               3.5123
        47                          0.1356765               3.6919
       ...                                ...                  ...
        69                          0.6617672              18.0076
      -------------------------------------------------------------
                  HL-Gap            0.0833554 Eh            2.2682 eV
             Fermi-level           -0.3344411 Eh           -9.1006 eV

     #   Z        covCN         q      C6AA      α(0)
     1   6 C      2.923    -0.020    28.495     8.754
     2   6 C      2.970    -0.007    28.181     8.708
     3   6 C      2.923    -0.011    28.283     8.721
     4   6 C      2.916    -0.023    28.576     8.766
     5   6 C      2.921    -0.015    28.395     8.738
     6   6 C      2.917    -0.023    28.588     8.768
     7   1 H      0.926     0.052     2.299     2.371
     8   1 H      0.926     0.051     2.313     2.378
     9   1 H      0.926     0.054     2.275     2.359
    10   6 C      2.768     0.215    23.463     7.933
    11   1 H      0.922     0.021     2.725     2.582
    12   8 O      0.856    -0.396    21.606     6.232
    13   7 N      2.630    -0.366    29.440     8.058
    14   1 H      0.860     0.137     1.489     1.912
    15   6 C      3.804    -0.066    21.769     6.642
    16   6 C      3.731     0.025    20.239     6.422
    17   1 H      0.924     0.027     2.630     2.536
    18   1 H      0.923     0.003     3.005     2.711
    19   1 H      0.924     0.043     2.412     2.429
    20   1 H      0.924     0.035     2.512     2.479
    21   1 H      0.860     0.146     1.432     1.874
    22   6 C      3.801    -0.054    21.550     6.609
    23   1 H      0.924     0.031     2.573     2.508
    24   1 H      0.924     0.030     2.584     2.514
    25   1 H      0.926     0.051     2.311     2.377
    26   1 H      0.926     0.052     2.292     2.367
    27   6 C      3.752    -0.104    22.556     6.773
    28   1 H      0.925     0.038     2.470     2.458
    29   1 H      0.925     0.037     2.495     2.470
    30   1 H      0.925     0.039     2.463     2.454

 Mol. C6AA /au·bohr⁶  :       8347.928977
 Mol. C8AA /au·bohr⁸  :     188450.395838
 Mol. α(0) /au        :        141.903553


Wiberg/Mayer (AO) data.
largest (>0.10) Wiberg bond orders for each atom
          total WBO             WBO to atom ...
     1  C   3.989        C    6 1.462    C    2 1.364    H    7 0.966    C    4 0.104
     2  C   3.989        C    1 1.364    C    3 1.362    C   10 1.078
     3  C   3.990        C    4 1.463    C    2 1.362    H    8 0.967    C    6 0.104
     4  C   3.991        C    3 1.463    C    5 1.426    H   25 0.969    C    1 0.104
     5  C   3.990        C    6 1.427    C    4 1.426    H    9 0.970
     6  C   3.991        C    1 1.462    C    5 1.427    H   26 0.969    C    3 0.104
     7  H   0.997        C    1 0.966
     8  H   0.997        C    3 0.967
     9  H   0.997        C    5 0.970
    10  C   3.912        O   12 1.823    C    2 1.078    H   11 0.933
    11  H   0.999        C   10 0.933
    12  O   2.038        C   10 1.823
    13  N   2.997        C   16 1.018    H   14 0.968    H   21 0.966
    14  H   0.981        N   13 0.968
    15  C   3.996        C   22 1.008    C   16 1.005    H   20 0.977    H   19 0.975
    16  C   3.984        N   13 1.018    C   15 1.005    H   17 0.975    H   18 0.971
    17  H   0.999        C   16 0.975
    18  H   1.000        C   16 0.971
    19  H   0.998        C   15 0.975
    20  H   0.999        C   15 0.977
    21  H   0.979        N   13 0.966
    22  C   3.998        C   27 1.019    C   15 1.008    H   24 0.978    H   23 0.978
    23  H   0.999        C   22 0.978
    24  H   0.999        C   22 0.978
    25  H   0.997        C    4 0.969
    26  H   0.997        C    6 0.969
    27  C   3.996        C   22 1.019    H   29 0.988    H   30 0.987    H   28 0.987
    28  H   0.998        C   27 0.987
    29  H   0.999        C   27 0.988
    30  H   0.998        C   27 0.987
Topologies differ in total number of bonds
Writing topology from bond orders to xtbtopo.mol

molecular dipole:
                 x           y           z       tot (Debye)
 q only:       -1.775       0.227      -0.301
   full:       -1.550      -0.036      -0.511       4.150
molecular quadrupole (traceless):
                xx          xy          yy          xz          yz          zz
 q only:       -5.533      -0.353       4.475      -2.461      -0.813       1.058
  q+dip:       -6.575      -1.685       6.754      -5.276       0.667      -0.179
   full:       -7.981      -1.947       5.661      -4.882       1.894       2.320


           -------------------------------------------------
          | TOTAL ENERGY              -39.181539421007 Eh   |
          | GRADIENT NORM               0.000550101923 Eh/α |
          | HOMO-LUMO GAP               2.268214745111 eV   |
           -------------------------------------------------

------------------------------------------------------------------------
 * finished run on 2020/06/19 at 18:53:08.626     
------------------------------------------------------------------------
 total:
 * wall-time:     0 d,  0 h,  0 min,  0.116 sec
 *  cpu-time:     0 d,  0 h,  0 min,  1.240 sec
 * ratio c/w:    10.658 speedup
 SCF:
 * wall-time:     0 d,  0 h,  0 min,  0.068 sec
 *  cpu-time:     0 d,  0 h,  0 min,  0.764 sec
 * ratio c/w:    11.186 speedup


-------------------------   --------------------
FINAL SINGLE POINT ENERGY       -39.181539421010
-------------------------   --------------------

------------------------------------------------------------------------------
                         ORCA GEOMETRY RELAXATION STEP
------------------------------------------------------------------------------

Reading the OPT-File                    .... done
Getting information on internals        .... done
Copying old internal coords+grads       .... done
Making the new internal coordinates     .... (new redundants).... done
Validating the new internal coordinates .... (new redundants).... done
Calculating the B-matrix                .... done
Calculating the G,G- and P matrices     .... done
Transforming gradient to internals      .... done
Projecting the internal gradient        .... done
Number of atoms                         ....  30
Number of internal coordinates          .... 372
Current Energy                          ....   -39.181539421 Eh
Current gradient norm                   ....     0.000550102 Eh/bohr
Maximum allowed component of the step   ....  0.300
Current trust radius                    ....  0.300
Evaluating the initial hessian          ....  (Almloef) done
Projecting the Hessian                  .... done
Forming the augmented Hessian           .... done
Diagonalizing the augmented Hessian     .... done
Last element of RFO vector              ....  0.999937706
Lowest eigenvalues of augmented Hessian:
 -0.000000628  0.000448391  0.001416934  0.002445035  0.003004575
Length of the computed step             ....  0.011162464
The final length of the internal step   ....  0.011162464
Converting the step to cartesian space:
 Initial RMS(Int)=    0.0005787468
Transforming coordinates:
 Iter   0:  RMS(Cart)=    0.0009372219 RMS(Int)=    0.0005786939
 Iter   1:  RMS(Cart)=    0.0000002894 RMS(Int)=    0.0000001296
 Iter   2:  RMS(Cart)=    0.0000000001 RMS(Int)=    0.0000000001
done
Storing new coordinates                 .... done

                                .--------------------.
          ----------------------|Geometry convergence|-------------------------
          Item                value                   Tolerance       Converged
          ---------------------------------------------------------------------
          RMS gradient        0.0000160887            0.0001000000      YES
          MAX gradient        0.0001482374            0.0003000000      YES
          RMS step            0.0005787468            0.0020000000      YES
          MAX step            0.0035016145            0.0040000000      YES
          ........................................................
          Max(Bonds)      0.0019      Max(Angles)    0.02
          Max(Dihed)        0.04      Max(Improp)    0.00
          ---------------------------------------------------------------------

                    ***********************HURRAY********************
                    ***        THE OPTIMIZATION HAS CONVERGED     ***
                    *************************************************


    ---------------------------------------------------------------------------
                         Redundant Internal Coordinates

                          --- Optimized Parameters ---  
                            (Angstroem and degrees)

        Definition                    OldVal   dE/dq     Step     FinalVal
    ----------------------------------------------------------------------------
     1. B(C   1,C   0)                1.3959  0.000004  0.0000    1.3959   
     2. B(C   2,C   1)                1.3973 -0.000004  0.0000    1.3973   
     3. B(C   3,C   2)                1.3806  0.000002 -0.0000    1.3806   
     4. B(C   4,C   3)                1.3874  0.000016 -0.0000    1.3874   
     5. B(C   5,C   4)                1.3875  0.000001  0.0000    1.3875   
     6. B(C   5,C   0)                1.3817  0.000006  0.0000    1.3817   
     7. B(H   6,C   0)                1.0799  0.000027 -0.0000    1.0799   
     8. B(H   7,C   2)                1.0805 -0.000025  0.0000    1.0806   
     9. B(H   8,C   4)                1.0801 -0.000013  0.0000    1.0801   
    10. B(C   9,C   1)                1.4594  0.000005 -0.0000    1.4594   
    11. B(H  10,C   9)                1.1063  0.000045 -0.0001    1.1062   
    12. B(O  11,C   9)                1.2133  0.000001 -0.0000    1.2132   
    13. B(N  12,C   9)                3.0933 -0.000008 -0.0010    3.0924   
    14. B(N  12,O  11)                3.4866  0.000006 -0.0011    3.4855   
    15. B(N  12,H  10)                3.1143 -0.000004 -0.0010    3.1133   
    16. B(N  12,C   1)                3.4180  0.000003 -0.0008    3.4172   
    17. B(N  12,H   6)                3.7566  0.000000 -0.0007    3.7559   
    18. B(H  13,H  10)                2.9849  0.000006 -0.0010    2.9839   
    19. B(H  13,O  11)                3.1212  0.000037 -0.0015    3.1197   
    20. B(H  13,C   9)                3.0112  0.000009 -0.0011    3.0101   
    21. B(H  13,C   1)                3.7368  0.000007 -0.0008    3.7360   
    22. B(H  13,N  12)                1.0145 -0.000038  0.0001    1.0145   
    23. B(C  15,C  14)                1.5267 -0.000000 -0.0000    1.5267   
    24. B(C  15,N  12)                1.4586  0.000009 -0.0000    1.4585   
    25. B(C  15,C   9)                3.5778  0.000007 -0.0009    3.5769   
    26. B(C  15,C   2)                3.7565  0.000015 -0.0007    3.7558   
    27. B(C  15,C   1)                3.5476  0.000014 -0.0009    3.5468   
    28. B(H  16,O  11)                3.0141 -0.000016 -0.0009    3.0133   
    29. B(H  16,H  10)                3.7026  0.000036 -0.0008    3.7018   
    30. B(H  16,C   9)                3.0195 -0.000010 -0.0008    3.0188   
    31. B(H  16,H   7)                2.8942 -0.000029 -0.0005    2.8937   
    32. B(H  16,C   2)                2.9770 -0.000022 -0.0006    2.9764   
    33. B(H  16,C   1)                3.0044 -0.000004 -0.0008    3.0036   
    34. B(H  16,C  15)                1.0938  0.000070 -0.0002    1.0936   
    35. B(H  17,C  15)                1.1036 -0.000029  0.0000    1.1036   
    36. B(H  18,C   0)                2.9331 -0.000008 -0.0013    2.9318   
    37. B(H  18,H   6)                3.4216  0.000006 -0.0014    3.4202   
    38. B(H  18,C   5)                3.0397 -0.000017 -0.0009    3.0388   
    39. B(H  18,C   4)                3.2467 -0.000026 -0.0004    3.2463   
    40. B(H  18,C   3)                3.3532 -0.000007 -0.0004    3.3528   
    41. B(H  18,C   2)                3.2574  0.000015 -0.0008    3.2566   
    42. B(H  18,C  14)                1.0910  0.000038 -0.0001    1.0909   
    43. B(H  18,C   1)                3.0463  0.000005 -0.0012    3.0452   
    44. B(H  19,C  14)                1.0930 -0.000077  0.0001    1.0931   
    45. B(H  20,N  12)                1.0157 -0.000068  0.0001    1.0158   
    46. B(C  21,C  14)                1.5260 -0.000004 -0.0000    1.5260   
    47. B(H  22,H   7)                3.4369  0.000005  0.0003    3.4372   
    48. B(H  22,C  21)                1.0918 -0.000119  0.0002    1.0920   
    49. B(H  22,C   3)                3.1931  0.000000  0.0001    3.1932   
    50. B(H  22,C   2)                3.3157 -0.000004  0.0001    3.3157   
    51. B(H  23,C  21)                1.0933  0.000148 -0.0002    1.0931   
    52. B(H  24,H  22)                3.2112  0.000008  0.0004    3.2116   
    53. B(H  24,C   3)                1.0798 -0.000041  0.0001    1.0799   
    54. B(H  25,H  18)                3.5874 -0.000001 -0.0009    3.5865   
    55. B(H  25,C   5)                1.0800  0.000030 -0.0000    1.0800   
    56. B(C  26,C  21)                1.5240 -0.000018  0.0000    1.5241   
    57. B(H  27,C  26)                1.0877 -0.000004  0.0000    1.0877   
    58. B(H  28,C  26)                1.0883  0.000095 -0.0001    1.0881   
    59. B(H  29,C  26)                1.0873 -0.000062  0.0001    1.0874   
    60. B(H  29,H   8)                3.2960  0.000011 -0.0017    3.2943   
    61. B(H  29,C   4)                3.3724  0.000020 -0.0019    3.3705   
    62. B(H  29,C   3)                3.6783 -0.000019 -0.0014    3.6769   
    63. A(C   1,C   0,H   6)          119.40 -0.000012    0.00    119.40   
    64. A(C   1,C   0,C   5)          120.03  0.000005   -0.00    120.03   
    65. A(C   5,C   0,H   6)          120.57  0.000007   -0.00    120.57   
    66. A(C   0,C   1,C   2)          119.50 -0.000001   -0.00    119.50   
    67. A(C   2,C   1,C  15)           87.53  0.000001    0.01     87.54   
    68. A(C   0,C   1,N  12)           93.35  0.000001    0.00     93.35   
    69. A(C   9,C   1,C  15)           79.34 -0.000002   -0.00     79.34   
    70. A(N  12,C   1,C  15)           24.08  0.000001    0.01     24.09   
    71. A(C   0,C   1,C   9)          120.12 -0.000002    0.00    120.13   
    72. A(C   9,C   1,N  12)           64.83 -0.000004   -0.01     64.81   
    73. A(C   2,C   1,C   9)          120.37  0.000002   -0.00    120.37   
    74. A(C   2,C   1,N  12)          111.35  0.000002    0.01    111.36   
    75. A(C   0,C   1,C  15)          102.92  0.000001   -0.00    102.92   
    76. A(C   1,C   2,C  15)           70.65  0.000000   -0.01     70.64   
    77. A(H   7,C   2,C  15)           88.28  0.000007    0.00     88.28   
    78. A(C   1,C   2,C   3)          120.22 -0.000001    0.00    120.22   
    79. A(C   3,C   2,C  15)          110.69 -0.000008    0.01    110.70   
    80. A(C   3,C   2,H   7)          121.21 -0.000006   -0.00    121.21   
    81. A(C   1,C   2,H   7)          118.57  0.000007   -0.00    118.57   
    82. A(C   2,C   3,H  24)          120.07  0.000006   -0.00    120.07   
    83. A(C   4,C   3,H  24)          120.04 -0.000010    0.00    120.05   
    84. A(C   2,C   3,C   4)          119.89  0.000004   -0.00    119.89   
    85. A(C   5,C   4,H   8)          119.87 -0.000001    0.00    119.87   
    86. A(C   3,C   4,H   8)          119.82  0.000007   -0.00    119.82   
    87. A(C   3,C   4,C   5)          120.31 -0.000006   -0.00    120.31   
    88. A(C   0,C   5,C   4)          120.05 -0.000002    0.00    120.05   
    89. A(C   0,C   5,H  25)          120.00 -0.000005    0.00    120.00   
    90. A(C   4,C   5,H  25)          119.95  0.000007   -0.00    119.95   
    91. A(C   1,C   9,H  10)          114.11  0.000001   -0.00    114.11   
    92. A(C   1,C   9,O  11)          125.73 -0.000001    0.00    125.73   
    93. A(O  11,C   9,N  12)           98.55  0.000006   -0.01     98.54   
    94. A(C   1,C   9,C  15)           77.02  0.000002   -0.00     77.02   
    95. A(H  10,C   9,N  12)           80.80 -0.000003   -0.00     80.80   
    96. A(C   1,C   9,N  12)           89.90  0.000003    0.01     89.90   
    97. A(H  10,C   9,O  11)          120.16 -0.000001    0.00    120.16   
    98. A(O  11,C   9,C  15)           89.80  0.000006   -0.01     89.79   
    99. A(H  10,C   9,C  15)          104.38 -0.000002    0.00    104.38   
   100. A(N  12,C   9,C  15)           23.87  0.000001    0.01     23.87   
   101. A(C   9,O  11,N  12)           61.32 -0.000006    0.00     61.33   
   102. A(C  15,N  12,H  20)          109.71 -0.000005    0.00    109.72   
   103. A(H  13,N  12,H  20)          107.46 -0.000016    0.02    107.48   
   104. A(C   1,N  12,H  20)          142.33  0.000004   -0.01    142.32   
   105. A(C   1,N  12,C  15)           82.95  0.000003   -0.01     82.94   
   106. A(C   1,N  12,H  13)          100.40  0.000012   -0.01    100.39   
   107. A(C   9,N  12,O  11)           20.13 -0.000001    0.01     20.13   
   108. A(O  11,N  12,C  15)           89.76  0.000005    0.00     89.76   
   109. A(O  11,N  12,H  13)           60.87  0.000012   -0.02     60.85   
   110. A(C   1,N  12,O  11)           40.33  0.000000    0.01     40.34   
   111. A(O  11,N  12,H  20)          160.26 -0.000000   -0.00    160.26   
   112. A(C   1,N  12,C   9)           25.28  0.000001    0.01     25.28   
   113. A(C   9,N  12,H  20)          149.18  0.000003   -0.01    149.18   
   114. A(C   9,N  12,C  15)           97.03  0.000004    0.00     97.03   
   115. A(C   9,N  12,H  13)           75.88  0.000010   -0.01     75.87   
   116. A(H  13,N  12,C  15)          110.09  0.000010   -0.01    110.08   
   117. A(H  18,C  14,C  21)          109.74 -0.000002    0.00    109.74   
   118. A(C  15,C  14,C  21)          112.15 -0.000019    0.01    112.16   
   119. A(H  18,C  14,H  19)          107.87 -0.000003   -0.00    107.86   
   120. A(C  15,C  14,H  19)          109.09 -0.000009    0.00    109.10   
   121. A(C  15,C  14,H  18)          108.25  0.000004   -0.00    108.24   
   122. A(H  19,C  14,C  21)          109.64  0.000030   -0.01    109.63   
   123. A(C   1,C  15,H  17)          158.80 -0.000003    0.01    158.81   
   124. A(C   1,C  15,H  16)           52.21  0.000004    0.00     52.21   
   125. A(C   1,C  15,C  14)           86.02  0.000001   -0.01     86.01   
   126. A(C   1,C  15,N  12)           72.97 -0.000004    0.00     72.97   
   127. A(H  16,C  15,H  17)          107.58 -0.000007    0.00    107.59   
   128. A(C  14,C  15,H  17)          109.49  0.000002    0.00    109.49   
   129. A(N  12,C  15,H  17)          112.83  0.000003    0.00    112.84   
   130. A(C  14,C  15,H  16)          109.63  0.000002    0.00    109.64   
   131. A(C   9,C  15,H  17)          141.26 -0.000002    0.01    141.26   
   132. A(C   2,C  15,C   9)           39.41 -0.000001    0.01     39.42   
   133. A(C   9,C  15,C  14)          108.54  0.000001   -0.01    108.54   
   134. A(C   9,C  15,N  12)           59.10 -0.000005   -0.01     59.10   
   135. A(N  12,C  15,H  16)          107.18 -0.000001   -0.01    107.18   
   136. A(C   1,C  15,C   9)           23.63  0.000000    0.01     23.64   
   137. A(N  12,C  15,C  14)          110.04  0.000000   -0.01    110.03   
   138. A(C   1,C  15,C   2)           21.82 -0.000001    0.00     21.82   
   139. A(C   2,C  15,H  17)          143.44 -0.000001   -0.00    143.43   
   140. A(C   2,C  15,H  16)           38.34  0.000005   -0.00     38.34   
   141. A(C   2,C  15,C  14)           81.09  0.000001   -0.00     81.08   
   142. A(C   2,C  15,N  12)           94.58 -0.000005    0.00     94.58   
   143. A(C   9,C  15,H  16)           51.43  0.000005    0.00     51.43   
   144. A(H  23,C  21,C  26)          109.51 -0.000008    0.00    109.51   
   145. A(H  22,C  21,C  26)          109.51 -0.000015    0.00    109.51   
   146. A(C  14,C  21,C  26)          111.72  0.000017   -0.01    111.71   
   147. A(H  22,C  21,H  23)          107.66 -0.000002    0.00    107.66   
   148. A(C  14,C  21,H  23)          109.40  0.000002   -0.00    109.40   
   149. A(C  14,C  21,H  22)          108.96  0.000005   -0.00    108.96   
   150. A(H  28,C  26,H  29)          108.36 -0.000003    0.00    108.36   
   151. A(H  27,C  26,H  29)          108.61  0.000016   -0.01    108.61   
   152. A(C  21,C  26,H  29)          110.31  0.000001   -0.00    110.30   
   153. A(H  27,C  26,H  28)          108.37 -0.000017    0.01    108.38   
   154. A(C  21,C  26,H  28)          110.56  0.000009    0.00    110.56   
   155. A(C  21,C  26,H  27)          110.57 -0.000006    0.00    110.57   
   156. D(N  12,C   1,C   0,H   6)     62.82  0.000001   -0.02     62.80   
   157. D(N  12,C   1,C   0,C   5)   -116.73  0.000005   -0.02   -116.75   
   158. D(C   9,C   1,C   0,C   5)   -179.42  0.000008   -0.01   -179.43   
   159. D(C   2,C   1,C   0,C   5)      0.15  0.000008   -0.01      0.15   
   160. D(C  15,C   1,C   0,C   5)    -94.38  0.000006   -0.01    -94.39   
   161. D(C   2,C   1,C   0,H   6)    179.70  0.000004   -0.00    179.70   
   162. D(C  15,C   1,C   0,H   6)     85.17  0.000002   -0.01     85.16   
   163. D(C   9,C   1,C   0,H   6)      0.12  0.000004   -0.00      0.12   
   164. D(H   7,C   2,C   1,C   9)     -0.73 -0.000008    0.00     -0.73   
   165. D(H   7,C   2,C   1,N  12)    -73.25 -0.000005    0.01    -73.24   
   166. D(C   3,C   2,C   1,C   9)    179.35 -0.000011    0.01    179.36   
   167. D(C   3,C   2,C   1,C  15)    103.23 -0.000009    0.01    103.24   
   168. D(H   7,C   2,C   1,C   0)    179.70 -0.000008   -0.00    179.70   
   169. D(C  15,C   2,C   1,C   0)   -103.45 -0.000002   -0.00   -103.46   
   170. D(H   7,C   2,C   1,C  15)    -76.85 -0.000006    0.00    -76.85   
   171. D(C  15,C   2,C   1,N  12)      3.60  0.000001    0.01      3.60   
   172. D(C   3,C   2,C   1,C   0)     -0.23 -0.000011    0.01     -0.22   
   173. D(C   3,C   2,C   1,N  12)    106.82 -0.000008    0.02    106.84   
   174. D(C  15,C   2,C   1,C   9)     76.12 -0.000002   -0.00     76.12   
   175. D(H  24,C   3,C   2,C   1)   -179.85  0.000011   -0.01   -179.85   
   176. D(H  24,C   3,C   2,C  15)   -100.79  0.000006   -0.01   -100.80   
   177. D(C   4,C   3,C   2,H   7)   -179.78 -0.000000    0.01   -179.77   
   178. D(C   4,C   3,C   2,C  15)     79.20 -0.000001   -0.00     79.19   
   179. D(H  24,C   3,C   2,H   7)      0.23  0.000007    0.00      0.23   
   180. D(C   4,C   3,C   2,C   1)      0.14  0.000003    0.00      0.14   
   181. D(H   8,C   4,C   3,C   2)    179.98  0.000005   -0.00    179.98   
   182. D(H   8,C   4,C   3,H  24)     -0.02 -0.000002    0.01     -0.02   
   183. D(C   5,C   4,C   3,C   2)      0.02  0.000009   -0.01      0.01   
   184. D(C   5,C   4,C   3,H  24)   -179.99  0.000001   -0.00   -179.99   
   185. D(C   4,C   5,C   0,C   1)      0.00  0.000004   -0.00      0.00   
   186. D(C   0,C   5,C   4,C   3)     -0.09 -0.000012    0.01     -0.08   
   187. D(C   4,C   5,C   0,H   6)   -179.53  0.000007   -0.01   -179.54   
   188. D(C   0,C   5,C   4,H   8)    179.94 -0.000009    0.00    179.94   
   189. D(H  25,C   5,C   4,C   3)   -179.94 -0.000008    0.01   -179.93   
   190. D(H  25,C   5,C   0,H   6)      0.32  0.000003   -0.01      0.31   
   191. D(H  25,C   5,C   0,C   1)    179.85 -0.000000   -0.00    179.85   
   192. D(H  25,C   5,C   4,H   8)      0.09 -0.000005    0.00      0.10   
   193. D(C  15,C   9,C   1,N  12)     20.28  0.000000    0.00     20.28   
   194. D(C  15,C   9,C   1,C   2)    -80.73  0.000000   -0.01    -80.73   
   195. D(N  12,C   9,C   1,C  15)    -20.28 -0.000000   -0.00    -20.28   
   196. D(N  12,C   9,C   1,C   2)   -101.00  0.000000   -0.01   -101.01   
   197. D(C  15,C   9,C   1,C   0)     98.85  0.000000   -0.00     98.84   
   198. D(H  10,C   9,C   1,C   0)     -1.30  0.000001   -0.00     -1.30   
   199. D(H  10,C   9,C   1,C   2)    179.13  0.000002   -0.01    179.12   
   200. D(O  11,C   9,C   1,C   0)    179.05  0.000010   -0.02    179.03   
   201. D(H  10,C   9,C   1,N  12)    -79.87  0.000001    0.00    -79.87   
   202. D(H  10,C   9,C   1,C  15)   -100.14  0.000001    0.00   -100.14   
   203. D(O  11,C   9,C   1,N  12)    100.47  0.000010   -0.01    100.46   
   204. D(O  11,C   9,C   1,C  15)     80.20  0.000010   -0.01     80.19   
   205. D(O  11,C   9,C   1,C   2)     -0.53  0.000010   -0.02     -0.55   
   206. D(N  12,C   9,C   1,C   0)     78.57  0.000000   -0.01     78.57   
   207. D(N  12,O  11,C   9,C  15)    -22.29 -0.000001   -0.01    -22.29   
   208. D(N  12,O  11,C   9,H  10)     84.28  0.000001   -0.01     84.27   
   209. D(N  12,O  11,C   9,C   1)    -96.08 -0.000008    0.00    -96.08   
   210. D(C  15,N  12,C   1,C   2)     -8.83 -0.000001   -0.02     -8.85   
   211. D(H  13,N  12,C   1,C   2)    100.38  0.000009   -0.03    100.36   
   212. D(H  13,N  12,C   1,C   0)   -136.08  0.000009   -0.02   -136.10   
   213. D(H  13,N  12,C   1,C   9)    -14.21  0.000007   -0.02    -14.22   
   214. D(H  13,N  12,C   1,C  15)    109.22  0.000010   -0.01    109.21   
   215. D(C  15,N  12,C   1,C   9)   -123.42 -0.000002   -0.01   -123.43   
   216. D(H  20,N  12,C   1,C   0)      1.38  0.000002   -0.01      1.37   
   217. D(H  20,N  12,C   1,C   2)   -122.16  0.000002   -0.01   -122.17   
   218. D(C  15,N  12,C   1,C   0)    114.71 -0.000001   -0.01    114.69   
   219. D(H  20,N  12,O  11,C   9)    -77.61 -0.000012   -0.01    -77.62   
   220. D(O  11,N  12,C   1,C   9)    -25.42  0.000001   -0.00    -25.42   
   221. D(O  11,N  12,C   9,H  10)   -119.36  0.000002   -0.00   -119.36   
   222. D(O  11,N  12,C   9,C   1)    126.17  0.000000    0.00    126.17   
   223. D(C   1,N  12,C   9,H  10)    114.47  0.000001   -0.00    114.46   
   224. D(H  20,N  12,C   9,H  10)     20.55 -0.000005   -0.00     20.55   
   225. D(H  20,N  12,C   9,C   1)    -93.91 -0.000006   -0.00    -93.92   
   226. D(C  15,N  12,C   9,H  10)    171.04 -0.000000   -0.01    171.03   
   227. D(C  15,N  12,C   9,C   1)     56.57 -0.000001   -0.01     56.56   
   228. D(H  13,N  12,C   9,C  15)    109.01  0.000010   -0.01    109.01   
   229. D(H  20,N  12,C   9,C  15)   -150.49 -0.000005    0.01   -150.48   
   230. D(H  13,N  12,C   9,O  11)     39.42  0.000008   -0.02     39.40   
   231. D(H  13,N  12,C   9,H  10)    -79.95  0.000010   -0.02    -79.97   
   232. D(C   1,N  12,C   9,C  15)    -56.57  0.000001    0.01    -56.56   
   233. D(C  15,N  12,C   9,O  11)    -69.60 -0.000002   -0.01    -69.61   
   234. D(H  13,N  12,C   9,C   1)    165.59  0.000009   -0.02    165.57   
   235. D(O  11,N  12,C   9,C  15)     69.60  0.000002    0.01     69.61   
   236. D(O  11,N  12,C   1,C  15)     98.01  0.000004    0.01     98.01   
   237. D(C   1,N  12,C   9,O  11)   -126.17 -0.000000   -0.00   -126.17   
   238. D(C  15,N  12,O  11,C   9)    111.53 -0.000000   -0.01    111.52   
   239. D(O  11,N  12,C   1,C   2)     89.17  0.000002   -0.01     89.16   
   240. D(O  11,N  12,C   1,C   0)   -147.29  0.000003   -0.01   -147.29   
   241. D(C   9,N  12,C   1,C  15)    123.42  0.000002    0.01    123.43   
   242. D(C   1,N  12,O  11,C   9)     32.18  0.000001   -0.00     32.18   
   243. D(H  13,N  12,O  11,C   9)   -135.18  0.000006   -0.01   -135.19   
   244. D(C   9,N  12,C   1,C   2)    114.59  0.000001   -0.01    114.58   
   245. D(C   9,N  12,C   1,C   0)   -121.87  0.000002   -0.01   -121.87   
   246. D(H  20,N  12,C   1,C  15)   -113.33  0.000003    0.01   -113.32   
   247. D(H  20,N  12,C   1,C   9)    123.25  0.000000   -0.00    123.25   
   248. D(H  20,N  12,C   9,O  11)    139.91 -0.000007   -0.00    139.91   
   249. D(H  17,C  15,C   2,H   7)    -26.30  0.000009   -0.03    -26.33   
   250. D(H  17,C  15,C   2,C   3)     96.57  0.000004   -0.03     96.54   
   251. D(H  17,C  15,C   2,C   1)   -147.48  0.000004   -0.03   -147.51   
   252. D(H  16,C  15,C   2,C   3)    124.04 -0.000005    0.00    124.04   
   253. D(H  16,C  15,C   2,C   1)   -120.01 -0.000004   -0.00   -120.01   
   254. D(C  14,C  15,C   2,H   7)   -137.12  0.000004   -0.02   -137.14   
   255. D(C  14,C  15,C   2,C   1)    101.70  0.000000   -0.02    101.68   
   256. D(N  12,C  15,C   2,H   7)    113.29  0.000003   -0.02    113.27   
   257. D(N  12,C  15,C   2,C   3)   -123.84 -0.000001   -0.01   -123.85   
   258. D(N  12,C  15,C   2,C   1)     -7.89 -0.000001   -0.02     -7.91   
   259. D(C   9,C  15,C   1,N  12)    -50.23  0.000004    0.01    -50.22   
   260. D(C   9,C  15,C   1,C   2)    121.54  0.000002   -0.00    121.54   
   261. D(C   9,C  15,C   1,C   0)   -118.73  0.000002   -0.00   -118.74   
   262. D(C   2,C  15,C   1,N  12)   -171.77  0.000001    0.02   -171.75   
   263. D(C   2,C  15,C   1,C   9)   -121.54 -0.000002    0.00   -121.54   
   264. D(C   2,C  15,C   1,C   0)    119.72 -0.000000   -0.00    119.72   
   265. D(H  17,C  15,C   1,N  12)   -109.43  0.000003   -0.02   -109.45   
   266. D(H  17,C  15,C   1,C   9)    -59.20 -0.000000   -0.03    -59.24   
   267. D(H  17,C  15,C   1,C   2)     62.34  0.000002   -0.04     62.30   
   268. D(H  17,C  15,C   1,C   0)   -177.94  0.000002   -0.04   -177.97   
   269. D(H  16,C  15,C   1,N  12)   -128.94  0.000001    0.01   -128.93   
   270. D(H  16,C  15,C   1,C   9)    -78.71 -0.000003   -0.00    -78.71   
   271. D(H  16,C  15,C   1,C   2)     42.83 -0.000000   -0.01     42.82   
   272. D(H  16,C  15,C   1,C   0)    162.55 -0.000000   -0.01    162.55   
   273. D(C  14,C  15,C   2,C   3)    -14.25 -0.000000   -0.02    -14.27   
   274. D(C  14,C  15,C   1,N  12)    112.36  0.000001   -0.00    112.36   
   275. D(C  14,C  15,C   1,C   9)    162.59 -0.000003   -0.02    162.58   
   276. D(C   2,C  15,C  14,C  21)     81.19 -0.000019    0.02     81.21   
   277. D(H  16,C  15,C   2,H   7)      1.17 -0.000000   -0.00      1.17   
   278. D(C  14,C  15,C   1,C   2)    -75.87 -0.000000   -0.02    -75.89   
   279. D(C   2,C  15,C  14,H  19)   -157.14 -0.000000    0.01   -157.13   
   280. D(C   2,C  15,C  14,H  18)    -40.02 -0.000007    0.01    -40.01   
   281. D(C   1,C  15,C   2,C   3)   -115.95 -0.000001    0.00   -115.94   
   282. D(C  14,C  15,C   1,C   0)     43.86 -0.000001   -0.02     43.84   
   283. D(C   1,C  15,C  14,C  21)    102.59 -0.000020    0.02    102.61   
   284. D(C   1,C  15,C  14,H  19)   -135.75 -0.000002    0.02   -135.73   
   285. D(N  12,C  15,C   1,C   9)     50.23 -0.000004   -0.01     50.22   
   286. D(N  12,C  15,C   1,C   2)    171.77 -0.000001   -0.02    171.75   
   287. D(H  17,C  15,C  14,H  18)    176.18 -0.000007    0.02    176.20   
   288. D(N  12,C  15,C   1,C   0)    -68.50 -0.000001   -0.02    -68.52   
   289. D(H  16,C  15,C  14,H  19)    176.86 -0.000006    0.03    176.89   
   290. D(H  16,C  15,C  14,H  18)    -66.01 -0.000012    0.02    -65.99   
   291. D(N  12,C  15,C  14,C  21)    172.84 -0.000024    0.02    172.86   
   292. D(N  12,C  15,C  14,H  18)     51.63 -0.000012    0.02     51.65   
   293. D(C   9,C  15,N  12,O  11)    -18.82  0.000000   -0.01    -18.82   
   294. D(C   9,C  15,N  12,C   1)     21.04  0.000000    0.00     21.05   
   295. D(C   9,C  15,N  12,H  20)    164.45  0.000004   -0.01    164.44   
   296. D(C   9,C  15,N  12,H  13)    -77.49 -0.000013    0.01    -77.48   
   297. D(C   2,C  15,N  12,O  11)    -36.80  0.000000   -0.00    -36.80   
   298. D(C   2,C  15,N  12,C   9)    -17.98  0.000000    0.00    -17.98   
   299. D(C   2,C  15,N  12,H  20)    146.47  0.000004   -0.00    146.46   
   300. D(C   2,C  15,N  12,H  13)    -95.48 -0.000013    0.02    -95.46   
   301. D(C   1,C  15,N  12,O  11)    -39.86  0.000000   -0.01    -39.87   
   302. D(C   1,C  15,N  12,H  20)    143.41  0.000004   -0.01    143.40   
   303. D(C   1,C  15,N  12,H  13)    -98.54 -0.000013    0.01    -98.53   
   304. D(H  17,C  15,N  12,O  11)    118.43 -0.000003   -0.00    118.43   
   305. D(H  17,C  15,N  12,C   1)    158.29 -0.000004    0.01    158.30   
   306. D(H  17,C  15,N  12,H  20)    -58.31  0.000001    0.00    -58.31   
[...]
     30      -0.001359   0.001364   0.001394  -0.000623   0.000021   0.000140
     31       0.002485  -0.004027  -0.001663   0.005298  -0.001247   0.001538
     32      -0.000900   0.001509   0.000594  -0.001997   0.000482  -0.000380
     33       0.000114   0.000299   0.000012  -0.000397  -0.000029  -0.000110
     34       0.000088   0.000111  -0.000084  -0.000083  -0.000030  -0.000002
     35      -0.000046  -0.000050   0.000040   0.000033   0.000005   0.000066
     36       0.000056   0.000024  -0.000074   0.000061  -0.010931   0.068029
     37       0.000078   0.000004  -0.000123  -0.000013   0.051347   0.018060
     38      -0.000008   0.000046   0.000006   0.000036   0.016527   0.035791
     39       0.000079  -0.000573  -0.000273  -0.000824   0.486608  -0.804574
     40      -0.000022   0.000074   0.000014  -0.000008  -0.062019   0.157982
     41       0.000100  -0.000296  -0.000204  -0.000460   0.176283  -0.245314
     42      -0.000013   0.000026  -0.000283   0.000152   0.000211   0.000022
     43      -0.000032  -0.000049   0.000074  -0.000009   0.000096  -0.000099
     44      -0.000050  -0.000057   0.000568  -0.000216   0.000054   0.000089
     45       0.000099   0.000125  -0.000072  -0.000026  -0.000694   0.002024
     46       0.000194   0.000140  -0.000138  -0.000142   0.002267   0.001081
     47       0.000157   0.000033  -0.000111  -0.000128   0.001927   0.000686
     48      -0.001029  -0.000607   0.000637   0.000885  -0.004443  -0.003203
     49      -0.003378  -0.002402   0.002626   0.002062  -0.007972  -0.003881
     50      -0.002825  -0.001990   0.001871   0.001185  -0.009026  -0.006214
     51      -0.000072  -0.000334  -0.000116  -0.000213   0.001481  -0.000886
     52       0.000451   0.000458  -0.000277  -0.000055  -0.004673   0.000693
     53       0.000648   0.001078  -0.000294   0.000163   0.000335  -0.000156
     54       0.000027  -0.000841   0.004452  -0.002376   0.001097  -0.002755
     55      -0.000158   0.000571   0.000375  -0.000166   0.000168   0.001108
     56       0.000414   0.000381  -0.007093   0.002480  -0.000527   0.003925
     57       0.000313   0.000216  -0.000644   0.000027  -0.001082  -0.003394
     58       0.000459   0.000460  -0.001066   0.000047  -0.000813  -0.003507
     59       0.000411   0.000294  -0.000688   0.000015  -0.000962  -0.004393
     60      -0.000417   0.000100   0.000759   0.000042  -0.325734  -0.156161
     61      -0.000616   0.000072   0.001091  -0.000056  -0.665553  -0.414417
     62      -0.000336   0.000039   0.000576   0.000115  -0.419512  -0.254983
     63       0.000003   0.000093  -0.000154  -0.000080  -0.000018   0.000113
     64       0.000025   0.000134  -0.000158  -0.000121   0.000006   0.000053
     65       0.000042   0.000121  -0.000010  -0.000071   0.000014   0.000019
     66      -0.000638  -0.001314   0.000936   0.000601   0.000024  -0.000097
     67      -0.000110  -0.001968   0.002390   0.002031  -0.000785  -0.000886
     68      -0.000326  -0.002050   0.002690   0.001804  -0.000218  -0.000334
     69       0.000196   0.000021   0.000651   0.000361  -0.000171  -0.000101
     70      -0.000011   0.000121  -0.000484  -0.000277  -0.000086  -0.000040
     71      -0.000379   0.000283  -0.001501  -0.000954   0.000445   0.000335
     72      -0.016115   0.006326  -0.023766  -0.023185  -0.000005  -0.000057
     73      -0.380193   0.131451  -0.526777  -0.489289  -0.000667   0.000385
     74       0.137203  -0.047396   0.190064   0.176511   0.000226  -0.000137
     75      -0.433629   0.119943  -0.440749   0.446907   0.000025  -0.000740
     76      -0.211137   0.058125  -0.214889   0.219386  -0.000011  -0.000280
     77       0.070889  -0.019526   0.072108  -0.073646  -0.000006   0.000110
     78      -0.000067   0.000354  -0.000114   0.000219  -0.000015   0.000009
     79       0.000138  -0.000011   0.000354   0.000121   0.000016   0.000013
     80       0.000144  -0.000393   0.000269  -0.000247  -0.000013   0.000001
     81       0.000019   0.000156   0.000073   0.000191   0.000041   0.000203
     82      -0.001168   0.000716  -0.002715  -0.000834  -0.000200  -0.000640
     83       0.000822  -0.000643   0.001873   0.000296   0.000122   0.000364
     84      -0.000352  -0.000198  -0.001157  -0.000417   0.000008  -0.000326
     85      -0.000773  -0.000957  -0.002118  -0.001123  -0.000043  -0.000314
     86      -0.000674  -0.001080  -0.001926  -0.001333  -0.000004  -0.000451
     87       0.001402  -0.004027   0.002574  -0.002263   0.000119  -0.000251
     88       0.000243   0.000405   0.000475   0.000440  -0.000014   0.000148
     89      -0.001812   0.006821  -0.003426   0.004092  -0.000074   0.000275


-----------
IR SPECTRUM  
-----------

 Mode    freq (cm**-1)   T**2         TX         TY         TZ
-------------------------------------------------------------------
   6:         5.61    0.000000  (  0.000000   0.000000   0.000000)
   7:        11.97    0.000000  (  0.000000   0.000000   0.000000)
   8:        25.76    0.000000  (  0.000000   0.000000   0.000000)
   9:        33.61    0.000000  (  0.000000   0.000000   0.000000)
  10:        49.77    0.000000  (  0.000000   0.000000   0.000000)
  11:        60.84    0.000000  (  0.000000   0.000000   0.000000)
  12:       110.05    0.000000  (  0.000000   0.000000   0.000000)
  13:       114.80    0.000000  (  0.000000   0.000000   0.000000)
  14:       136.48    0.000000  (  0.000000   0.000000   0.000000)
  15:       185.04    0.000000  (  0.000000   0.000000   0.000000)
  16:       208.42    0.000000  (  0.000000   0.000000   0.000000)
  17:       214.11    0.000000  (  0.000000   0.000000   0.000000)
  18:       231.88    0.000000  (  0.000000   0.000000   0.000000)
  19:       284.90    0.000000  (  0.000000   0.000000   0.000000)
  20:       366.46    0.000000  (  0.000000   0.000000   0.000000)
  21:       397.85    0.000000  (  0.000000   0.000000   0.000000)
  22:       417.06    0.000000  (  0.000000   0.000000   0.000000)
  23:       426.43    0.000000  (  0.000000   0.000000   0.000000)
  24:       435.37    0.000000  (  0.000000   0.000000   0.000000)
  25:       585.69    0.000000  (  0.000000   0.000000   0.000000)
  26:       625.66    0.000000  (  0.000000   0.000000   0.000000)
  27:       654.75    0.000000  (  0.000000   0.000000   0.000000)
  28:       736.42    0.000000  (  0.000000   0.000000   0.000000)
  29:       775.35    0.000000  (  0.000000   0.000000   0.000000)
  30:       828.28    0.000000  (  0.000000   0.000000   0.000000)
  31:       830.83    0.000000  (  0.000000   0.000000   0.000000)
  32:       869.49    0.000000  (  0.000000   0.000000   0.000000)
  33:       903.71    0.000000  (  0.000000   0.000000   0.000000)
  34:       917.12    0.000000  (  0.000000   0.000000   0.000000)
  35:       922.82    0.000000  (  0.000000   0.000000   0.000000)
  36:       930.48    0.000000  (  0.000000   0.000000   0.000000)
  37:       933.26    0.000000  (  0.000000   0.000000   0.000000)
  38:       937.42    0.000000  (  0.000000   0.000000   0.000000)
  39:       971.45    0.000000  (  0.000000   0.000000   0.000000)
  40:       987.64    0.000000  (  0.000000   0.000000   0.000000)
  41:      1008.42    0.000000  (  0.000000   0.000000   0.000000)
  42:      1074.27    0.000000  (  0.000000   0.000000   0.000000)
  43:      1075.09    0.000000  (  0.000000   0.000000   0.000000)
  44:      1109.76    0.000000  (  0.000000   0.000000   0.000000)
  45:      1116.20    0.000000  (  0.000000   0.000000   0.000000)
  46:      1124.58    0.000000  (  0.000000   0.000000   0.000000)
  47:      1150.31    0.000000  (  0.000000   0.000000   0.000000)
  48:      1178.25    0.000000  (  0.000000   0.000000   0.000000)
  49:      1180.65    0.000000  (  0.000000   0.000000   0.000000)
  50:      1203.54    0.000000  (  0.000000   0.000000   0.000000)
  51:      1228.13    0.000000  (  0.000000   0.000000   0.000000)
  52:      1237.61    0.000000  (  0.000000   0.000000   0.000000)
  53:      1270.02    0.000000  (  0.000000   0.000000   0.000000)
  54:      1275.55    0.000000  (  0.000000   0.000000   0.000000)
  55:      1282.23    0.000000  (  0.000000   0.000000   0.000000)
  56:      1292.28    0.000000  (  0.000000   0.000000   0.000000)
  57:      1325.68    0.000000  (  0.000000   0.000000   0.000000)
  58:      1355.32    0.000000  (  0.000000   0.000000   0.000000)
  59:      1378.63    0.000000  (  0.000000   0.000000   0.000000)
  60:      1379.24    0.000000  (  0.000000   0.000000   0.000000)
  61:      1412.03    0.000000  (  0.000000   0.000000   0.000000)
  62:      1437.21    0.000000  (  0.000000   0.000000   0.000000)
  63:      1458.10    0.000000  (  0.000000   0.000000   0.000000)
  64:      1491.47    0.000000  (  0.000000   0.000000   0.000000)
  65:      1492.38    0.000000  (  0.000000   0.000000   0.000000)
  66:      1496.75    0.000000  (  0.000000   0.000000   0.000000)
  67:      1499.12    0.000000  (  0.000000   0.000000   0.000000)
  68:      1503.47    0.000000  (  0.000000   0.000000   0.000000)
  69:      1559.02    0.000000  (  0.000000   0.000000   0.000000)
  70:      1576.90    0.000000  (  0.000000   0.000000   0.000000)
  71:      1586.47    0.000000  (  0.000000   0.000000   0.000000)
  72:      1695.36    0.000000  (  0.000000   0.000000   0.000000)
  73:      2777.66    0.000000  (  0.000000   0.000000   0.000000)
  74:      2816.14    0.000000  (  0.000000   0.000000   0.000000)
  75:      2955.83    0.000000  (  0.000000   0.000000   0.000000)
  76:      2962.43    0.000000  (  0.000000   0.000000   0.000000)
  77:      2967.49    0.000000  (  0.000000   0.000000   0.000000)
  78:      2981.50    0.000000  (  0.000000   0.000000   0.000000)
  79:      2999.36    0.000000  (  0.000000   0.000000   0.000000)
  80:      3026.51    0.000000  (  0.000000   0.000000   0.000000)
  81:      3030.93    0.000000  (  0.000000   0.000000   0.000000)
  82:      3037.40    0.000000  (  0.000000   0.000000   0.000000)
  83:      3077.77    0.000000  (  0.000000   0.000000   0.000000)
  84:      3079.60    0.000000  (  0.000000   0.000000   0.000000)
  85:      3084.22    0.000000  (  0.000000   0.000000   0.000000)
  86:      3090.15    0.000000  (  0.000000   0.000000   0.000000)
  87:      3096.48    0.000000  (  0.000000   0.000000   0.000000)
  88:      3376.91    0.000000  (  0.000000   0.000000   0.000000)
  89:      3410.66    0.000000  (  0.000000   0.000000   0.000000)

The first frequency considered to be a vibration is 6
The total number of vibrations considered is 84


--------------------------
THERMOCHEMISTRY AT 298.15K
--------------------------

Temperature         ... 298.15 K
Pressure            ... 1.00 atm
Total Mass          ... 179.26 AMU

Throughout the following assumptions are being made:
  (1) The electronic state is orbitally nondegenerate
  (2) There are no thermally accessible electronically excited states
  (3) Hindered rotations indicated by low frequency modes are not
      treated as such but are treated as vibrations and this may
      cause some error
  (4) All equations used are the standard statistical mechanics
      equations for an ideal gas
  (5) All vibrations are strictly harmonic

freq.       5.61  E(vib)   ...       0.58 
freq.      11.97  E(vib)   ...       0.58 
freq.      25.76  E(vib)   ...       0.56 
freq.      33.61  E(vib)   ...       0.55 
freq.      49.77  E(vib)   ...       0.52 
freq.      60.84  E(vib)   ...       0.51 
freq.     110.05  E(vib)   ...       0.45 
freq.     114.80  E(vib)   ...       0.44 
freq.     136.48  E(vib)   ...       0.42 
freq.     185.04  E(vib)   ...       0.37 
freq.     208.42  E(vib)   ...       0.34 
freq.     214.11  E(vib)   ...       0.34 
freq.     231.88  E(vib)   ...       0.32 
freq.     284.90  E(vib)   ...       0.28 
freq.     366.46  E(vib)   ...       0.22 
freq.     397.85  E(vib)   ...       0.20 
freq.     417.06  E(vib)   ...       0.18 
freq.     426.43  E(vib)   ...       0.18 
freq.     435.37  E(vib)   ...       0.17 
freq.     585.69  E(vib)   ...       0.11 
freq.     625.66  E(vib)   ...       0.09 
freq.     654.75  E(vib)   ...       0.08 
freq.     736.42  E(vib)   ...       0.06 
freq.     775.35  E(vib)   ...       0.05 
freq.     828.28  E(vib)   ...       0.04 
freq.     830.83  E(vib)   ...       0.04 
freq.     869.49  E(vib)   ...       0.04 
freq.     903.71  E(vib)   ...       0.03 
freq.     917.12  E(vib)   ...       0.03 
freq.     922.82  E(vib)   ...       0.03 
freq.     930.48  E(vib)   ...       0.03 
freq.     933.26  E(vib)   ...       0.03 
freq.     937.42  E(vib)   ...       0.03 
freq.     971.45  E(vib)   ...       0.03 
freq.     987.64  E(vib)   ...       0.02 
freq.    1008.42  E(vib)   ...       0.02 
freq.    1074.27  E(vib)   ...       0.02 
freq.    1075.09  E(vib)   ...       0.02 
freq.    1109.76  E(vib)   ...       0.02 
freq.    1116.20  E(vib)   ...       0.01 
freq.    1124.58  E(vib)   ...       0.01 
freq.    1150.31  E(vib)   ...       0.01 
freq.    1178.25  E(vib)   ...       0.01 
freq.    1180.65  E(vib)   ...       0.01 
freq.    1203.54  E(vib)   ...       0.01 
freq.    1228.13  E(vib)   ...       0.01 
freq.    1237.61  E(vib)   ...       0.01 
freq.    1270.02  E(vib)   ...       0.01 
freq.    1275.55  E(vib)   ...       0.01 
freq.    1282.23  E(vib)   ...       0.01 
freq.    1292.28  E(vib)   ...       0.01 
freq.    1325.68  E(vib)   ...       0.01 
freq.    1355.32  E(vib)   ...       0.01 
freq.    1378.63  E(vib)   ...       0.01 
freq.    1379.24  E(vib)   ...       0.01 
freq.    1412.03  E(vib)   ...       0.00 
freq.    1437.21  E(vib)   ...       0.00 
freq.    1458.10  E(vib)   ...       0.00 
freq.    1491.47  E(vib)   ...       0.00 
freq.    1492.38  E(vib)   ...       0.00 
freq.    1496.75  E(vib)   ...       0.00 
freq.    1499.12  E(vib)   ...       0.00 
freq.    1503.47  E(vib)   ...       0.00 
freq.    1559.02  E(vib)   ...       0.00 
freq.    1576.90  E(vib)   ...       0.00 
freq.    1586.47  E(vib)   ...       0.00 
freq.    1695.36  E(vib)   ...       0.00 
freq.    2777.66  E(vib)   ...       0.00 
freq.    2816.14  E(vib)   ...       0.00 
freq.    2955.83  E(vib)   ...       0.00 
freq.    2962.43  E(vib)   ...       0.00 
freq.    2967.49  E(vib)   ...       0.00 
freq.    2981.50  E(vib)   ...       0.00 
freq.    2999.36  E(vib)   ...       0.00 
freq.    3026.51  E(vib)   ...       0.00 
freq.    3030.93  E(vib)   ...       0.00 
freq.    3037.40  E(vib)   ...       0.00 
freq.    3077.77  E(vib)   ...       0.00 
freq.    3079.60  E(vib)   ...       0.00 
freq.    3084.22  E(vib)   ...       0.00 
freq.    3090.15  E(vib)   ...       0.00 
freq.    3096.48  E(vib)   ...       0.00 
freq.    3376.91  E(vib)   ...       0.00 
freq.    3410.66  E(vib)   ...       0.00 

------------
INNER ENERGY
------------

The inner energy is: U= E(el) + E(ZPE) + E(vib) + E(rot) + E(trans)
    E(el)   - is the total energy from the electronic structure calculation
              = E(kin-el) + E(nuc-el) + E(el-el) + E(nuc-nuc)
    E(ZPE)  - the the zero temperature vibrational energy from the frequency calculation
    E(vib)  - the the finite temperature correction to E(ZPE) due to population
              of excited vibrational states
    E(rot)  - is the rotational thermal energy
    E(trans)- is the translational thermal energy

Summary of contributions to the inner energy U:
Electronic energy                ...    -39.18153990 Eh
Zero point energy                ...      0.25367822 Eh     159.19 kcal/mol
Thermal vibrational correction   ...      0.01308743 Eh       8.21 kcal/mol
Thermal rotational correction    ...      0.00141627 Eh       0.89 kcal/mol
Thermal translational correction ...      0.00141627 Eh       0.89 kcal/mol
-----------------------------------------------------------------------
Total thermal energy                    -38.91194170 Eh


Summary of corrections to the electronic energy:
(perhaps to be used in another calculation)
Total thermal correction                  0.01591997 Eh       9.99 kcal/mol
Non-thermal (ZPE) correction              0.25367822 Eh     159.19 kcal/mol
-----------------------------------------------------------------------
Total correction                          0.26959820 Eh     169.18 kcal/mol


--------
ENTHALPY
--------

The enthalpy is H = U + kB*T
                kB is Boltzmann's constant
Total free energy                 ...    -38.91194170 Eh 
Thermal Enthalpy correction       ...      0.00094421 Eh       0.59 kcal/mol
-----------------------------------------------------------------------
Total Enthalpy                    ...    -38.91099749 Eh


Note: Only C1 symmetry has been detected, increase convergence thresholds 
      if your molecule has a higher symmetry. Symmetry factor of 1.0 is   
      used for the rotational entropy correction. 
 

Note: Rotational entropy computed according to Herzberg 
Infrared and Raman Spectra, Chapter V,1, Van Nostrand Reinhold, 1945 
Point Group:  C1, Symmetry Number:   1  
Rotational constants in cm-1:     0.027138     0.021425     0.014895 

Vibrational entropy computed according to the QRRHO of S. Grimme
Chem.Eur.J. 2012 18 9955


-------
ENTROPY
-------

The entropy contributions are T*S = T*(S(el)+S(vib)+S(rot)+S(trans))
     S(el)   - electronic entropy
     S(vib)  - vibrational entropy
     S(rot)  - rotational entropy
     S(trans)- translational entropy
The entropies will be listed as mutliplied by the temperature to get
units of energy

Electronic entropy                ...      0.00000000 Eh      0.00 kcal/mol
Vibrational entropy               ...      0.02540289 Eh     15.94 kcal/mol
Rotational entropy                ...      0.01501385 Eh      9.42 kcal/mol
Translational entropy             ...      0.01969790 Eh     12.36 kcal/mol
-----------------------------------------------------------------------
Final entropy term                ...      0.06011464 Eh     37.72 kcal/mol

In case the symmetry of your molecule has not been determined correctly
or in case you have a reason to use a different symmetry number we print 
out the resulting rotational entropy values for sn=1,12 :
 --------------------------------------------------------
|  sn= 1 | S(rot)=       0.01501385 Eh      9.42 kcal/mol|
|  sn= 2 | S(rot)=       0.01435939 Eh      9.01 kcal/mol|
|  sn= 3 | S(rot)=       0.01397656 Eh      8.77 kcal/mol|
|  sn= 4 | S(rot)=       0.01370493 Eh      8.60 kcal/mol|
|  sn= 5 | S(rot)=       0.01349425 Eh      8.47 kcal/mol|
|  sn= 6 | S(rot)=       0.01332210 Eh      8.36 kcal/mol|
|  sn= 7 | S(rot)=       0.01317656 Eh      8.27 kcal/mol|
|  sn= 8 | S(rot)=       0.01305048 Eh      8.19 kcal/mol|
|  sn= 9 | S(rot)=       0.01293927 Eh      8.12 kcal/mol|
|  sn=10 | S(rot)=       0.01283979 Eh      8.06 kcal/mol|
|  sn=11 | S(rot)=       0.01274980 Eh      8.00 kcal/mol|
|  sn=12 | S(rot)=       0.01266765 Eh      7.95 kcal/mol|
 --------------------------------------------------------


-------------------
GIBBS FREE ENERGY
-------------------

The Gibbs free energy is G = H - T*S

Total enthalpy                    ...    -38.91099749 Eh 
Total entropy correction          ...     -0.06011464 Eh    -37.72 kcal/mol
-----------------------------------------------------------------------
Final Gibbs free energy         ...    -38.97111213 Eh

For completeness - the Gibbs free energy minus the electronic energy
G-E(el)                           ...      0.21042777 Eh    132.05 kcal/mol


Total Time for Numerical Frequencies  :        65.041 sec

Timings for individual modules:

Sum of individual times         ...        0.949 sec (=   0.016 min)
Geometry relaxation             ...        0.623 sec (=   0.010 min)  65.7 %
XTB module                      ...        0.326 sec (=   0.005 min)  34.3 %
                             ****ORCA TERMINATED NORMALLY****
TOTAL RUN TIME: 0 days 0 hours 1 minutes 7 seconds 20 msec
