
                                 *****************
                                 * O   R   C   A *
                                 *****************

           --- An Ab Initio, DFT and Semiempirical electronic structure package ---

                  #######################################################
                  #                        -***-                        #
                  #          Department of theory and spectroscopy      #
                  #               Directorship: Frank Neese             #
                  #        Max Planck Institute fuer Kohlenforschung    #
                  #                Kaiser Wilhelm Platz 1               #
                  #                 D-45470 Muelheim/Ruhr               #
                  #                      Germany                        #
                  #                                                     #
                  #                  All rights reserved                #
                  #                        -***-                        #
                  #######################################################


                         Program Version 4.2.1 -  RELEASE  -


 With contributions from (in alphabetic order):
   Daniel Aravena         : Magnetic Suceptibility
   Michael Atanasov       : Ab Initio Ligand Field Theory (pilot matlab implementation)
   Alexander A. Auer      : GIAO ZORA, VPT2
   Ute Becker             : Parallelization
   Giovanni Bistoni       : ED, misc. LED, open-shell LED, HFLD
   Martin Brehm           : Molecular dynamics
   Dmytro Bykov           : SCF Hessian
   Vijay G. Chilkuri      : MRCI spin determinant printing, contributions to CSF-ICE
   Dipayan Datta          : RHF DLPNO-CCSD density
   Achintya Kumar Dutta   : EOM-CC, STEOM-CC
   Dmitry Ganyushin       : Spin-Orbit,Spin-Spin,Magnetic field MRCI
   Miquel Garcia          : C-PCM Hessian, Gaussian charge scheme
   Yang Guo               : DLPNO-NEVPT2, CIM, IAO-localization
   Andreas Hansen         : Spin unrestricted coupled pair/coupled cluster methods
   Benjamin Helmich-Paris : CASSCF linear response (MC-RPA)
   Lee Huntington         : MR-EOM, pCC
   Robert Izsak           : Overlap fitted RIJCOSX, COSX-SCS-MP3, EOM
   Christian Kollmar      : KDIIS, OOCD, Brueckner-CCSD(T), CCSD density
   Simone Kossmann        : Meta GGA functionals, TD-DFT gradient, OOMP2, MP2 Hessian
   Martin Krupicka        : AUTO-CI
   Lucas Lang             : DCDCAS
   Dagmar Lenk            : GEPOL surface, SMD
   Dimitrios Liakos       : Extrapolation schemes; Compound Job, initial MDCI parallelization
   Dimitrios Manganas     : Further ROCIS development; embedding schemes
   Dimitrios Pantazis     : SARC Basis sets
   Taras Petrenko         : DFT Hessian,TD-DFT gradient, ASA, ECA, R-Raman, ABS, FL, XAS/XES, NRVS
   Peter Pinski           : DLPNO-MP2, DLPNO-MP2 Gradient
   Christoph Reimann      : Effective Core Potentials
   Marius Retegan         : Local ZFS, SOC
   Christoph Riplinger    : Optimizer, TS searches, QM/MM, DLPNO-CCSD(T), (RO)-DLPNO pert. Triples
   Tobias Risthaus        : Range-separated hybrids, TD-DFT gradient, RPA, STAB
   Michael Roemelt        : Original ROCIS implementation
   Masaaki Saitow         : Open-shell DLPNO-CCSD energy and density
   Barbara Sandhoefer     : DKH picture change effects
   Avijit Sen             : IP-ROCIS
   Kantharuban Sivalingam : CASSCF convergence, NEVPT2, FIC-MRCI
   Bernardo de Souza      : ESD, SOC TD-DFT
   Georgi Stoychev        : AutoAux, RI-MP2 NMR
   Willem Van den Heuvel  : Paramagnetic NMR
   Boris Wezisla          : Elementary symmetry handling
   Frank Wennmohs         : Technical directorship


 We gratefully acknowledge several colleagues who have allowed us to
 interface, adapt or use parts of their codes:
   Stefan Grimme, W. Hujo, H. Kruse,             : VdW corrections, initial TS optimization,
                  C. Bannwarth                     DFT functionals, gCP, sTDA/sTD-DF
   Ed Valeev, F. Pavosevic, A. Kumar             : LibInt (2-el integral package), F12 methods
   Garnet Chan, S. Sharma, J. Yang, R. Olivares  : DMRG
   Ulf Ekstrom                                   : XCFun DFT Library
   Mihaly Kallay                                 : mrcc  (arbitrary order and MRCC methods)
   Andreas Klamt, Michael Diedenhofen            : otool_cosmo (COSMO solvation model)
   Jiri Pittner, Ondrej Demel                    : Mk-CCSD
   Frank Weinhold                                : gennbo (NPA and NBO analysis)
   Christopher J. Cramer and Donald G. Truhlar   : smd solvation model
   Lars Goerigk                                  : TD-DFT with DH, B97 family of functionals
   V. Asgeirsson, H. Jonsson                     : NEB implementation
   FAccTs GmbH                                   : IRC, NEB, NEB-TS, Multilevel, MM, QM/MM, CI optimization
   S Lehtola, MJT Oliveira, MAL Marques          : LibXC Library


 Your calculation uses the libint2 library for the computation of 2-el integrals
 For citations please refer to: http://libint.valeyev.net

 Your ORCA version has been built with support for libXC version: 4.2.3
 For citations please refer to: https://tddft.org/programs/libxc/

 This ORCA versions uses:
   CBLAS   interface :  Fast vector & matrix operations
   LAPACKE interface :  Fast linear algebra routines
   SCALAPACK package :  Parallel linear algebra routines




***************************************
The coordinates will be read from file: init.xyz
***************************************


Your calculation utilizes the SMD solvation module
Please cite in your paper:
A.V. Marenich, C.J. Cramer, D.G. Truhlar J. Phys. Chem. B, 113, (2009), 6378 

Your calculation utilizes the semiempirical GFN2-xTB method
Please cite in your paper:
C. Bannwarth, Ehlert S., S. Grimme,  J. Chem. Theory Comput., 15, (2019), 1652.
   

----- Orbital basis set information -----
Your calculation utilizes the basis: def2-SVP
   F. Weigend and R. Ahlrichs, Phys. Chem. Chem. Phys. 7, 3297 (2005).

================================================================================
                                        WARNINGS
                       Please study these warnings very carefully!
================================================================================


WARNING: The environment variable RSH_COMMAND is not set!
  ===> : All Displacements for the Numerical Hessian calculation
         will be started on localhost

WARNING: Geometry Optimization
  ===> : Switching off AutoStart
         For restart on a previous wavefunction, please use MOREAD

WARNING: Found dipole moment calculation with XTB calculation
  ===> : Switching off dipole moment calculation


INFO   : the flag for use of LIBINT has been found!

================================================================================
                                       INPUT FILE
================================================================================
NAME = opt+freq.inp
|  1> ! XTB2 Opt NumFreq
|  2> 
|  3> %cpcm
|  4>  smd true
|  5>  smdsolvent "ch2cl2"
|  6> end
|  7> 
|  8> %pal
|  9>  nprocs 12
| 10> end
| 11> 
| 12> *xyzfile 0 1 init.xyz
| 13> 
| 14> 
| 15>                          ****END OF INPUT****
================================================================================

                       *****************************
                       * Geometry Optimization Run *
                       *****************************

Geometry optimization settings:
Update method            Update   .... BFGS
Choice of coordinates    CoordSys .... Z-matrix Internals
Initial Hessian          InHess   .... Almoef's Model

Convergence Tolerances:
Energy Change            TolE     ....  5.0000e-06 Eh
Max. Gradient            TolMAXG  ....  3.0000e-04 Eh/bohr
RMS Gradient             TolRMSG  ....  1.0000e-04 Eh/bohr
Max. Displacement        TolMAXD  ....  4.0000e-03 bohr
RMS Displacement         TolRMSD  ....  2.0000e-03 bohr
Strict Convergence                ....  False
------------------------------------------------------------------------------
                        ORCA OPTIMIZATION COORDINATE SETUP
------------------------------------------------------------------------------

The optimization will be done in new redundant internal coordinates
Making redundant internal coordinates   ...  (new redundants) done
Evaluating the initial hessian          ...  (Almloef) done
Evaluating the coordinates              ...  done
Calculating the B-matrix                .... done
Calculating the G-matrix                .... done
Diagonalizing the G-matrix              .... done
Small eigenvalue found = 5.865e-03
Small eigenvalue found = 1.154e-02
Small eigenvalue found = 2.307e-02
The first mode is                       ....  288
The number of degrees of freedom        ....  132

    -----------------------------------------------------------------
                    Redundant Internal Coordinates


    -----------------------------------------------------------------
         Definition                    Initial Value    Approx d2E/dq
    -----------------------------------------------------------------
      1. B(C   1,C   0)                  1.3885         0.628295   
      2. B(C   2,C   1)                  1.3961         0.610852   
      3. B(C   3,C   2)                  1.3981         0.606496   
      4. B(C   4,C   3)                  1.3859         0.634279   
      5. B(C   5,C   4)                  1.3948         0.613867   
      6. B(C   5,C   0)                  1.3919         0.620435   
      7. B(H   6,C   1)                  1.0827         0.369861   
      8. B(H   7,C   3)                  1.0816         0.371410   
      9. B(H   8,C   5)                  1.0822         0.370574   
     10. B(H  10,N   9)                  1.0186         0.419174   
     11. B(C  11,N   9)                  1.4663         0.422829   
     12. B(H  12,C  11)                  1.0996         0.347634   
     13. B(H  13,C  11)                  1.0926         0.356641   
     14. B(H  14,N   9)                  1.0145         0.425554   
     15. B(H  15,H   7)                  2.4328         0.000497   
     16. B(H  15,C   3)                  2.9434         0.000398   
     17. B(H  15,H  10)                  2.3698         0.000626   
     18. B(C  16,C   2)                  1.4743         0.458402   
     19. B(C  16,H  15)                  2.8259         0.000612   
     20. B(H  17,H  13)                  2.7924         0.000133   
     21. B(H  17,C  16)                  1.1018         0.344836   
     22. B(O  18,H  15)                  2.2790         0.004088   
     23. B(O  18,H  13)                  2.7232         0.000800   
     24. B(O  18,C  16)                  1.2175         1.054552   
     25. B(C  19,C  11)                  1.5245         0.381198   
     26. B(H  20,H  17)                  2.6271         0.000243   
     27. B(H  20,C  19)                  1.0945         0.354207   
     28. B(H  21,C  19)                  1.0961         0.352161   
     29. B(C  22,C  19)                  1.5280         0.376397   
     30. B(H  23,C  22)                  1.0943         0.354486   
     31. B(H  24,C  22)                  1.0944         0.354387   
     32. B(H  25,C   4)                  1.0819         0.370937   
     33. B(H  26,C   0)                  1.0817         0.371190   
     34. B(H  29,C  28)                  1.0935         0.355456   
     35. B(H  30,C  28)                  1.0928         0.356450   
     36. B(H  30,H  13)                  2.5933         0.000275   
     37. B(H  30,H  10)                  2.8022         0.000128   
     38. B(C  31,C  28)                  1.5293         0.374497   
     39. B(H  32,C  31)                  1.0956         0.352757   
     40. B(H  33,C  31)                  1.0950         0.353527   
     41. B(C  34,C  31)                  1.5283         0.375901   
     42. B(H  35,C  34)                  1.0944         0.354282   
     43. B(H  36,C  34)                  1.0943         0.354409   
     44. B(N  37,H  10)                  2.2017         0.005432   
     45. B(N  37,C  28)                  1.4679         0.420300   
     46. B(N  37,H  27)                  1.0146         0.425487   
     47. B(N  37,H  15)                  1.0151         0.424702   
     48. B(C  38,C  34)                  1.5272         0.377424   
     49. B(H  39,C  38)                  1.0919         0.357551   
     50. B(H  40,C  38)                  1.0927         0.356497   
     51. B(H  41,C  38)                  1.0927         0.356484   
     52. B(C  42,C  22)                  1.5270         0.377757   
     53. B(H  43,C  42)                  1.0918         0.357678   
     54. B(H  44,C  42)                  1.0927         0.356529   
     55. B(H  45,C  42)                  1.0928         0.356426   
     56. A(C   5,C   0,H  26)          120.1196         0.354769   
     57. A(C   1,C   0,H  26)          120.1285         0.355528   
     58. A(C   1,C   0,C   5)          119.7519         0.435161   
     59. A(C   0,C   1,C   2)          120.1791         0.433943   
     60. A(C   2,C   1,H   6)          119.4104         0.353620   
     61. A(C   0,C   1,H   6)          120.4069         0.355311   
     62. A(C   1,C   2,C  16)          119.1593         0.410187   
     63. A(C   1,C   2,C   3)          119.8250         0.431197   
     64. A(C   3,C   2,C  16)          121.0156         0.409667   
     65. A(H   7,C   3,H  15)           52.0581         0.132527   
     66. A(C   4,C   3,H   7)          120.8202         0.356136   
     67. A(C   4,C   3,H  15)          135.3134         0.145808   
     68. A(C   2,C   3,H   7)          119.2112         0.353441   
     69. A(C   2,C   3,C   4)          119.9675         0.434125   
     70. A(C   2,C   3,H  15)           84.3411         0.145235   
     71. A(C   3,C   4,H  25)          120.0896         0.356059   
     72. A(C   3,C   4,C   5)          119.9712         0.435069   
     73. A(C   5,C   4,H  25)          119.9391         0.354089   
     74. A(C   4,C   5,H   8)          119.8338         0.354030   
     75. A(C   0,C   5,C   4)          120.3051         0.433345   
     76. A(C   0,C   5,H   8)          119.8610         0.354669   
     77. A(C   3,H   7,H  15)          107.4173         0.125603   
     78. A(H  10,N   9,C  11)          110.0661         0.334518   
     79. A(H  10,N   9,H  14)          107.2082         0.300921   
     80. A(C  11,N   9,H  14)          110.0230         0.335359   
     81. A(N   9,H  10,H  15)          137.6487         0.128180   
     82. A(N   9,H  10,H  30)          119.3336         0.116349   
     83. A(H  30,H  10,N  37)           47.2540         0.099227   
     84. A(H  15,H  10,N  37)           25.3152         0.103651   
     85. A(N   9,H  10,N  37)          159.9416         0.167974   
     86. A(H  15,H  10,H  30)           54.2827         0.094074   
     87. A(N   9,C  11,H  12)          112.9664         0.327111   
     88. A(N   9,C  11,C  19)          111.3393         0.370111   
     89. A(H  12,C  11,C  19)          108.9645         0.323519   
     90. A(N   9,C  11,H  13)          107.5137         0.328493   
     91. A(H  13,C  11,C  19)          109.3461         0.324881   
     92. A(H  12,C  11,H  13)          106.5430         0.288799   
     93. A(H  17,H  13,H  30)          120.4124         0.093248   
     94. A(C  11,H  13,H  30)          106.8684         0.120739   
     95. A(C  11,H  13,O  18)          129.4504         0.138930   
     96. A(H  17,H  13,O  18)           42.8183         0.095682   
     97. A(C  11,H  13,H  17)           99.2481         0.115895   
     98. A(O  18,H  13,H  30)           80.6996         0.096886   
     99. A(C   3,H  15,O  18)           65.8367         0.104504   
    100. A(C   3,H  15,C  16)           51.3189         0.099207   
    101. A(C  16,H  15,O  18)           24.7515         0.106096   
    102. A(C  16,H  15,N  37)          138.8129         0.137899   
    103. A(H  10,H  15,C  16)           70.7743         0.098045   
    104. A(H   7,H  15,H  10)          116.2418         0.095898   
    105. A(C   3,H  15,H  10)           95.9167         0.097202   
    106. A(H  10,H  15,O  18)           86.2639         0.102738   
    107. A(H   7,H  15,O  18)           67.1548         0.102037   
    108. A(O  18,H  15,N  37)          148.1100         0.163276   
    109. A(H   7,H  15,C  16)           61.3631         0.097583   
    110. A(C   3,H  15,H   7)           20.5246         0.096784   
    111. A(H   7,H  15,N  37)          140.7619         0.126291   
    112. A(C   3,H  15,N  37)          132.8763         0.133346   
    113. A(H  10,H  15,N  37)           68.0411         0.128296   
    114. A(H  17,C  16,O  18)          120.4953         0.381293   
    115. A(C   2,C  16,O  18)          124.5442         0.449447   
    116. A(C   2,C  16,H  17)          114.9417         0.333069   
    117. A(H  15,C  16,O  18)           51.6024         0.158701   
    118. A(H  15,C  16,H  17)          138.0028         0.136197   
    119. A(C   2,C  16,H  15)           87.5772         0.147202   
    120. A(H  13,H  17,H  20)           54.4347         0.093130   
    121. A(C  16,H  17,H  20)          138.0389         0.119624   
    122. A(H  13,H  17,C  16)           87.2022         0.115691   
    123. A(H  13,O  18,H  15)           81.1667         0.106948   
    124. A(H  13,O  18,C  16)           88.3837         0.162178   
    125. A(H  15,O  18,C  16)          103.6461         0.194874   
    126. A(H  20,C  19,C  22)          109.7169         0.323841   
    127. A(C  11,C  19,C  22)          113.2438         0.365079   
    128. A(C  11,C  19,H  20)          108.8295         0.324516   
    129. A(C  11,C  19,H  21)          109.0916         0.324207   
    130. A(H  20,C  19,H  21)          106.3543         0.289075   
    131. A(H  21,C  19,C  22)          109.3705         0.323534   
    132. A(H  17,H  20,C  19)          124.0883         0.119810   
    133. A(H  23,C  22,H  24)          106.2458         0.289396   
    134. A(H  24,C  22,C  42)          109.4390         0.324060   
    135. A(H  23,C  22,C  42)          109.4655         0.324075   
    136. A(C  19,C  22,H  24)          109.1230         0.323868   
    137. A(C  19,C  22,C  42)          113.0221         0.364513   
    138. A(C  19,C  22,H  23)          109.3193         0.323883   
    139. A(C  31,C  28,N  37)          115.2625         0.368606   
    140. A(H  30,C  28,N  37)          107.7033         0.328139   
    141. A(H  29,C  28,N  37)          108.1606         0.327988   
    142. A(H  30,C  28,C  31)          109.2705         0.323908   
    143. A(H  29,C  28,C  31)          109.5974         0.323759   
    144. A(H  29,C  28,H  30)          106.4774         0.289784   
    145. A(H  13,H  30,C  28)          137.5975         0.120735   
    146. A(H  10,H  30,C  28)           90.0668         0.115675   
    147. A(H  10,H  30,H  13)           51.3780         0.093213   
    148. A(H  33,C  31,C  34)          109.5224         0.323669   
    149. A(H  32,C  31,C  34)          109.6298         0.323553   
    150. A(C  28,C  31,C  34)          113.2742         0.363891   
    151. A(H  32,C  31,H  33)          106.5458         0.289065   
    152. A(C  28,C  31,H  33)          108.6531         0.323471   
    153. A(C  28,C  31,H  32)          108.9898         0.323355   
    154. A(H  36,C  34,C  38)          109.4781         0.324017   
    155. A(C  31,C  34,C  38)          113.0693         0.364375   
    156. A(H  35,C  34,H  36)          106.2508         0.289373   
    157. A(C  31,C  34,H  36)          109.0973         0.323802   
    158. A(C  31,C  34,H  35)          109.2465         0.323783   
    159. A(H  35,C  34,C  38)          109.4701         0.323997   
    160. A(H  10,N  37,C  28)          108.5022         0.180683   
    161. A(H  10,N  37,H  27)          131.6647         0.168241   
    162. A(H  10,N  37,H  15)           86.6437         0.168208   
    163. A(H  27,N  37,C  28)          110.0538         0.335016   
    164. A(H  15,N  37,C  28)          109.2807         0.334913   
    165. A(H  15,N  37,H  27)          106.6235         0.301542   
    166. A(H  39,C  38,H  40)          107.6788         0.290057   
    167. A(C  34,C  38,H  40)          111.1087         0.324329   
    168. A(C  34,C  38,H  39)          111.5196         0.324486   
    169. A(H  40,C  38,H  41)          107.5591         0.289921   
    170. A(H  39,C  38,H  41)          107.7232         0.290055   
    171. A(C  34,C  38,H  41)          111.0690         0.324327   
    172. A(H  44,C  42,H  45)          107.5309         0.289918   
    173. A(H  43,C  42,H  45)          107.6858         0.290064   
    174. A(C  22,C  42,H  45)          111.1357         0.324366   
    175. A(H  43,C  42,H  44)          107.6801         0.290077   
    176. A(C  22,C  42,H  44)          111.1064         0.324381   
    177. A(C  22,C  42,H  43)          111.5158         0.324552   
    178. D(C   2,C   1,C   0,H  26)    179.8293         0.027361   
    179. D(H   6,C   1,C   0,C   5)   -179.3839         0.027361   
    180. D(C   2,C   1,C   0,C   5)     -0.0715         0.027361   
    181. D(H   6,C   1,C   0,H  26)      0.5170         0.027361   
    182. D(C   3,C   2,C   1,C   0)      0.1510         0.025775   
    183. D(C  16,C   2,C   1,C   0)    179.9903         0.025775   
    184. D(C  16,C   2,C   1,H   6)     -0.6906         0.025775   
    185. D(C   3,C   2,C   1,H   6)    179.4701         0.025775   
    186. D(H  15,C   3,C   2,C   1)   -140.2590         0.027582   
    187. D(H  15,C   3,C   2,C  16)     39.9047         0.027582   
    188. D(H   7,C   3,C   2,C   1)    179.4972         0.027582   
    189. D(H   7,C   3,C   2,C  16)     -0.3390         0.027582   
    190. D(C   4,C   3,C   2,C   1)     -0.1231         0.027582   
    191. D(C   4,C   3,C   2,C  16)   -179.9594         0.027582   
    192. D(C   5,C   4,C   3,H  15)    114.9192         0.030345   
    193. D(C   5,C   4,C   3,H   7)   -179.5977         0.030345   
    194. D(H  25,C   4,C   3,H  15)    -65.2110         0.030345   
    195. D(H  25,C   4,C   3,C   2)    179.8862         0.030345   
    196. D(H  25,C   4,C   3,H   7)      0.2721         0.030345   
    197. D(C   5,C   4,C   3,C   2)      0.0164         0.030345   
    198. D(C   0,C   5,C   4,H  25)   -179.8065         0.026045   
    199. D(H   8,C   5,C   4,C   3)    179.9906         0.026045   
    200. D(C   4,C   5,C   0,H  26)   -179.9368         0.026639   
    201. D(C   0,C   5,C   4,C   3)      0.0635         0.026045   
    202. D(H   8,C   5,C   0,C   1)   -179.9629         0.026639   
    203. D(H   8,C   5,C   0,H  26)      0.1362         0.026639   
    204. D(H   8,C   5,C   4,H  25)      0.1205         0.026045   
    205. D(C   4,C   5,C   0,C   1)     -0.0359         0.026639   
    206. D(H  15,H   7,C   3,C   4)   -125.7762         0.130988   
    207. D(H  15,H   7,C   3,C   2)     54.6068         0.130988   
    208. D(H  15,H  10,N   9,C  11)    -74.7796         0.241404   
    209. D(N  37,H  10,N   9,H  14)   -169.6444         0.241404   
    210. D(N  37,H  10,N   9,C  11)    -49.9919         0.241404   
    211. D(H  30,H  10,N   9,H  14)   -126.6148         0.241404   
    212. D(H  30,H  10,N   9,C  11)     -6.9623         0.241404   
    213. D(H  15,H  10,N   9,H  14)    165.5680         0.241404   
    214. D(C  19,C  11,N   9,H  10)    176.4465         0.015244   
    215. D(C  19,C  11,N   9,H  14)    -65.6267         0.015244   
    216. D(H  13,C  11,N   9,H  14)    174.6226         0.015244   
    217. D(H  12,C  11,N   9,H  10)    -60.5630         0.015244   
    218. D(H  13,C  11,N   9,H  10)     56.6958         0.015244   
    219. D(H  12,C  11,N   9,H  14)     57.3638         0.015244   
    220. D(H  30,H  13,C  11,H  12)     45.1660         0.139525   
    221. D(H  30,H  13,C  11,C  19)    162.7851         0.139525   
    222. D(H  30,H  13,C  11,N   9)    -76.2037         0.139525   
    223. D(O  18,H  13,C  11,N   9)     15.5621         0.139525   
    224. D(O  18,H  13,C  11,C  19)   -105.4492         0.139525   
    225. D(H  17,H  13,C  11,C  19)    -71.3893         0.139525   
    226. D(H  17,H  13,C  11,H  12)    170.9916         0.139525   
    227. D(O  18,H  13,C  11,H  12)    136.9318         0.139525   
    228. D(H  17,H  13,C  11,N   9)     49.6219         0.139525   
    229. D(O  18,H  15,C   3,C   4)   -173.0824         0.001500   
    230. D(O  18,H  15,C   3,H   7)     89.1245         0.001500   
    231. D(O  18,H  15,C   3,C   2)    -45.2315         0.001500   
    232. D(C  16,H  15,C   3,H   7)    112.7983         0.001500   
    233. D(C  16,H  15,C   3,C   4)   -149.4085         0.001500   
    234. D(H  10,H  15,C   3,C   2)     37.9746         0.001500   
    235. D(C  16,H  15,C   3,C   2)    -21.5577         0.001500   
    236. D(H   7,H  15,C   3,C   2)   -134.3560         0.001500   
    237. D(H   7,H  15,C   3,C   4)     97.7932         0.001500   
    238. D(N  37,H  15,C   3,H   7)   -122.3011         0.001500   
    239. D(N  37,H  15,C   3,C   2)    103.3429         0.001500   
    240. D(N  37,H  15,C   3,C   4)    -24.5080         0.001500   
    241. D(O  18,H  15,H  10,N  37)   -160.6926         0.001505   
    242. D(O  18,H  15,H  10,H  30)    -96.4789         0.001505   
    243. D(O  18,H  15,H  10,N   9)     -0.3434         0.001505   
    244. D(C  16,H  15,H  10,N  37)    179.5355         0.001505   
    245. D(C  16,H  15,H  10,N   9)    -20.1152         0.001505   
    246. D(H   7,H  15,H  10,H  30)   -158.7060         0.001505   
    247. D(H   7,H  15,H  10,N  37)    137.0803         0.001505   
    248. D(H   7,H  15,H  10,N   9)    -62.5705         0.001505   
    249. D(C   3,H  15,H  10,N  37)    134.0899         0.001505   
    250. D(C   3,H  15,H  10,H  30)   -161.6963         0.001505   
    251. D(C   3,H  15,H  10,N   9)    -65.5608         0.001505   
    252. D(N  37,H  15,H  10,H  30)     64.2137         0.001505   
    253. D(C  16,H  15,H  10,H  30)   -116.2507         0.001505   
    254. D(N  37,H  15,H  10,N   9)    160.3492         0.001505   
    255. D(H  10,H  15,H   7,C   3)     -8.5110         0.001503   
    256. D(O  18,H  15,H   7,C   3)    -81.8615         0.001503   
    257. D(C  16,H  15,H   7,C   3)    -55.0798         0.001503   
    258. D(N  37,H  15,H   7,C   3)     78.3085         0.001503   
    259. D(H  10,H  15,C   3,H   7)    172.3306         0.001500   
    260. D(H  10,H  15,C   3,C   4)    -89.8762         0.001500   
    261. D(O  18,C  16,H  15,H  10)    126.2704         0.001500   
    262. D(O  18,C  16,H  15,H   7)    -97.3462         0.001500   
    263. D(O  18,C  16,H  15,C   3)   -118.9549         0.001500   
    264. D(O  18,C  16,H  15,N  37)    126.9245         0.001500   
    265. D(H  17,C  16,H  15,H  10)     31.2521         0.001500   
    266. D(H  17,C  16,H  15,O  18)    -95.0183         0.001500   
    267. D(H  17,C  16,H  15,H   7)    167.6355         0.001500   
    268. D(H  17,C  16,H  15,C   3)    146.0268         0.001500   
    269. D(H  17,C  16,H  15,N  37)     31.9062         0.001500   
    270. D(C   2,C  16,H  15,H  10)    -94.4673         0.001500   
    271. D(C   2,C  16,H  15,O  18)    139.2623         0.001500   
    272. D(C   2,C  16,H  15,H   7)     41.9161         0.001500   
    273. D(C   2,C  16,H  15,C   3)     20.3074         0.001500   
    274. D(C   2,C  16,H  15,N  37)    -93.8132         0.001500   
    275. D(H  15,C  16,C   2,C   3)    -41.7237         0.015493   
    276. D(H  15,C  16,C   2,C   1)    138.4390         0.015493   
    277. D(H  17,C  16,C   2,C   1)     -4.7553         0.015493   
    278. D(O  18,C  16,C   2,C   3)     -3.3396         0.015493   
    279. D(O  18,C  16,C   2,C   1)    176.8231         0.015493   
    280. D(H  17,C  16,C   2,C   3)    175.0820         0.015493   
    281. D(H  20,H  17,C  16,H  15)     -4.5978         0.119251   
    282. D(H  20,H  17,C  16,O  18)    -69.5628         0.119251   
    283. D(H  20,H  17,C  16,C   2)    111.9461         0.119251   
    284. D(H  13,H  17,C  16,H  15)     17.6923         0.119251   
    285. D(H  20,H  17,H  13,O  18)   -173.5605         0.001500   
    286. D(C  16,H  17,H  13,O  18)     24.6053         0.001500   
    287. D(C  16,H  17,H  13,H  30)     -0.0003         0.001500   
    288. D(C  16,H  17,H  13,C  11)   -115.8798         0.001500   
    289. D(H  20,H  17,H  13,H  30)    161.8340         0.001500   
    290. D(H  13,H  17,C  16,C   2)    134.2362         0.119251   
    291. D(H  13,H  17,C  16,O  18)    -47.2726         0.119251   
    292. D(H  20,H  17,H  13,C  11)     45.9544         0.001500   
    293. D(H  13,O  18,H  15,N  37)      0.9501         0.001512   
    294. D(C  16,O  18,H  15,H  10)    -49.7197         0.001512   
    295. D(C  16,O  18,H  15,H   7)     70.8329         0.001512   
    296. D(C  16,O  18,H  15,C   3)     48.4739         0.001512   
    297. D(C  16,O  18,H  15,N  37)    -85.2023         0.001512   
    298. D(H  15,O  18,H  13,H  17)   -126.1941         0.001500   
    299. D(H  15,O  18,H  13,C  11)    -71.7747         0.001500   
    300. D(C  16,O  18,H  13,H  30)    136.5460         0.001500   
    301. D(C  16,O  18,H  13,C  11)     32.3029         0.001500   
    302. D(C  16,O  18,H  13,H  17)    -22.1165         0.001500   
    303. D(H  13,O  18,H  15,C   3)    134.6264         0.001512   
    304. D(H  15,O  18,H  13,H  30)     32.4684         0.001500   
    305. D(H  13,O  18,C  16,H  17)     48.8213         0.111899   
    306. D(H  13,O  18,C  16,C   2)   -132.8397         0.111899   
    307. D(H  15,O  18,C  16,H  17)    129.3279         0.111899   
    308. D(H  15,O  18,C  16,C   2)    -52.3331         0.111899   
    309. D(H  13,O  18,H  15,H  10)     36.4327         0.001512   
    310. D(H  13,O  18,H  15,C  16)     86.1525         0.001512   
    311. D(H  13,O  18,C  16,H  15)    -80.5066         0.111899   
    312. D(H  13,O  18,H  15,H   7)    156.9853         0.001512   
    313. D(C  22,C  19,C  11,H  13)    -59.8120         0.011578   
    314. D(C  22,C  19,C  11,H  12)     56.2756         0.011578   
    315. D(C  22,C  19,C  11,N   9)   -178.4703         0.011578   
    316. D(H  21,C  19,C  11,H  13)    178.1391         0.011578   
    317. D(H  21,C  19,C  11,H  12)    -65.7733         0.011578   
    318. D(H  21,C  19,C  11,N   9)     59.4808         0.011578   
    319. D(H  20,C  19,C  11,H  13)     62.4911         0.011578   
    320. D(H  20,C  19,C  11,H  12)    178.5788         0.011578   
    321. D(H  20,C  19,C  11,N   9)    -56.1671         0.011578   
    322. D(H  17,H  20,C  19,C  22)    115.3702         0.116692   
    323. D(H  17,H  20,C  19,H  21)   -126.4424         0.116692   
    324. D(H  17,H  20,C  19,C  11)     -9.0416         0.116692   
    325. D(C  19,H  20,H  17,H  13)    -15.2706         0.001501   
    326. D(C  19,H  20,H  17,C  16)     12.4865         0.001501   
    327. D(C  42,C  22,C  19,H  21)    -58.6990         0.011303   
    328. D(C  42,C  22,C  19,H  20)     57.6004         0.011303   
    329. D(C  42,C  22,C  19,C  11)    179.4080         0.011303   
    330. D(H  24,C  22,C  19,H  21)    179.2916         0.011303   
    331. D(H  24,C  22,C  19,H  20)    -64.4091         0.011303   
    332. D(H  24,C  22,C  19,C  11)     57.3985         0.011303   
    333. D(H  23,C  22,C  19,H  21)     63.4858         0.011303   
    334. D(H  23,C  22,C  19,H  20)    179.7852         0.011303   
    335. D(H  23,C  22,C  19,C  11)    -58.4072         0.011303   
    336. D(H  13,H  30,C  28,N  37)     -1.8979         0.129241   
    337. D(H  13,H  30,C  28,H  29)   -117.7215         0.129241   
    338. D(H  10,H  30,C  28,N  37)     20.5320         0.129241   
    339. D(H  10,H  30,C  28,C  31)    146.4176         0.129241   
    340. D(H  10,H  30,H  13,O  18)    -79.8568         0.001501   
    341. D(H  10,H  30,H  13,H  17)    -63.1924         0.001501   
    342. D(H  10,H  30,H  13,C  11)     48.6909         0.001501   
    343. D(C  28,H  30,H  13,O  18)    -50.6235         0.001501   
    344. D(C  28,H  30,H  13,H  17)    -33.9590         0.001501   
    345. D(C  28,H  30,H  13,C  11)     77.9243         0.001501   
    346. D(H  13,H  30,H  10,N  37)    143.1138         0.001500   
    347. D(H  10,H  30,C  28,H  29)    -95.2917         0.129241   
    348. D(H  13,H  30,H  10,H  15)    111.4936         0.001500   
    349. D(H  13,H  30,H  10,N   9)    -18.3023         0.001500   
    350. D(C  28,H  30,H  10,N  37)    -17.6585         0.001500   
    351. D(H  13,H  30,C  28,C  31)    123.9877         0.129241   
    352. D(C  28,H  30,H  10,H  15)    -49.2786         0.001500   
    353. D(C  28,H  30,H  10,N   9)   -179.0746         0.001500   
    354. D(C  34,C  31,C  28,N  37)    178.8484         0.011196   
    355. D(C  34,C  31,C  28,H  30)     57.4365         0.011196   
    356. D(C  34,C  31,C  28,H  29)    -58.8860         0.011196   
    357. D(H  33,C  31,C  28,N  37)     56.9007         0.011196   
    358. D(H  33,C  31,C  28,H  30)    -64.5112         0.011196   
    359. D(H  33,C  31,C  28,H  29)    179.1663         0.011196   
    360. D(H  32,C  31,C  28,N  37)    -58.8233         0.011196   
    361. D(H  32,C  31,C  28,H  30)    179.7648         0.011196   
    362. D(H  32,C  31,C  28,H  29)     63.4423         0.011196   
    363. D(C  38,C  34,C  31,H  33)    -58.0996         0.011275   
    364. D(C  38,C  34,C  31,H  32)     58.4681         0.011275   
    365. D(C  38,C  34,C  31,C  28)   -179.5604         0.011275   
    366. D(H  36,C  34,C  31,H  33)     63.9731         0.011275   
    367. D(H  36,C  34,C  31,H  32)   -179.4591         0.011275   
    368. D(H  36,C  34,C  31,C  28)    -57.4876         0.011275   
    369. D(H  35,C  34,C  31,H  33)    179.7302         0.011275   
    370. D(H  35,C  34,C  31,H  32)    -63.7020         0.011275   
    371. D(H  35,C  34,C  31,C  28)     58.2695         0.011275   
    372. D(H  10,N  37,C  28,C  31)   -150.3368         0.016135   
    373. D(H  10,N  37,C  28,H  30)    -28.0809         0.016135   
    374. D(H  27,N  37,C  28,C  31)     59.3897         0.016135   
    375. D(H  27,N  37,C  28,H  30)   -178.3545         0.016135   
    376. D(H  27,N  37,C  28,H  29)    -63.6428         0.016135   
    377. D(H  15,N  37,C  28,H  30)     64.8802         0.016135   
    378. D(H  15,N  37,C  28,H  29)    179.5918         0.016135   
    379. D(H  10,N  37,H  15,O  18)     38.6477         0.305424   
    380. D(H  10,N  37,H  15,H   7)   -105.0703         0.305424   
    381. D(H  10,N  37,H  15,C   3)    -77.1328         0.305424   
    382. D(C  28,N  37,H  15,H  10)   -108.4369         0.305424   
    383. D(C  28,N  37,H  15,O  18)    -69.7891         0.305424   
    384. D(C  28,N  37,H  15,C  16)   -109.1029         0.305424   
    385. D(C  28,N  37,H  15,H   7)    146.4928         0.305424   
    386. D(C  28,N  37,H  15,C   3)    174.4303         0.305424   
    387. D(H  27,N  37,H  15,H  10)    132.6446         0.305424   
    388. D(H  27,N  37,H  15,O  18)    171.2924         0.305424   
    389. D(H  27,N  37,H  15,C  16)    131.9786         0.305424   
    390. D(H  27,N  37,H  15,H   7)     27.5743         0.305424   
    391. D(H  10,N  37,H  15,C  16)     -0.6660         0.305424   
    392. D(H  27,N  37,H  15,C   3)     55.5118         0.305424   
    393. D(C  28,N  37,H  10,H  30)     13.7761         0.001520   
    394. D(C  28,N  37,H  10,H  15)    109.2182         0.001520   
    395. D(H  15,N  37,C  28,C  31)    -57.3757         0.016135   
    396. D(C  28,N  37,H  10,N   9)     67.8778         0.001520   
    397. D(H  27,N  37,H  10,H  30)    155.2028         0.001520   
    398. D(H  27,N  37,H  10,H  15)   -109.3551         0.001520   
    399. D(H  10,N  37,C  28,H  29)     86.6307         0.016135   
    400. D(H  27,N  37,H  10,N   9)   -150.6955         0.001520   
    401. D(H  15,N  37,H  10,H  30)    -95.4422         0.001520   
    402. D(H  15,N  37,H  10,N   9)    -41.3404         0.001520   
    403. D(H  41,C  38,C  34,H  36)    -62.1089         0.011361   
    404. D(H  41,C  38,C  34,H  35)   -178.2047         0.011361   
    405. D(H  41,C  38,C  34,C  31)     59.7503         0.011361   
    406. D(H  40,C  38,C  34,H  36)    178.2030         0.011361   
    407. D(H  40,C  38,C  34,H  35)     62.1073         0.011361   
    408. D(H  40,C  38,C  34,C  31)    -59.9377         0.011361   
    409. D(H  39,C  38,C  34,H  36)     58.0617         0.011361   
    410. D(H  39,C  38,C  34,H  35)    -58.0340         0.011361   
    411. D(H  39,C  38,C  34,C  31)    179.9210         0.011361   
    412. D(H  45,C  42,C  22,H  24)   -178.6771         0.011380   
    413. D(H  45,C  42,C  22,H  23)    -62.6120         0.011380   
    414. D(H  45,C  42,C  22,C  19)     59.4910         0.011380   
    415. D(H  44,C  42,C  22,H  24)     61.6277         0.011380   
    416. D(H  44,C  42,C  22,H  23)    177.6928         0.011380   
    417. D(H  44,C  42,C  22,C  19)    -60.2043         0.011380   
    418. D(H  43,C  42,C  22,H  24)    -58.5110         0.011380   
    419. D(H  43,C  42,C  22,H  23)     57.5540         0.011380   
    420. D(H  43,C  42,C  22,C  19)    179.6570         0.011380   
    -----------------------------------------------------------------

Number of atoms                         .... 46
Number of degrees of freedom            .... 420

         *************************************************************
         *                GEOMETRY OPTIMIZATION CYCLE   1            *
         *************************************************************
      -----------------------------------------------------------      
     |                   =====================                   |     
     |                           x T B                           |     
     |                   =====================                   |     
     |                         S. Grimme                         |     
     |          Mulliken Center for Theoretical Chemistry        |     
     |                    University of Bonn                     |     
      -----------------------------------------------------------      

   * xtb version 6.3.0 (49875a8) compiled by 'schneider@apollo14' on 2020-05-23

   xtb is free software: you can redistribute it and/or modify it under
   the terms of the GNU Lesser General Public License as published by
   the Free Software Foundation, either version 3 of the License, or
   (at your option) any later version.
   
   xtb is distributed in the hope that it will be useful,
   but WITHOUT ANY WARRANTY; without even the implied warranty of
   MERCHANTABILITY or FITNESS FOR A PARTICULAR PURPOSE.  See the
   GNU Lesser General Public License for more details.
   
   Cite this work as:
   * S. Grimme, C. Bannwarth, P. Shushkov, J. Chem. Theory Comput., 2017,
     13, 1989-2009. DOI: 10.1021/acs.jctc.7b00118
   * C. Bannwarth, S. Ehlert and S. Grimme., J. Chem. Theory Comput., 2019,
     15, 1652-1671. DOI: 10.1021/acs.jctc.8b01176
   * P. Pracht, E. Caldeweyher, S. Ehlert, S. Grimme, ChemRxiv, 2019, preprint.
     DOI: 10.26434/chemrxiv.8326202.v1
   
   for GFN-FF:
   * S. Spicher and S. Grimme, Angew. Chem. Int. Ed., 2020,
     DOI: 10.1002/anie.202004239
   
   for DFT-D4:
   * E. Caldeweyher, C. Bannwarth and S. Grimme, J. Chem. Phys., 2017,
     147, 034112. DOI: 10.1063/1.4993215
   * E. Caldeweyher, S. Ehlert, A. Hansen, H. Neugebauer, S. Spicher,
     C. Bannwarth and S. Grimme, J. Chem. Phys., 2019, 150, 154122.
     DOI: 10.1063/1.5090222
   
   for sTDA-xTB:
   * S. Grimme and C. Bannwarth, J. Chem. Phys., 2016, 145, 054103.
     DOI: 10.1063/1.4959605
   
   in the mass-spec context:
   * V. Asgeirsson, C. Bauer and S. Grimme, Chem. Sci., 2017, 8, 4879.
     DOI: 10.1039/c7sc00601b
   * J. Koopman and S. Grimme, ACS Omega 2019, 4, 12, 15120-15133.
     DOI: 10.1021/acsomega.9b02011
   
   for metadynamics refer to:
   * S. Grimme, J. Chem. Theory Comput., 2019, 155, 2847-2862
     DOI: 10.1021/acs.jctc.9b00143
   
   with help from (in alphabetical order)
   C. Bannwarth, F. Bohle, G. Brandenburg, E. Caldeweyher, M. Checinski,
   S. Dohm, S. Ehlert, S. Ehrlich, F. März, H. Neugebauer, J. Pisarek,
   P. Pracht, P. Shushkov, and S. Spicher.
   
 * started run on 2020/06/19 at 15:43:45.764     

           -------------------------------------------------
          |                Calculation Setup                |
           -------------------------------------------------

          program call               : /opt/orca/otool_xtb opt+freq_XTB.xyz --grad -c 0 -u 0 -P 12 --namespace opt+freq --gbsa CH2Cl2
          calculation namespace      : opt+freq
          coordinate file            : opt+freq_XTB.xyz
          number of atoms            :                    46
          number of electrons        :                   104
          charge                     :                     0
          spin                       :                   0.0
          first test random number   :      0.83122482088690

   ID    Z sym.   atoms
    1    6 C      1-6, 12, 17, 20, 23, 29, 32, 35, 39, 43
    2    1 H      7-9, 11, 13-16, 18, 21, 22, 24-28, 30, 31, 33, 34, 36, 37,
                  40-42, 44-46
    3    7 N      10, 38
    4    8 O      19

molecular fragmentation (1/2 indicates fragments):
1111111112222222111222222112222222222222222222
# atoms in fragment 1/2:    14    32
 fragment masses (1/2) :      106.12      146.27
CMA distance (Bohr)    :   9.339
constraining FC (au)   :  0.0500
########################################################################
[WARNING] Please study the warnings concerning your input carefully
-1- prog_main_parseArguments: Process number higher than OMP_NUM_THREADS, I hope you know what you are doing.
########################################################################
 Solvent             : CH2Cl2
 Using internal parameter file: .param_gbsa2_CH2Cl2
 Gsolv ref. state (COSMO-RS): gsolv [1 M gas/solution]
 temperature (mdtemp)       :    298.14999999999998     
 dielectric constant        :    8.9299999999999997     
 rho                        :    1.3300000000000003     
 mass                       :    84.930000000000007     
 surface tension            :    15.568945408385856     
 probe radius               :   0.71987590000000001     
 Gshift (Eh)                :    4.4408291734517593E-003
 c1                         :    1.4917377599999999     
 soset                      :    0.0000000000000000     
 HB correction              :  F

           -------------------------------------------------
          |                 G F N 2 - x T B                 |
           -------------------------------------------------

        Reference                      10.1021/acs.jctc.8b01176
      * Hamiltonian:
        H0-scaling (s, p, d)           1.850000    2.230000    2.230000
        zeta-weighting                 0.500000
      * Dispersion:
        s8                             2.700000
        a1                             0.520000
        a2                             5.000000
        s9                             5.000000
      * Repulsion:
        kExp                           1.500000    1.000000
        rExp                           1.000000
      * Coulomb:
        alpha                          2.000000
        third order                    shell-resolved
        anisotropic                    true
        a3                             3.000000
        a5                             4.000000
        cn-shift                       1.200000
        cn-exp                         4.000000
        max-rad                        5.000000


          ...................................................
          :                      SETUP                      :
          :.................................................:
          :  # basis functions                 100          :
          :  # atomic orbitals                 100          :
          :  # shells                           64          :
          :  # electrons                       104          :
          :  max. iterations                   250          :
          :  Hamiltonian                  GFN2-xTB          :
          :  restarted?                      false          :
          :  GBSA solvation                   true          :
          :  PC potential                    false          :
          :  electronic temp.          300.0000000     K    :
          :  accuracy                    1.0000000          :
          :  -> integral cutoff          0.2500000E+02      :
          :  -> integral neglect         0.1000000E-07      :
          :  -> SCF convergence          0.1000000E-05 Eh   :
          :  -> wf. convergence          0.1000000E-03 e    :
          :  Broyden damping             0.4000000          :
          ...................................................

 iter      E             dE          RMSdq      gap      omega  full diag
   1    -56.9848213 -0.569848E+02  0.340E+00    2.39       0.0  T
   2    -57.0739012 -0.890799E-01  0.178E+00    2.12       1.0  T
   3    -57.0760009 -0.209970E-02  0.891E-01    2.20       1.0  T
   4    -57.0800114 -0.401054E-02  0.211E-01    1.98       1.0  T
   5    -57.0808949 -0.883459E-03  0.663E-02    2.00       1.0  T
   6    -57.0809349 -0.399818E-04  0.318E-02    2.01       1.0  T
   7    -57.0809506 -0.156733E-04  0.116E-02    2.01       1.3  T
   8    -57.0809516 -0.101752E-05  0.321E-03    2.02       4.6  T
   9    -57.0809517 -0.108367E-06  0.126E-03    2.01      11.7  T
  10    -57.0809517 -0.175195E-07  0.593E-04    2.01      24.9  T
  11    -57.0809517 -0.378409E-08  0.270E-04    2.01      54.5  T

   *** convergence criteria satisfied after 11 iterations ***

         #    Occupation            Energy/Eh            Energy/eV
      -------------------------------------------------------------
         1        2.0000           -0.7152099             -19.4619
       ...           ...                  ...                  ...
        46        2.0000           -0.4247190             -11.5572
        47        2.0000           -0.4223508             -11.4928
        48        2.0000           -0.4195563             -11.4167
        49        2.0000           -0.4176163             -11.3639
        50        2.0000           -0.4034470             -10.9784
        51        2.0000           -0.3796894             -10.3319
        52        2.0000           -0.3676549             -10.0044 (HOMO)
        53                         -0.2936394              -7.9903 (LUMO)
        54                         -0.2369799              -6.4486
        55                         -0.2038642              -5.5474
        56                         -0.0977866              -2.6609
        57                          0.0186419               0.5073
       ...                                ...                  ...
       100                          0.6462955              17.5866
      -------------------------------------------------------------
                  HL-Gap            0.0740154 Eh            2.0141 eV
             Fermi-level           -0.3306471 Eh           -8.9974 eV

 SCC (total)                   0 d,  0 h,  0 min,  0.168 sec
 SCC setup                      ...        0 min,  0.002 sec (  1.198%)
 Dispersion                     ...        0 min,  0.001 sec (  0.520%)
 classical contributions        ...        0 min,  0.000 sec (  0.170%)
 integral evaluation            ...        0 min,  0.030 sec ( 18.097%)
 iterations                     ...        0 min,  0.077 sec ( 45.714%)
 molecular gradient             ...        0 min,  0.049 sec ( 29.149%)
 printout                       ...        0 min,  0.009 sec (  5.138%)

         :::::::::::::::::::::::::::::::::::::::::::::::::::::
         ::                     SUMMARY                     ::
         :::::::::::::::::::::::::::::::::::::::::::::::::::::
         :: total energy             -56.280185826728 Eh    ::
         :: total w/o Gsasa/hb       -56.255565145415 Eh    ::
         :: gradient norm              0.026653832592 Eh/a0 ::
         :: HOMO-LUMO gap              2.014062323948 eV    ::
         ::.................................................::
         :: SCC energy               -57.105572392099 Eh    ::
         :: -> isotropic ES            0.060295701636 Eh    ::
         :: -> anisotropic ES          0.007710338567 Eh    ::
         :: -> anisotropic XC          0.038600885388 Eh    ::
         :: -> dispersion             -0.035221632931 Eh    ::
         :: -> Gsolv                  -0.032715700021 Eh    ::
         ::    -> Gborn               -0.008095018708 Eh    ::
         ::    -> Gsasa               -0.029061510486 Eh    ::
         ::    -> Ghb                  0.000000000000 Eh    ::
         ::    -> Gshift               0.004440829173 Eh    ::
         :: repulsion energy           0.825068511724 Eh    ::
         :: add. restraining           0.000000000000 Eh    ::
         :::::::::::::::::::::::::::::::::::::::::::::::::::::

           -------------------------------------------------
          |                Property Printout                |
           -------------------------------------------------

    * Orbital Energies and Occupations

         #    Occupation            Energy/Eh            Energy/eV
      -------------------------------------------------------------
         1        2.0000           -0.7152099             -19.4619
       ...           ...                  ...                  ...
        40        2.0000           -0.4457019             -12.1282
        41        2.0000           -0.4402010             -11.9785
        42        2.0000           -0.4378549             -11.9146
        43        2.0000           -0.4349854             -11.8366
        44        2.0000           -0.4338295             -11.8051
        45        2.0000           -0.4333555             -11.7922
        46        2.0000           -0.4247190             -11.5572
        47        2.0000           -0.4223508             -11.4928
        48        2.0000           -0.4195563             -11.4167
        49        2.0000           -0.4176163             -11.3639
        50        2.0000           -0.4034470             -10.9784
        51        2.0000           -0.3796894             -10.3319
        52        2.0000           -0.3676549             -10.0044 (HOMO)
        53                         -0.2936394              -7.9903 (LUMO)
        54                         -0.2369799              -6.4486
        55                         -0.2038642              -5.5474
        56                         -0.0977866              -2.6609
        57                          0.0186419               0.5073
        58                          0.0360075               0.9798
        59                          0.0723080               1.9676
        60                          0.0851019               2.3157
        61                          0.0938977               2.5551
        62                          0.1030686               2.8046
        63                          0.1120370               3.0487
       ...                                ...                  ...
       100                          0.6462955              17.5866
      -------------------------------------------------------------
                  HL-Gap            0.0740154 Eh            2.0141 eV
             Fermi-level           -0.3306471 Eh           -8.9974 eV

     #   Z        covCN         q      C6AA      α(0)
     1   6 C      2.913    -0.023    28.588     8.768
     2   6 C      2.920    -0.021    28.525     8.758
     3   6 C      2.968    -0.010    28.259     8.720
     4   6 C      2.918    -0.015    28.376     8.735
     5   6 C      2.914    -0.026    28.645     8.776
     6   6 C      2.916    -0.017    28.434     8.744
     7   1 H      0.925     0.055     2.259     2.351
     8   1 H      0.925     0.047     2.360     2.403
     9   1 H      0.925     0.055     2.259     2.350
    10   7 N      2.628    -0.381    29.841     8.113
    11   1 H      0.860     0.161     1.327     1.804
    12   6 C      3.731     0.025    20.251     6.424
    13   1 H      0.923     0.001     3.033     2.723
    14   1 H      0.924     0.028     2.611     2.527
    15   1 H      0.860     0.140     1.470     1.899
    16   1 H      0.860     0.159     1.344     1.816
    17   6 C      2.766     0.212    23.510     7.941
    18   1 H      0.923     0.032     2.560     2.502
    19   8 O      0.856    -0.398    21.649     6.238
    20   6 C      3.801    -0.063    21.709     6.634
    21   1 H      0.924     0.039     2.469     2.457
    22   1 H      0.924     0.034     2.532     2.488
    23   6 C      3.799    -0.053    21.523     6.605
    24   1 H      0.924     0.029     2.594     2.519
    25   1 H      0.924     0.030     2.594     2.518
    26   1 H      0.925     0.051     2.310     2.377
    27   1 H      0.925     0.055     2.260     2.351
    28   1 H      0.860     0.143     1.448     1.885
    29   6 C      3.731     0.018    20.371     6.443
    30   1 H      0.924     0.031     2.576     2.510
    31   1 H      0.924     0.030     2.588     2.516
    32   6 C      3.800    -0.066    21.758     6.641
    33   1 H      0.924     0.029     2.608     2.525
    34   1 H      0.924     0.030     2.584     2.514
    35   6 C      3.799    -0.053    21.534     6.607
    36   1 H      0.924     0.031     2.574     2.509
    37   1 H      0.924     0.030     2.590     2.517
    38   7 N      2.627    -0.379    29.803     8.108
    39   6 C      3.749    -0.101    22.492     6.764
    40   1 H      0.924     0.037     2.494     2.470
    41   1 H      0.924     0.035     2.517     2.481
    42   1 H      0.924     0.034     2.526     2.485
    43   6 C      3.749    -0.102    22.507     6.766
    44   1 H      0.924     0.036     2.497     2.471
    45   1 H      0.924     0.036     2.506     2.475
    46   1 H      0.924     0.036     2.506     2.476

 Mol. C6AA /au·bohr⁶  :      17447.008774
 Mol. C8AA /au·bohr⁸  :     381489.007436
 Mol. α(0) /au        :        202.705362


Wiberg/Mayer (AO) data.
largest (>0.10) Wiberg bond orders for each atom
          total WBO             WBO to atom ...
     1  C   3.990        C    2 1.457    C    6 1.432    H   27 0.969    C    4 0.105
     2  C   3.988        C    1 1.457    C    3 1.369    H    7 0.966    C    5 0.104
     3  C   3.989        C    2 1.369    C    4 1.365    C   17 1.070
     4  C   3.990        C    5 1.464    C    3 1.365    H    8 0.966    C    1 0.105
     5  C   3.991        C    4 1.464    C    6 1.424    H   26 0.969    C    2 0.104
     6  C   3.988        C    1 1.432    C    5 1.424    H    9 0.970
     7  H   0.997        C    2 0.966
     8  H   0.998        C    4 0.966
     9  H   0.997        C    6 0.970
    10  N   2.997        C   12 1.019    H   15 0.967    H   11 0.946
    11  H   0.974        N   10 0.946
    12  C   3.985        N   10 1.019    C   20 1.005    H   14 0.974    H   13 0.970
    13  H   1.000        C   12 0.970
    14  H   0.999        C   12 0.974
    15  H   0.980        N   10 0.967
    16  H   0.975        N   38 0.952
    17  C   3.908        O   19 1.816    C    3 1.070    H   18 0.934
    18  H   0.998        C   17 0.934
    19  O   2.037        C   17 1.816
    20  C   3.996        C   23 1.007    C   12 1.005    H   22 0.976    H   21 0.976
    21  H   0.999        C   20 0.976
    22  H   0.999        C   20 0.976
    23  C   3.997        C   43 1.019    C   20 1.007    H   25 0.978    H   24 0.978
    24  H   0.999        C   23 0.978
    25  H   0.999        C   23 0.978
    26  H   0.997        C    5 0.969
    27  H   0.997        C    1 0.969
    28  H   0.979        N   38 0.966
    29  C   3.983        N   38 1.020    C   32 0.997    H   30 0.976    H   31 0.974
    30  H   0.999        C   29 0.976
    31  H   0.999        C   29 0.974
    32  C   3.997        C   35 1.007    C   29 0.997    H   33 0.977    H   34 0.977
    33  H   0.999        C   32 0.977
    34  H   0.999        C   32 0.977
    35  C   3.997        C   39 1.019    C   32 1.007    H   37 0.978    H   36 0.978
    36  H   0.999        C   35 0.978
    37  H   0.999        C   35 0.978
    38  N   3.012        C   29 1.020    H   28 0.966    H   16 0.952
    39  C   3.996        C   35 1.019    H   42 0.988    H   41 0.988    H   40 0.987
    40  H   0.998        C   39 0.987
    41  H   0.999        C   39 0.988
    42  H   0.999        C   39 0.988
    43  C   3.996        C   23 1.019    H   45 0.988    H   46 0.988    H   44 0.987
    44  H   0.998        C   43 0.987
    45  H   0.999        C   43 0.988
    46  H   0.999        C   43 0.988
Topologies differ in total number of bonds
Writing topology from bond orders to xtbtopo.mol

molecular dipole:
                 x           y           z       tot (Debye)
 q only:        0.095       0.781      -1.187
   full:        0.200       0.455      -1.168       3.227
molecular quadrupole (traceless):
                xx          xy          yy          xz          yz          zz
 q only:        2.372      -1.585       2.084      -6.719      -0.655      -4.456
  q+dip:        3.563      -3.435       3.253      -7.411      -0.812      -6.816
   full:        3.126      -1.732       3.778      -6.273       0.250      -6.904


           -------------------------------------------------
          | TOTAL ENERGY              -56.280185826728 Eh   |
          | GRADIENT NORM               0.026653832592 Eh/α |
          | HOMO-LUMO GAP               2.014062323948 eV   |
           -------------------------------------------------

------------------------------------------------------------------------
 * finished run on 2020/06/19 at 15:43:46.018     
------------------------------------------------------------------------
 total:
 * wall-time:     0 d,  0 h,  0 min,  0.254 sec
 *  cpu-time:     0 d,  0 h,  0 min,  2.774 sec
 * ratio c/w:    10.904 speedup
 SCF:
 * wall-time:     0 d,  0 h,  0 min,  0.173 sec
 *  cpu-time:     0 d,  0 h,  0 min,  1.919 sec
 * ratio c/w:    11.078 speedup


-------------------------   --------------------
FINAL SINGLE POINT ENERGY       -56.280185826730
-------------------------   --------------------

------------------------------------------------------------------------------
                         ORCA GEOMETRY RELAXATION STEP
------------------------------------------------------------------------------

Reading the OPT-File                    .... done
Getting information on internals        .... done
Copying old internal coords+grads       .... done
Making the new internal coordinates     .... (new redundants).... done
Validating the new internal coordinates .... (new redundants).... done
Calculating the B-matrix                .... done
Calculating the G,G- and P matrices     .... done
Transforming gradient to internals      .... done
Projecting the internal gradient        .... done
Number of atoms                         ....  46
Number of internal coordinates          .... 420
Current Energy                          ....   -56.280185827 Eh
Current gradient norm                   ....     0.026653833 Eh/bohr
Maximum allowed component of the step   ....  0.300
Current trust radius                    ....  0.300
Evaluating the initial hessian          ....  (Almloef) done
Projecting the Hessian                  .... done
Forming the augmented Hessian           .... done
Diagonalizing the augmented Hessian     .... done
Last element of RFO vector              ....  0.991826459
Lowest eigenvalues of augmented Hessian:
 -0.001921426  0.006410584  0.010217004  0.011197328  0.011275008
Length of the computed step             ....  0.128645673
The final length of the internal step   ....  0.128645673
Converting the step to cartesian space:
 Initial RMS(Int)=    0.0062772661
Transforming coordinates:
 Iter   0:  RMS(Cart)=    0.0235379354 RMS(Int)=    0.6130377105
 Iter   1:  RMS(Cart)=    0.0000898837 RMS(Int)=    0.0000264766
 Iter   2:  RMS(Cart)=    0.0000007691 RMS(Int)=    0.0000002973
 Iter   3:  RMS(Cart)=    0.0000000102 RMS(Int)=    0.0000000042
done
Storing new coordinates                 .... done

                                .--------------------.
          ----------------------|Geometry convergence|-------------------------
          Item                value                   Tolerance       Converged
          ---------------------------------------------------------------------
          RMS gradient        0.0011891857            0.0001000000      NO
          MAX gradient        0.0070283469            0.0003000000      NO
          RMS step            0.0062772661            0.0020000000      NO
          MAX step            0.0356692441            0.0040000000      NO
          ........................................................
          Max(Bonds)      0.0189      Max(Angles)    0.75
          Max(Dihed)        1.08      Max(Improp)    0.00
          ---------------------------------------------------------------------

The optimization has not yet converged - more geometry cycles are needed


    ---------------------------------------------------------------------------
                         Redundant Internal Coordinates
                            (Angstroem and degrees)

        Definition                    Value    dE/dq     Step     New-Value
    ----------------------------------------------------------------------------
     1. B(C   1,C   0)                1.3885  0.006305 -0.0053    1.3832   
     2. B(C   2,C   1)                1.3961  0.001887 -0.0016    1.3946   
     3. B(C   3,C   2)                1.3981  0.001205 -0.0022    1.3959   
     4. B(C   4,C   3)                1.3859  0.005681 -0.0047    1.3812   
     5. B(C   5,C   4)                1.3948  0.007028 -0.0061    1.3887   
     6. B(C   5,C   0)                1.3919  0.004981 -0.0043    1.3876   
     7. B(H   6,C   1)                1.0827  0.002215 -0.0032    1.0796   
     8. B(H   7,C   3)                1.0816  0.000877 -0.0014    1.0802   
     9. B(H   8,C   5)                1.0822  0.001660 -0.0024    1.0798   
    10. B(H  10,N   9)                1.0186  0.000876 -0.0019    1.0167   
    11. B(C  11,N   9)                1.4663  0.005317 -0.0082    1.4581   
    12. B(H  12,C  11)                1.0996 -0.002621  0.0040    1.1036   
    13. B(H  13,C  11)                1.0926 -0.000891  0.0012    1.0938   
    14. B(H  14,N   9)                1.0145 -0.000860  0.0011    1.0156   
    15. B(H  15,H   7)                2.4328  0.000018 -0.0030    2.4298   
    16. B(H  15,C   3)                2.9434  0.000710 -0.0064    2.9371   
    17. B(H  15,H  10)                2.3698  0.000421 -0.0181    2.3517   
    18. B(C  16,C   2)                1.4743  0.006830 -0.0098    1.4645   
    19. B(C  16,H  15)                2.8259  0.001739 -0.0130    2.8129   
    20. B(H  17,H  13)                2.7924  0.000510 -0.0097    2.7827   
    21. B(H  17,C  16)                1.1018  0.000489 -0.0015    1.1003   
    22. B(O  18,H  15)                2.2790  0.000695 -0.0131    2.2660   
    23. B(O  18,H  13)                2.7232  0.000849 -0.0140    2.7093   
    24. B(O  18,C  16)                1.2175  0.002629 -0.0026    1.2149   
    25. B(C  19,C  11)                1.5245 -0.000161  0.0002    1.5247   
    26. B(H  20,H  17)                2.6271 -0.000294 -0.0093    2.6179   
    27. B(H  20,C  19)                1.0945  0.001114 -0.0022    1.0923   
    28. B(H  21,C  19)                1.0961  0.000943 -0.0014    1.0947   
    29. B(C  22,C  19)                1.5280  0.002710 -0.0038    1.5242   
    30. B(H  23,C  22)                1.0943  0.000257 -0.0004    1.0939   
    31. B(H  24,C  22)                1.0944  0.000348 -0.0005    1.0938   
    32. B(H  25,C   4)                1.0819  0.001580 -0.0022    1.0797   
    33. B(H  26,C   0)                1.0817  0.001683 -0.0024    1.0794   
    34. B(H  29,C  28)                1.0935 -0.001050  0.0016    1.0951   
    35. B(H  30,C  28)                1.0928 -0.001201  0.0007    1.0935   
    36. B(H  30,H  13)                2.5933  0.000390 -0.0186    2.5747   
    37. B(H  30,H  10)                2.8022  0.002032 -0.0189    2.7833   
    38. B(C  31,C  28)                1.5293 -0.000191  0.0003    1.5296   
    39. B(H  32,C  31)                1.0956 -0.000002  0.0000    1.0956   
    40. B(H  33,C  31)                1.0950 -0.000107  0.0002    1.0952   
    41. B(C  34,C  31)                1.5283  0.003270 -0.0046    1.5237   
    42. B(H  35,C  34)                1.0944  0.000397 -0.0006    1.0938   
    43. B(H  36,C  34)                1.0943  0.000507 -0.0008    1.0936   
    44. B(N  37,H  10)                2.2017 -0.000767 -0.0158    2.1859   
    45. B(N  37,C  28)                1.4679  0.006617 -0.0110    1.4569   
    46. B(N  37,H  27)                1.0146 -0.001228  0.0015    1.0161   
    47. B(N  37,H  15)                1.0151 -0.000591  0.0006    1.0157   
    48. B(C  38,C  34)                1.5272  0.004398 -0.0061    1.5211   
    49. B(H  39,C  38)                1.0919  0.002687 -0.0040    1.0880   
    50. B(H  40,C  38)                1.0927  0.002360 -0.0035    1.0893   
    51. B(H  41,C  38)                1.0927  0.002437 -0.0036    1.0891   
    52. B(C  42,C  22)                1.5270  0.004235 -0.0059    1.5211   
    53. B(H  43,C  42)                1.0918  0.002561 -0.0038    1.0881   
    54. B(H  44,C  42)                1.0927  0.002489 -0.0037    1.0890   
    55. B(H  45,C  42)                1.0928  0.002478 -0.0037    1.0891   
    56. A(C   5,C   0,H  26)          120.12  0.000588   -0.07    120.05   
    57. A(C   1,C   0,H  26)          120.13  0.000525   -0.06    120.07   
    58. A(C   1,C   0,C   5)          119.75 -0.001113    0.12    119.87   
    59. A(C   0,C   1,C   2)          120.18  0.000551   -0.09    120.09   
    60. A(C   2,C   1,H   6)          119.41 -0.000165    0.03    119.44   
    61. A(C   0,C   1,H   6)          120.41 -0.000387    0.06    120.47   
    62. A(C   1,C   2,C  16)          119.16 -0.001601    0.31    119.47   
    63. A(C   1,C   2,C   3)          119.82  0.001713   -0.13    119.69   
    64. A(C   3,C   2,C  16)          121.02 -0.000112   -0.18    120.84   
    65. A(H   7,C   3,H  15)           52.06 -0.000197    0.14     52.20   
    66. A(C   4,C   3,H   7)          120.82  0.000173    0.02    120.84   
    67. A(C   4,C   3,H  15)          135.31  0.000169   -0.01    135.31   
    68. A(C   2,C   3,H   7)          119.21  0.000284   -0.09    119.13   
    69. A(C   2,C   3,C   4)          119.97 -0.000456    0.07    120.04   
    70. A(C   2,C   3,H  15)           84.34  0.000219   -0.14     84.20   
    71. A(C   3,C   4,H  25)          120.09  0.000138   -0.01    120.08   
    72. A(C   3,C   4,C   5)          119.97 -0.000133   -0.01    119.97   
    73. A(C   5,C   4,H  25)          119.94 -0.000005    0.01    119.95   
    74. A(C   4,C   5,H   8)          119.83  0.000528   -0.06    119.78   
    75. A(C   0,C   5,C   4)          120.31 -0.000561    0.04    120.34   
    76. A(C   0,C   5,H   8)          119.86  0.000033    0.02    119.88   
    77. A(C   3,H   7,H  15)          107.42  0.000095   -0.18    107.24   
    78. A(H  10,N   9,C  11)          110.07  0.000208   -0.16    109.90   
    79. A(H  10,N   9,H  14)          107.21 -0.000571    0.18    107.39   
    80. A(C  11,N   9,H  14)          110.02  0.001017   -0.20    109.82   
    81. A(N   9,H  10,H  15)          137.65 -0.000081    0.04    137.69   
    82. A(N   9,H  10,H  30)          119.33 -0.000761    0.03    119.37   
    83. A(H  30,H  10,N  37)           47.25  0.000743    0.08     47.33   
    84. A(H  15,H  10,N  37)           25.32 -0.000169    0.22     25.53   
    85. A(N   9,H  10,N  37)          159.94 -0.000194    0.25    160.19   
    86. A(H  15,H  10,H  30)           54.28  0.000527    0.08     54.36   
    87. A(N   9,C  11,H  12)          112.97  0.000185   -0.12    112.84   
    88. A(N   9,C  11,C  19)          111.34  0.001174   -0.36    110.98   
    89. A(H  12,C  11,C  19)          108.96 -0.000344   -0.04    108.93   
    90. A(N   9,C  11,H  13)          107.51 -0.000129   -0.13    107.38   
    91. A(H  13,C  11,C  19)          109.35 -0.000170    0.26    109.60   
    92. A(H  12,C  11,H  13)          106.54 -0.000814    0.45    107.00   
    93. A(H  17,H  13,H  30)          120.41  0.000200    0.18    120.59   
    94. A(C  11,H  13,H  30)          106.87  0.000191   -0.14    106.73   
    95. A(C  11,H  13,O  18)          129.45  0.000411   -0.07    129.39   
    96. A(H  17,H  13,O  18)           42.82  0.000450    0.13     42.95   
    97. A(C  11,H  13,H  17)           99.25 -0.000046   -0.12     99.13   
    98. A(O  18,H  13,H  30)           80.70 -0.000218    0.07     80.77   
    99. A(C   3,H  15,O  18)           65.84  0.001325   -0.04     65.79   
   100. A(C   3,H  15,C  16)           51.32  0.001195   -0.10     51.22   
   101. A(C  16,H  15,O  18)           24.75  0.000409    0.06     24.81   
   102. A(C  16,H  15,N  37)          138.81 -0.000743    0.09    138.91   
   103. A(H  10,H  15,C  16)           70.77 -0.000165    0.06     70.84   
   104. A(H   7,H  15,H  10)          116.24  0.000535   -0.04    116.20   
   105. A(C   3,H  15,H  10)           95.92  0.000433   -0.08     95.84   
   106. A(H  10,H  15,O  18)           86.26  0.000179    0.12     86.39   
   107. A(H   7,H  15,O  18)           67.15  0.001185   -0.11     67.04   
   108. A(O  18,H  15,N  37)          148.11 -0.000618    0.17    148.28   
   109. A(H   7,H  15,C  16)           61.36  0.001170   -0.12     61.24   
   110. A(C   3,H  15,H   7)           20.52  0.000102    0.04     20.56   
   111. A(H   7,H  15,N  37)          140.76 -0.000510   -0.04    140.72   
   112. A(C   3,H  15,N  37)          132.88 -0.000655   -0.08    132.79   
   113. A(H  10,H  15,N  37)           68.04 -0.000581    0.03     68.07   
   114. A(H  17,C  16,O  18)          120.50 -0.000062    0.10    120.59   
   115. A(C   2,C  16,O  18)          124.54 -0.001289    0.28    124.82   
   116. A(C   2,C  16,H  17)          114.94  0.001350   -0.37    114.58   
   117. A(H  15,C  16,O  18)           51.60 -0.000118   -0.09     51.51   
   118. A(H  15,C  16,H  17)          138.00  0.000322   -0.06    137.94   
   119. A(C   2,C  16,H  15)           87.58 -0.001149    0.26     87.84   
   120. A(H  13,H  17,H  20)           54.43 -0.000112    0.24     54.68   
   121. A(C  16,H  17,H  20)          138.04  0.000155    0.00    138.04   
   122. A(H  13,H  17,C  16)           87.20  0.000148   -0.17     87.03   
   123. A(H  13,O  18,H  15)           81.17  0.000742   -0.10     81.07   
   124. A(H  13,O  18,C  16)           88.38 -0.000408    0.05     88.44   
   125. A(H  15,O  18,C  16)          103.65 -0.000291    0.03    103.68   
   126. A(H  20,C  19,C  22)          109.72 -0.000601    0.05    109.76   
   127. A(C  11,C  19,C  22)          113.24  0.002344   -0.63    112.61   
   128. A(C  11,C  19,H  20)          108.83 -0.000500    0.04    108.87   
   129. A(C  11,C  19,H  21)          109.09 -0.000479    0.06    109.15   
   130. A(H  20,C  19,H  21)          106.35 -0.000320    0.48    106.83   
   131. A(H  21,C  19,C  22)          109.37 -0.000606    0.08    109.45   
   132. A(H  17,H  20,C  19)          124.09  0.000081   -0.05    124.04   
   133. A(H  23,C  22,H  24)          106.25 -0.000442    0.62    106.87   
   134. A(H  24,C  22,C  42)          109.44 -0.000666    0.05    109.49   
   135. A(H  23,C  22,C  42)          109.47 -0.000679    0.02    109.49   
   136. A(C  19,C  22,H  24)          109.12 -0.000771    0.07    109.20   
   137. A(C  19,C  22,C  42)          113.02  0.003016   -0.71    112.32   
   138. A(C  19,C  22,H  23)          109.32 -0.000670    0.02    109.34   
   139. A(C  31,C  28,N  37)          115.26  0.001604   -0.45    114.81   
   140. A(H  30,C  28,N  37)          107.70 -0.000441   -0.17    107.54   
   141. A(H  29,C  28,N  37)          108.16  0.000753   -0.34    107.82   
   142. A(H  30,C  28,C  31)          109.27 -0.000643    0.27    109.54   
   143. A(H  29,C  28,C  31)          109.60 -0.000799    0.08    109.67   
   144. A(H  29,C  28,H  30)          106.48 -0.000625    0.70    107.18   
   145. A(H  13,H  30,C  28)          137.60  0.001254    0.10    137.70   
   146. A(H  10,H  30,C  28)           90.07  0.000501   -0.10     89.96   
   147. A(H  10,H  30,H  13)           51.38  0.000727    0.12     51.50   
   148. A(H  33,C  31,C  34)          109.52 -0.000544   -0.00    109.52   
   149. A(H  32,C  31,C  34)          109.63 -0.000237   -0.08    109.55   
   150. A(C  28,C  31,C  34)          113.27  0.002900   -0.67    112.60   
   151. A(H  32,C  31,H  33)          106.55 -0.000386    0.57    107.12   
   152. A(C  28,C  31,H  33)          108.65 -0.000818    0.10    108.76   
   153. A(C  28,C  31,H  32)          108.99 -0.001116    0.16    109.15   
   154. A(H  36,C  34,C  38)          109.48 -0.000701    0.04    109.51   
   155. A(C  31,C  34,C  38)          113.07  0.003161   -0.75    112.32   
   156. A(H  35,C  34,H  36)          106.25 -0.000511    0.68    106.93   
   157. A(C  31,C  34,H  36)          109.10 -0.000731    0.04    109.14   
   158. A(C  31,C  34,H  35)          109.25 -0.000741    0.04    109.29   
   159. A(H  35,C  34,C  38)          109.47 -0.000703    0.04    109.51   
   160. A(H  10,N  37,C  28)          108.50 -0.000865    0.16    108.66   
   161. A(H  10,N  37,H  27)          131.66 -0.000346    0.08    131.74   
   162. A(H  10,N  37,H  15)           86.64  0.000751   -0.25     86.40   
   163. A(H  27,N  37,C  28)          110.05  0.001210   -0.22    109.84   
   164. A(H  15,N  37,C  28)          109.28 -0.000580   -0.01    109.27   
   165. A(H  15,N  37,H  27)          106.62 -0.000442    0.25    106.87   
   166. A(H  39,C  38,H  40)          107.68 -0.001945    0.34    108.02   
   167. A(C  34,C  38,H  40)          111.11  0.001201   -0.21    110.90   
   168. A(C  34,C  38,H  39)          111.52  0.002607   -0.50    111.01   
   169. A(H  40,C  38,H  41)          107.56 -0.001535    0.35    107.90   
   170. A(H  39,C  38,H  41)          107.72 -0.001933    0.32    108.05   
   171. A(C  34,C  38,H  41)          111.07  0.001283   -0.23    110.84   
   172. A(H  44,C  42,H  45)          107.53 -0.001583    0.35    107.88   
   173. A(H  43,C  42,H  45)          107.69 -0.001962    0.34    108.02   
   174. A(C  22,C  42,H  45)          111.14  0.001266   -0.22    110.91   
   175. A(H  43,C  42,H  44)          107.68 -0.001970    0.33    108.01   
   176. A(C  22,C  42,H  44)          111.11  0.001317   -0.24    110.87   
   177. A(C  22,C  42,H  43)          111.52  0.002600   -0.50    111.01   
   178. D(C   2,C   1,C   0,H  26)    179.83 -0.000006    0.03    179.86   
   179. D(H   6,C   1,C   0,C   5)   -179.38  0.000141   -0.20   -179.59   
   180. D(C   2,C   1,C   0,C   5)     -0.07  0.000095   -0.11     -0.18   
   181. D(H   6,C   1,C   0,H  26)      0.52  0.000040   -0.06      0.46   
   182. D(C   3,C   2,C   1,C   0)      0.15 -0.000079    0.12      0.27   
   183. D(C  16,C   2,C   1,C   0)    179.99  0.000057    0.03    180.02   
   184. D(C  16,C   2,C   1,H   6)     -0.69  0.000010    0.12     -0.57   
   185. D(C   3,C   2,C   1,H   6)    179.47 -0.000126    0.22    179.69   
   186. D(H  15,C   3,C   2,C   1)   -140.26 -0.000142    0.01   -140.25   
   187. D(H  15,C   3,C   2,C  16)     39.90 -0.000278    0.11     40.01   
   188. D(H   7,C   3,C   2,C   1)    179.50  0.000152   -0.12    179.38   
   189. D(H   7,C   3,C   2,C  16)     -0.34  0.000015   -0.02     -0.36   
   190. D(C   4,C   3,C   2,C   1)     -0.12 -0.000000   -0.07     -0.19   
   191. D(C   4,C   3,C   2,C  16)   -179.96 -0.000137    0.03   -179.93   
   192. D(C   5,C   4,C   3,H  15)    114.92  0.000016   -0.16    114.76   
   193. D(C   5,C   4,C   3,H   7)   -179.60 -0.000089    0.05   -179.55   
   194. D(H  25,C   4,C   3,H  15)    -65.21 -0.000013   -0.11    -65.32   
   195. D(H  25,C   4,C   3,C   2)    179.89  0.000037    0.06    179.94   
   196. D(H  25,C   4,C   3,H   7)      0.27 -0.000118    0.10      0.38   
   197. D(C   5,C   4,C   3,C   2)      0.02  0.000066    0.00      0.02   
   198. D(C   0,C   5,C   4,H  25)   -179.81 -0.000026   -0.04   -179.85   
   199. D(H   8,C   5,C   4,C   3)    179.99 -0.000026    0.01    180.00   
   200. D(C   4,C   5,C   0,H  26)   -179.94  0.000075   -0.10   -180.04   
   201. D(C   0,C   5,C   4,C   3)      0.06 -0.000054    0.01      0.07   
   202. D(H   8,C   5,C   0,C   1)   -179.96 -0.000055    0.04   -179.92   
   203. D(H   8,C   5,C   0,H  26)      0.14  0.000046   -0.10      0.04   
   204. D(H   8,C   5,C   4,H  25)      0.12  0.000003   -0.04      0.08   
   205. D(C   4,C   5,C   0,C   1)     -0.04 -0.000026    0.04      0.01   
   206. D(H  15,H   7,C   3,C   4)   -125.78 -0.000090   -0.01   -125.78   
   207. D(H  15,H   7,C   3,C   2)     54.61 -0.000241    0.04     54.65   
   208. D(H  15,H  10,N   9,C  11)    -74.78  0.000767   -0.32    -75.10   
   209. D(N  37,H  10,N   9,H  14)   -169.64 -0.000676    0.20   -169.45   
   210. D(N  37,H  10,N   9,C  11)    -49.99  0.000326   -0.03    -50.03   
   211. D(H  30,H  10,N   9,H  14)   -126.61 -0.000189    0.06   -126.55   
   212. D(H  30,H  10,N   9,C  11)     -6.96  0.000813   -0.17     -7.13   
   213. D(H  15,H  10,N   9,H  14)    165.57 -0.000235   -0.09    165.47   
   214. D(C  19,C  11,N   9,H  10)    176.45 -0.000281    0.18    176.63   
   215. D(C  19,C  11,N   9,H  14)    -65.63 -0.000238    0.18    -65.45   
   216. D(H  13,C  11,N   9,H  14)    174.62 -0.000637    0.16    174.78   
   217. D(H  12,C  11,N   9,H  10)    -60.56  0.000296   -0.24    -60.80   
   218. D(H  13,C  11,N   9,H  10)     56.70 -0.000680    0.16     56.86   
   219. D(H  12,C  11,N   9,H  14)     57.36  0.000339   -0.24     57.12   
   220. D(H  30,H  13,C  11,H  12)     45.17  0.000065   -0.15     45.01   
   221. D(H  30,H  13,C  11,C  19)    162.79 -0.000878    0.18    162.97   
   222. D(H  30,H  13,C  11,N   9)    -76.20  0.000364   -0.19    -76.39   
   223. D(O  18,H  13,C  11,N   9)     15.56  0.000368   -0.23     15.34   
   224. D(O  18,H  13,C  11,C  19)   -105.45 -0.000875    0.14   -105.31   
   225. D(H  17,H  13,C  11,C  19)    -71.39 -0.000595    0.27    -71.12   
   226. D(H  17,H  13,C  11,H  12)    170.99  0.000348   -0.07    170.92   
   227. D(O  18,H  13,C  11,H  12)    136.93  0.000068   -0.20    136.74   
   228. D(H  17,H  13,C  11,N   9)     49.62  0.000647   -0.10     49.52   
   229. D(O  18,H  15,C   3,C   4)   -173.08 -0.000177   -0.07   -173.15   
   230. D(O  18,H  15,C   3,H   7)     89.12 -0.000158   -0.23     88.90   
   231. D(O  18,H  15,C   3,C   2)    -45.23 -0.000518   -0.14    -45.37   
   232. D(C  16,H  15,C   3,H   7)    112.80  0.000003   -0.17    112.63   
   233. D(C  16,H  15,C   3,C   4)   -149.41 -0.000016   -0.01   -149.42   
   234. D(H  10,H  15,C   3,C   2)     37.97 -0.000311    0.03     38.00   
[...]
  13:        61.32    0.000000  (  0.000000   0.000000   0.000000)
  14:        92.07    0.000000  (  0.000000   0.000000   0.000000)
  15:        93.43    0.000000  (  0.000000   0.000000   0.000000)
  16:       113.32    0.000000  (  0.000000   0.000000   0.000000)
  17:       124.62    0.000000  (  0.000000   0.000000   0.000000)
  18:       131.35    0.000000  (  0.000000   0.000000   0.000000)
  19:       155.50    0.000000  (  0.000000   0.000000   0.000000)
  20:       168.23    0.000000  (  0.000000   0.000000   0.000000)
  21:       194.39    0.000000  (  0.000000   0.000000   0.000000)
  22:       205.32    0.000000  (  0.000000   0.000000   0.000000)
  23:       221.42    0.000000  (  0.000000   0.000000   0.000000)
  24:       238.45    0.000000  (  0.000000   0.000000   0.000000)
  25:       239.48    0.000000  (  0.000000   0.000000   0.000000)
  26:       259.13    0.000000  (  0.000000   0.000000   0.000000)
  27:       300.72    0.000000  (  0.000000   0.000000   0.000000)
  28:       366.73    0.000000  (  0.000000   0.000000   0.000000)
  29:       381.67    0.000000  (  0.000000   0.000000   0.000000)
  30:       398.40    0.000000  (  0.000000   0.000000   0.000000)
  31:       401.44    0.000000  (  0.000000   0.000000   0.000000)
  32:       419.27    0.000000  (  0.000000   0.000000   0.000000)
  33:       428.36    0.000000  (  0.000000   0.000000   0.000000)
  34:       450.86    0.000000  (  0.000000   0.000000   0.000000)
  35:       508.93    0.000000  (  0.000000   0.000000   0.000000)
  36:       553.08    0.000000  (  0.000000   0.000000   0.000000)
  37:       587.91    0.000000  (  0.000000   0.000000   0.000000)
  38:       629.90    0.000000  (  0.000000   0.000000   0.000000)
  39:       665.43    0.000000  (  0.000000   0.000000   0.000000)
  40:       720.71    0.000000  (  0.000000   0.000000   0.000000)
  41:       756.53    0.000000  (  0.000000   0.000000   0.000000)
  42:       776.84    0.000000  (  0.000000   0.000000   0.000000)
  43:       779.74    0.000000  (  0.000000   0.000000   0.000000)
  44:       822.90    0.000000  (  0.000000   0.000000   0.000000)
  45:       827.99    0.000000  (  0.000000   0.000000   0.000000)
  46:       832.34    0.000000  (  0.000000   0.000000   0.000000)
  47:       878.21    0.000000  (  0.000000   0.000000   0.000000)
  48:       903.79    0.000000  (  0.000000   0.000000   0.000000)
  49:       925.10    0.000000  (  0.000000   0.000000   0.000000)
  50:       931.13    0.000000  (  0.000000   0.000000   0.000000)
  51:       931.72    0.000000  (  0.000000   0.000000   0.000000)
  52:       935.32    0.000000  (  0.000000   0.000000   0.000000)
  53:       940.02    0.000000  (  0.000000   0.000000   0.000000)
  54:       945.34    0.000000  (  0.000000   0.000000   0.000000)
  55:       986.05    0.000000  (  0.000000   0.000000   0.000000)
  56:      1004.81    0.000000  (  0.000000   0.000000   0.000000)
  57:      1010.03    0.000000  (  0.000000   0.000000   0.000000)
  58:      1027.54    0.000000  (  0.000000   0.000000   0.000000)
  59:      1046.56    0.000000  (  0.000000   0.000000   0.000000)
  60:      1067.61    0.000000  (  0.000000   0.000000   0.000000)
  61:      1077.94    0.000000  (  0.000000   0.000000   0.000000)
  62:      1078.16    0.000000  (  0.000000   0.000000   0.000000)
  63:      1095.50    0.000000  (  0.000000   0.000000   0.000000)
  64:      1099.09    0.000000  (  0.000000   0.000000   0.000000)
  65:      1108.23    0.000000  (  0.000000   0.000000   0.000000)
  66:      1114.15    0.000000  (  0.000000   0.000000   0.000000)
  67:      1116.93    0.000000  (  0.000000   0.000000   0.000000)
  68:      1126.48    0.000000  (  0.000000   0.000000   0.000000)
  69:      1150.16    0.000000  (  0.000000   0.000000   0.000000)
  70:      1176.32    0.000000  (  0.000000   0.000000   0.000000)
  71:      1179.68    0.000000  (  0.000000   0.000000   0.000000)
  72:      1186.87    0.000000  (  0.000000   0.000000   0.000000)
  73:      1191.54    0.000000  (  0.000000   0.000000   0.000000)
  74:      1206.51    0.000000  (  0.000000   0.000000   0.000000)
  75:      1213.12    0.000000  (  0.000000   0.000000   0.000000)
  76:      1227.82    0.000000  (  0.000000   0.000000   0.000000)
  77:      1265.80    0.000000  (  0.000000   0.000000   0.000000)
  78:      1271.41    0.000000  (  0.000000   0.000000   0.000000)
  79:      1272.19    0.000000  (  0.000000   0.000000   0.000000)
  80:      1274.35    0.000000  (  0.000000   0.000000   0.000000)
  81:      1276.82    0.000000  (  0.000000   0.000000   0.000000)
  82:      1282.14    0.000000  (  0.000000   0.000000   0.000000)
  83:      1284.83    0.000000  (  0.000000   0.000000   0.000000)
  84:      1316.64    0.000000  (  0.000000   0.000000   0.000000)
  85:      1320.70    0.000000  (  0.000000   0.000000   0.000000)
  86:      1336.47    0.000000  (  0.000000   0.000000   0.000000)
  87:      1344.97    0.000000  (  0.000000   0.000000   0.000000)
  88:      1354.45    0.000000  (  0.000000   0.000000   0.000000)
  89:      1368.82    0.000000  (  0.000000   0.000000   0.000000)
  90:      1370.01    0.000000  (  0.000000   0.000000   0.000000)
  91:      1413.81    0.000000  (  0.000000   0.000000   0.000000)
  92:      1414.02    0.000000  (  0.000000   0.000000   0.000000)
  93:      1435.68    0.000000  (  0.000000   0.000000   0.000000)
  94:      1464.69    0.000000  (  0.000000   0.000000   0.000000)
  95:      1471.93    0.000000  (  0.000000   0.000000   0.000000)
  96:      1481.48    0.000000  (  0.000000   0.000000   0.000000)
  97:      1482.07    0.000000  (  0.000000   0.000000   0.000000)
  98:      1488.76    0.000000  (  0.000000   0.000000   0.000000)
  99:      1491.43    0.000000  (  0.000000   0.000000   0.000000)
 100:      1494.48    0.000000  (  0.000000   0.000000   0.000000)
 101:      1494.79    0.000000  (  0.000000   0.000000   0.000000)
 102:      1500.30    0.000000  (  0.000000   0.000000   0.000000)
 103:      1501.45    0.000000  (  0.000000   0.000000   0.000000)
 104:      1502.75    0.000000  (  0.000000   0.000000   0.000000)
 105:      1504.07    0.000000  (  0.000000   0.000000   0.000000)
 106:      1540.56    0.000000  (  0.000000   0.000000   0.000000)
 107:      1560.09    0.000000  (  0.000000   0.000000   0.000000)
 108:      1590.48    0.000000  (  0.000000   0.000000   0.000000)
 109:      1596.03    0.000000  (  0.000000   0.000000   0.000000)
 110:      2711.60    0.000000  (  0.000000   0.000000   0.000000)
 111:      2905.18    0.000000  (  0.000000   0.000000   0.000000)
 112:      2939.23    0.000000  (  0.000000   0.000000   0.000000)
 113:      2948.86    0.000000  (  0.000000   0.000000   0.000000)
 114:      2958.84    0.000000  (  0.000000   0.000000   0.000000)
 115:      2960.00    0.000000  (  0.000000   0.000000   0.000000)
 116:      2964.29    0.000000  (  0.000000   0.000000   0.000000)
 117:      2966.60    0.000000  (  0.000000   0.000000   0.000000)
 118:      2968.92    0.000000  (  0.000000   0.000000   0.000000)
 119:      2974.02    0.000000  (  0.000000   0.000000   0.000000)
 120:      2978.90    0.000000  (  0.000000   0.000000   0.000000)
 121:      2983.32    0.000000  (  0.000000   0.000000   0.000000)
 122:      2990.42    0.000000  (  0.000000   0.000000   0.000000)
 123:      3023.19    0.000000  (  0.000000   0.000000   0.000000)
 124:      3023.97    0.000000  (  0.000000   0.000000   0.000000)
 125:      3027.55    0.000000  (  0.000000   0.000000   0.000000)
 126:      3027.97    0.000000  (  0.000000   0.000000   0.000000)
 127:      3030.95    0.000000  (  0.000000   0.000000   0.000000)
 128:      3034.46    0.000000  (  0.000000   0.000000   0.000000)
 129:      3038.24    0.000000  (  0.000000   0.000000   0.000000)
 130:      3068.53    0.000000  (  0.000000   0.000000   0.000000)
 131:      3071.84    0.000000  (  0.000000   0.000000   0.000000)
 132:      3076.95    0.000000  (  0.000000   0.000000   0.000000)
 133:      3082.63    0.000000  (  0.000000   0.000000   0.000000)
 134:      3090.44    0.000000  (  0.000000   0.000000   0.000000)
 135:      3264.92    0.000000  (  0.000000   0.000000   0.000000)
 136:      3366.70    0.000000  (  0.000000   0.000000   0.000000)
 137:      3386.58    0.000000  (  0.000000   0.000000   0.000000)

The first frequency considered to be a vibration is 6
The total number of vibrations considered is 132


--------------------------
THERMOCHEMISTRY AT 298.15K
--------------------------

Temperature         ... 298.15 K
Pressure            ... 1.00 atm
Total Mass          ... 252.40 AMU

Throughout the following assumptions are being made:
  (1) The electronic state is orbitally nondegenerate
  (2) There are no thermally accessible electronically excited states
  (3) Hindered rotations indicated by low frequency modes are not
      treated as such but are treated as vibrations and this may
      cause some error
  (4) All equations used are the standard statistical mechanics
      equations for an ideal gas
  (5) All vibrations are strictly harmonic

freq.      10.16  E(vib)   ...       0.58 
freq.      13.64  E(vib)   ...       0.57 
freq.      23.76  E(vib)   ...       0.56 
freq.      33.51  E(vib)   ...       0.55 
freq.      42.01  E(vib)   ...       0.53 
freq.      49.16  E(vib)   ...       0.52 
freq.      60.23  E(vib)   ...       0.51 
freq.      61.32  E(vib)   ...       0.51 
freq.      92.07  E(vib)   ...       0.47 
freq.      93.43  E(vib)   ...       0.47 
freq.     113.32  E(vib)   ...       0.45 
freq.     124.62  E(vib)   ...       0.43 
freq.     131.35  E(vib)   ...       0.42 
freq.     155.50  E(vib)   ...       0.40 
freq.     168.23  E(vib)   ...       0.38 
freq.     194.39  E(vib)   ...       0.36 
freq.     205.32  E(vib)   ...       0.35 
freq.     221.42  E(vib)   ...       0.33 
freq.     238.45  E(vib)   ...       0.32 
freq.     239.48  E(vib)   ...       0.31 
freq.     259.13  E(vib)   ...       0.30 
freq.     300.72  E(vib)   ...       0.26 
freq.     366.73  E(vib)   ...       0.22 
freq.     381.67  E(vib)   ...       0.21 
freq.     398.40  E(vib)   ...       0.20 
freq.     401.44  E(vib)   ...       0.19 
freq.     419.27  E(vib)   ...       0.18 
freq.     428.36  E(vib)   ...       0.18 
freq.     450.86  E(vib)   ...       0.17 
freq.     508.93  E(vib)   ...       0.14 
freq.     553.08  E(vib)   ...       0.12 
freq.     587.91  E(vib)   ...       0.10 
freq.     629.90  E(vib)   ...       0.09 
freq.     665.43  E(vib)   ...       0.08 
freq.     720.71  E(vib)   ...       0.07 
freq.     756.53  E(vib)   ...       0.06 
freq.     776.84  E(vib)   ...       0.05 
freq.     779.74  E(vib)   ...       0.05 
freq.     822.90  E(vib)   ...       0.05 
freq.     827.99  E(vib)   ...       0.04 
freq.     832.34  E(vib)   ...       0.04 
freq.     878.21  E(vib)   ...       0.04 
freq.     903.79  E(vib)   ...       0.03 
freq.     925.10  E(vib)   ...       0.03 
freq.     931.13  E(vib)   ...       0.03 
freq.     931.72  E(vib)   ...       0.03 
freq.     935.32  E(vib)   ...       0.03 
freq.     940.02  E(vib)   ...       0.03 
freq.     945.34  E(vib)   ...       0.03 
freq.     986.05  E(vib)   ...       0.02 
freq.    1004.81  E(vib)   ...       0.02 
freq.    1010.03  E(vib)   ...       0.02 
freq.    1027.54  E(vib)   ...       0.02 
freq.    1046.56  E(vib)   ...       0.02 
freq.    1067.61  E(vib)   ...       0.02 
freq.    1077.94  E(vib)   ...       0.02 
freq.    1078.16  E(vib)   ...       0.02 
freq.    1095.50  E(vib)   ...       0.02 
freq.    1099.09  E(vib)   ...       0.02 
freq.    1108.23  E(vib)   ...       0.02 
freq.    1114.15  E(vib)   ...       0.01 
freq.    1116.93  E(vib)   ...       0.01 
freq.    1126.48  E(vib)   ...       0.01 
freq.    1150.16  E(vib)   ...       0.01 
freq.    1176.32  E(vib)   ...       0.01 
freq.    1179.68  E(vib)   ...       0.01 
freq.    1186.87  E(vib)   ...       0.01 
freq.    1191.54  E(vib)   ...       0.01 
freq.    1206.51  E(vib)   ...       0.01 
freq.    1213.12  E(vib)   ...       0.01 
freq.    1227.82  E(vib)   ...       0.01 
freq.    1265.80  E(vib)   ...       0.01 
freq.    1271.41  E(vib)   ...       0.01 
freq.    1272.19  E(vib)   ...       0.01 
freq.    1274.35  E(vib)   ...       0.01 
freq.    1276.82  E(vib)   ...       0.01 
freq.    1282.14  E(vib)   ...       0.01 
freq.    1284.83  E(vib)   ...       0.01 
freq.    1316.64  E(vib)   ...       0.01 
freq.    1320.70  E(vib)   ...       0.01 
freq.    1336.47  E(vib)   ...       0.01 
freq.    1344.97  E(vib)   ...       0.01 
freq.    1354.45  E(vib)   ...       0.01 
freq.    1368.82  E(vib)   ...       0.01 
freq.    1370.01  E(vib)   ...       0.01 
freq.    1413.81  E(vib)   ...       0.00 
freq.    1414.02  E(vib)   ...       0.00 
freq.    1435.68  E(vib)   ...       0.00 
freq.    1464.69  E(vib)   ...       0.00 
freq.    1471.93  E(vib)   ...       0.00 
freq.    1481.48  E(vib)   ...       0.00 
freq.    1482.07  E(vib)   ...       0.00 
freq.    1488.76  E(vib)   ...       0.00 
freq.    1491.43  E(vib)   ...       0.00 
freq.    1494.48  E(vib)   ...       0.00 
freq.    1494.79  E(vib)   ...       0.00 
freq.    1500.30  E(vib)   ...       0.00 
freq.    1501.45  E(vib)   ...       0.00 
freq.    1502.75  E(vib)   ...       0.00 
freq.    1504.07  E(vib)   ...       0.00 
freq.    1540.56  E(vib)   ...       0.00 
freq.    1560.09  E(vib)   ...       0.00 
freq.    1590.48  E(vib)   ...       0.00 
freq.    1596.03  E(vib)   ...       0.00 
freq.    2711.60  E(vib)   ...       0.00 
freq.    2905.18  E(vib)   ...       0.00 
freq.    2939.23  E(vib)   ...       0.00 
freq.    2948.86  E(vib)   ...       0.00 
freq.    2958.84  E(vib)   ...       0.00 
freq.    2960.00  E(vib)   ...       0.00 
freq.    2964.29  E(vib)   ...       0.00 
freq.    2966.60  E(vib)   ...       0.00 
freq.    2968.92  E(vib)   ...       0.00 
freq.    2974.02  E(vib)   ...       0.00 
freq.    2978.90  E(vib)   ...       0.00 
freq.    2983.32  E(vib)   ...       0.00 
freq.    2990.42  E(vib)   ...       0.00 
freq.    3023.19  E(vib)   ...       0.00 
freq.    3023.97  E(vib)   ...       0.00 
freq.    3027.55  E(vib)   ...       0.00 
freq.    3027.97  E(vib)   ...       0.00 
freq.    3030.95  E(vib)   ...       0.00 
freq.    3034.46  E(vib)   ...       0.00 
freq.    3038.24  E(vib)   ...       0.00 
freq.    3068.53  E(vib)   ...       0.00 
freq.    3071.84  E(vib)   ...       0.00 
freq.    3076.95  E(vib)   ...       0.00 
freq.    3082.63  E(vib)   ...       0.00 
freq.    3090.44  E(vib)   ...       0.00 
freq.    3264.92  E(vib)   ...       0.00 
freq.    3366.70  E(vib)   ...       0.00 
freq.    3386.58  E(vib)   ...       0.00 

------------
INNER ENERGY
------------

The inner energy is: U= E(el) + E(ZPE) + E(vib) + E(rot) + E(trans)
    E(el)   - is the total energy from the electronic structure calculation
              = E(kin-el) + E(nuc-el) + E(el-el) + E(nuc-nuc)
    E(ZPE)  - the the zero temperature vibrational energy from the frequency calculation
    E(vib)  - the the finite temperature correction to E(ZPE) due to population
              of excited vibrational states
    E(rot)  - is the rotational thermal energy
    E(trans)- is the translational thermal energy

Summary of contributions to the inner energy U:
Electronic energy                ...    -56.28889845 Eh
Zero point energy                ...      0.40472893 Eh     253.97 kcal/mol
Thermal vibrational correction   ...      0.02000870 Eh      12.56 kcal/mol
Thermal rotational correction    ...      0.00141627 Eh       0.89 kcal/mol
Thermal translational correction ...      0.00141627 Eh       0.89 kcal/mol
-----------------------------------------------------------------------
Total thermal energy                    -55.86132828 Eh


Summary of corrections to the electronic energy:
(perhaps to be used in another calculation)
Total thermal correction                  0.02284124 Eh      14.33 kcal/mol
Non-thermal (ZPE) correction              0.40472893 Eh     253.97 kcal/mol
-----------------------------------------------------------------------
Total correction                          0.42757017 Eh     268.30 kcal/mol


--------
ENTHALPY
--------

The enthalpy is H = U + kB*T
                kB is Boltzmann's constant
Total free energy                 ...    -55.86132828 Eh 
Thermal Enthalpy correction       ...      0.00094421 Eh       0.59 kcal/mol
-----------------------------------------------------------------------
Total Enthalpy                    ...    -55.86038407 Eh


Note: Only C1 symmetry has been detected, increase convergence thresholds 
      if your molecule has a higher symmetry. Symmetry factor of 1.0 is   
      used for the rotational entropy correction. 
 

Note: Rotational entropy computed according to Herzberg 
Infrared and Raman Spectra, Chapter V,1, Van Nostrand Reinhold, 1945 
Point Group:  C1, Symmetry Number:   1  
Rotational constants in cm-1:     0.011095     0.006716     0.004442 

Vibrational entropy computed according to the QRRHO of S. Grimme
Chem.Eur.J. 2012 18 9955


-------
ENTROPY
-------

The entropy contributions are T*S = T*(S(el)+S(vib)+S(rot)+S(trans))
     S(el)   - electronic entropy
     S(vib)  - vibrational entropy
     S(rot)  - rotational entropy
     S(trans)- translational entropy
The entropies will be listed as mutliplied by the temperature to get
units of energy

Electronic entropy                ...      0.00000000 Eh      0.00 kcal/mol
Vibrational entropy               ...      0.03766866 Eh     23.64 kcal/mol
Rotational entropy                ...      0.01655498 Eh     10.39 kcal/mol
Translational entropy             ...      0.02018250 Eh     12.66 kcal/mol
-----------------------------------------------------------------------
Final entropy term                ...      0.07440614 Eh     46.69 kcal/mol

In case the symmetry of your molecule has not been determined correctly
or in case you have a reason to use a different symmetry number we print 
out the resulting rotational entropy values for sn=1,12 :
 --------------------------------------------------------
|  sn= 1 | S(rot)=       0.01655498 Eh     10.39 kcal/mol|
|  sn= 2 | S(rot)=       0.01590052 Eh      9.98 kcal/mol|
|  sn= 3 | S(rot)=       0.01551769 Eh      9.74 kcal/mol|
|  sn= 4 | S(rot)=       0.01524607 Eh      9.57 kcal/mol|
|  sn= 5 | S(rot)=       0.01503538 Eh      9.43 kcal/mol|
|  sn= 6 | S(rot)=       0.01486323 Eh      9.33 kcal/mol|
|  sn= 7 | S(rot)=       0.01471769 Eh      9.24 kcal/mol|
|  sn= 8 | S(rot)=       0.01459161 Eh      9.16 kcal/mol|
|  sn= 9 | S(rot)=       0.01448040 Eh      9.09 kcal/mol|
|  sn=10 | S(rot)=       0.01438092 Eh      9.02 kcal/mol|
|  sn=11 | S(rot)=       0.01429093 Eh      8.97 kcal/mol|
|  sn=12 | S(rot)=       0.01420878 Eh      8.92 kcal/mol|
 --------------------------------------------------------


-------------------
GIBBS FREE ENERGY
-------------------

The Gibbs free energy is G = H - T*S

Total enthalpy                    ...    -55.86038407 Eh 
Total entropy correction          ...     -0.07440614 Eh    -46.69 kcal/mol
-----------------------------------------------------------------------
Final Gibbs free energy         ...    -55.93479021 Eh

For completeness - the Gibbs free energy minus the electronic energy
G-E(el)                           ...      0.35410824 Eh    222.21 kcal/mol


Total Time for Numerical Frequencies  :       156.456 sec

Timings for individual modules:

Sum of individual times         ...       61.770 sec (=   1.030 min)
Geometry relaxation             ...       47.668 sec (=   0.794 min)  77.2 %
XTB module                      ...       14.102 sec (=   0.235 min)  22.8 %
                             ****ORCA TERMINATED NORMALLY****
TOTAL RUN TIME: 0 days 0 hours 4 minutes 9 seconds 707 msec
