
                                 *****************
                                 * O   R   C   A *
                                 *****************

           --- An Ab Initio, DFT and Semiempirical electronic structure package ---

                  #######################################################
                  #                        -***-                        #
                  #          Department of theory and spectroscopy      #
                  #               Directorship: Frank Neese             #
                  #        Max Planck Institute fuer Kohlenforschung    #
                  #                Kaiser Wilhelm Platz 1               #
                  #                 D-45470 Muelheim/Ruhr               #
                  #                      Germany                        #
                  #                                                     #
                  #                  All rights reserved                #
                  #                        -***-                        #
                  #######################################################


                         Program Version 4.2.1 -  RELEASE  -


 With contributions from (in alphabetic order):
   Daniel Aravena         : Magnetic Suceptibility
   Michael Atanasov       : Ab Initio Ligand Field Theory (pilot matlab implementation)
   Alexander A. Auer      : GIAO ZORA, VPT2
   Ute Becker             : Parallelization
   Giovanni Bistoni       : ED, misc. LED, open-shell LED, HFLD
   Martin Brehm           : Molecular dynamics
   Dmytro Bykov           : SCF Hessian
   Vijay G. Chilkuri      : MRCI spin determinant printing, contributions to CSF-ICE
   Dipayan Datta          : RHF DLPNO-CCSD density
   Achintya Kumar Dutta   : EOM-CC, STEOM-CC
   Dmitry Ganyushin       : Spin-Orbit,Spin-Spin,Magnetic field MRCI
   Miquel Garcia          : C-PCM Hessian, Gaussian charge scheme
   Yang Guo               : DLPNO-NEVPT2, CIM, IAO-localization
   Andreas Hansen         : Spin unrestricted coupled pair/coupled cluster methods
   Benjamin Helmich-Paris : CASSCF linear response (MC-RPA)
   Lee Huntington         : MR-EOM, pCC
   Robert Izsak           : Overlap fitted RIJCOSX, COSX-SCS-MP3, EOM
   Christian Kollmar      : KDIIS, OOCD, Brueckner-CCSD(T), CCSD density
   Simone Kossmann        : Meta GGA functionals, TD-DFT gradient, OOMP2, MP2 Hessian
   Martin Krupicka        : AUTO-CI
   Lucas Lang             : DCDCAS
   Dagmar Lenk            : GEPOL surface, SMD
   Dimitrios Liakos       : Extrapolation schemes; Compound Job, initial MDCI parallelization
   Dimitrios Manganas     : Further ROCIS development; embedding schemes
   Dimitrios Pantazis     : SARC Basis sets
   Taras Petrenko         : DFT Hessian,TD-DFT gradient, ASA, ECA, R-Raman, ABS, FL, XAS/XES, NRVS
   Peter Pinski           : DLPNO-MP2, DLPNO-MP2 Gradient
   Christoph Reimann      : Effective Core Potentials
   Marius Retegan         : Local ZFS, SOC
   Christoph Riplinger    : Optimizer, TS searches, QM/MM, DLPNO-CCSD(T), (RO)-DLPNO pert. Triples
   Tobias Risthaus        : Range-separated hybrids, TD-DFT gradient, RPA, STAB
   Michael Roemelt        : Original ROCIS implementation
   Masaaki Saitow         : Open-shell DLPNO-CCSD energy and density
   Barbara Sandhoefer     : DKH picture change effects
   Avijit Sen             : IP-ROCIS
   Kantharuban Sivalingam : CASSCF convergence, NEVPT2, FIC-MRCI
   Bernardo de Souza      : ESD, SOC TD-DFT
   Georgi Stoychev        : AutoAux, RI-MP2 NMR
   Willem Van den Heuvel  : Paramagnetic NMR
   Boris Wezisla          : Elementary symmetry handling
   Frank Wennmohs         : Technical directorship


 We gratefully acknowledge several colleagues who have allowed us to
 interface, adapt or use parts of their codes:
   Stefan Grimme, W. Hujo, H. Kruse,             : VdW corrections, initial TS optimization,
                  C. Bannwarth                     DFT functionals, gCP, sTDA/sTD-DF
   Ed Valeev, F. Pavosevic, A. Kumar             : LibInt (2-el integral package), F12 methods
   Garnet Chan, S. Sharma, J. Yang, R. Olivares  : DMRG
   Ulf Ekstrom                                   : XCFun DFT Library
   Mihaly Kallay                                 : mrcc  (arbitrary order and MRCC methods)
   Andreas Klamt, Michael Diedenhofen            : otool_cosmo (COSMO solvation model)
   Jiri Pittner, Ondrej Demel                    : Mk-CCSD
   Frank Weinhold                                : gennbo (NPA and NBO analysis)
   Christopher J. Cramer and Donald G. Truhlar   : smd solvation model
   Lars Goerigk                                  : TD-DFT with DH, B97 family of functionals
   V. Asgeirsson, H. Jonsson                     : NEB implementation
   FAccTs GmbH                                   : IRC, NEB, NEB-TS, Multilevel, MM, QM/MM, CI optimization
   S Lehtola, MJT Oliveira, MAL Marques          : LibXC Library


 Your calculation uses the libint2 library for the computation of 2-el integrals
 For citations please refer to: http://libint.valeyev.net

 Your ORCA version has been built with support for libXC version: 4.2.3
 For citations please refer to: https://tddft.org/programs/libxc/

 This ORCA versions uses:
   CBLAS   interface :  Fast vector & matrix operations
   LAPACKE interface :  Fast linear algebra routines
   SCALAPACK package :  Parallel linear algebra routines




***************************************
The coordinates will be read from file: init.xyz
***************************************


Your calculation utilizes the SMD solvation module
Please cite in your paper:
A.V. Marenich, C.J. Cramer, D.G. Truhlar J. Phys. Chem. B, 113, (2009), 6378 

Your calculation utilizes the semiempirical GFN2-xTB method
Please cite in your paper:
C. Bannwarth, Ehlert S., S. Grimme,  J. Chem. Theory Comput., 15, (2019), 1652.
   

----- Orbital basis set information -----
Your calculation utilizes the basis: def2-SVP
   F. Weigend and R. Ahlrichs, Phys. Chem. Chem. Phys. 7, 3297 (2005).

================================================================================
                                        WARNINGS
                       Please study these warnings very carefully!
================================================================================


WARNING: The environment variable RSH_COMMAND is not set!
  ===> : All Displacements for the Numerical Hessian calculation
         will be started on localhost

WARNING: Geometry Optimization
  ===> : Switching off AutoStart
         For restart on a previous wavefunction, please use MOREAD

WARNING: Found dipole moment calculation with XTB calculation
  ===> : Switching off dipole moment calculation


INFO   : the flag for use of LIBINT has been found!

================================================================================
                                       INPUT FILE
================================================================================
NAME = opt+freq.inp
|  1> ! XTB2 Opt NumFreq
|  2> 
|  3> %cpcm
|  4>  smd true
|  5>  smdsolvent "ch2cl2"
|  6> end
|  7> 
|  8> %pal
|  9>  nprocs 12
| 10> end
| 11> 
| 12> *xyzfile 0 1 init.xyz
| 13> 
| 14> 
| 15>                          ****END OF INPUT****
================================================================================

                       *****************************
                       * Geometry Optimization Run *
                       *****************************

Geometry optimization settings:
Update method            Update   .... BFGS
Choice of coordinates    CoordSys .... Z-matrix Internals
Initial Hessian          InHess   .... Almoef's Model

Convergence Tolerances:
Energy Change            TolE     ....  5.0000e-06 Eh
Max. Gradient            TolMAXG  ....  3.0000e-04 Eh/bohr
RMS Gradient             TolRMSG  ....  1.0000e-04 Eh/bohr
Max. Displacement        TolMAXD  ....  4.0000e-03 bohr
RMS Displacement         TolRMSD  ....  2.0000e-03 bohr
Strict Convergence                ....  False
------------------------------------------------------------------------------
                        ORCA OPTIMIZATION COORDINATE SETUP
------------------------------------------------------------------------------

The optimization will be done in new redundant internal coordinates
Making redundant internal coordinates   ...  (new redundants) done
Evaluating the initial hessian          ...  (Almloef) done
Evaluating the coordinates              ...  done
Calculating the B-matrix                .... done
Calculating the G-matrix                .... done
Diagonalizing the G-matrix              .... done
Small eigenvalue found = 7.290e-03
Small eigenvalue found = 1.766e-02
The first mode is                       ....   96
The number of degrees of freedom        ....   93

    -----------------------------------------------------------------
                    Redundant Internal Coordinates


    -----------------------------------------------------------------
         Definition                    Initial Value    Approx d2E/dq
    -----------------------------------------------------------------
      1. B(C   1,C   0)                  1.3881         0.629246   
      2. B(C   2,C   1)                  1.3969         0.609133   
      3. B(C   3,C   2)                  1.3987         0.605231   
      4. B(C   4,C   3)                  1.3855         0.635163   
      5. B(C   5,C   0)                  1.3921         0.620018   
      6. B(C   5,C   4)                  1.3948         0.613784   
      7. B(H   6,C   1)                  1.0830         0.369492   
      8. B(H   7,C   3)                  1.0807         0.372547   
      9. B(H   8,C   5)                  1.0822         0.370620   
     10. B(H  10,N   9)                  1.0148         0.425204   
     11. B(C  11,N   9)                  1.4666         0.422368   
     12. B(H  12,C  11)                  1.0994         0.347880   
     13. B(H  13,C  11)                  1.0923         0.357031   
     14. B(H  14,N   9)                  1.0143         0.425904   
     15. B(H  15,H  13)                  2.9344         0.000079   
     16. B(H  15,H  10)                  2.7249         0.000170   
     17. B(H  16,H  13)                  2.7233         0.000171   
     18. B(H  16,H   7)                  2.3445         0.000687   
     19. B(H  16,H  10)                  2.3760         0.000612   
     20. B(C  17,C   2)                  1.4705         0.464844   
     21. B(C  17,H  10)                  2.9705         0.000360   
     22. B(C  17,N   9)                  2.9094         0.002108   
     23. B(H  18,N   9)                  3.0254         0.000263   
     24. B(H  18,C  17)                  1.1009         0.345907   
     25. B(O  19,H  13)                  2.6492         0.001049   
     26. B(O  19,C  17)                  1.2214         1.039567   
     27. B(O  19,H  16)                  1.8711         0.018299   
     28. B(C  20,C  11)                  1.5240         0.381871   
     29. B(H  21,H  18)                  2.7585         0.000150   
     30. B(H  21,C  20)                  1.0943         0.354393   
     31. B(H  22,C  20)                  1.0959         0.352411   
     32. B(O  23,H  16)                  0.9728         0.496149   
     33. B(O  23,H  10)                  2.3396         0.003273   
     34. B(O  23,H  15)                  0.9637         0.512914   
     35. B(C  24,C  20)                  1.5278         0.376605   
     36. B(H  25,C  24)                  1.0943         0.354501   
     37. B(H  26,C  24)                  1.0944         0.354337   
     38. B(H  27,C   4)                  1.0818         0.371177   
     39. B(H  28,C   0)                  1.0816         0.371342   
     40. B(C  29,C  24)                  1.5272         0.377392   
     41. B(H  30,C  29)                  1.0917         0.357793   
     42. B(H  31,C  29)                  1.0927         0.356567   
     43. B(H  32,C  29)                  1.0928         0.356398   
     44. A(C   1,C   0,C   5)          119.7131         0.435226   
     45. A(C   5,C   0,H  28)          120.1335         0.354753   
     46. A(C   1,C   0,H  28)          120.1533         0.355644   
     47. A(C   2,C   1,H   6)          119.4087         0.353391   
     48. A(C   0,C   1,C   2)          120.1957         0.433841   
     49. A(C   0,C   1,H   6)          120.3948         0.355342   
     50. A(C   3,C   2,C  17)          121.2568         0.410530   
     51. A(C   1,C   2,C   3)          119.8432         0.430817   
     52. A(C   1,C   2,C  17)          118.8993         0.410998   
     53. A(C   2,C   3,H   7)          119.5703         0.353499   
     54. A(C   4,C   3,H   7)          120.5364         0.356405   
     55. A(C   2,C   3,C   4)          119.8933         0.434070   
     56. A(C   5,C   4,H  27)          119.9702         0.354120   
     57. A(C   3,C   4,H  27)          119.9998         0.356182   
     58. A(C   3,C   4,C   5)          120.0300         0.435168   
     59. A(C   0,C   5,H   8)          119.8820         0.354636   
     60. A(C   4,C   5,H   8)          119.7935         0.354029   
     61. A(C   0,C   5,C   4)          120.3246         0.433282   
     62. A(C   3,H   7,H  16)          117.3575         0.128420   
     63. A(H  14,N   9,C  17)          141.5348         0.163223   
     64. A(C  11,N   9,C  17)           99.6914         0.174953   
     65. A(C  11,N   9,H  14)          110.3304         0.335344   
     66. A(H  10,N   9,C  17)           83.4782         0.163195   
     67. A(H  10,N   9,H  14)          107.2450         0.301646   
     68. A(H  10,N   9,C  11)          109.7259         0.335252   
     69. A(N   9,C  11,H  12)          112.8678         0.327090   
     70. A(H  12,C  11,C  20)          109.1358         0.323651   
     71. A(N   9,C  11,C  20)          111.3043         0.370154   
     72. A(N   9,C  11,H  13)          107.3853         0.328494   
     73. A(H  13,C  11,C  20)          109.2310         0.325034   
     74. A(H  12,C  11,H  13)          106.7504         0.288881   
     75. A(H   7,H  16,O  19)           76.2253         0.108697   
     76. A(O  19,H  16,O  23)          166.8133         0.197006   
     77. A(H   7,H  16,O  23)          104.4696         0.130570   
     78. A(N   9,C  17,O  19)           91.8337         0.194389   
     79. A(H  18,C  17,O  19)          119.9912         0.380553   
     80. A(C   2,C  17,O  19)          124.9469         0.449418   
     81. A(N   9,C  17,H  18)           85.3122         0.160644   
     82. A(C   2,C  17,H  18)          115.0126         0.334014   
     83. A(C   2,C  17,N   9)           94.7087         0.177566   
     84. A(H  16,O  19,C  17)          116.2892         0.237149   
     85. A(C  11,C  20,C  24)          113.1266         0.365223   
     86. A(H  21,C  20,H  22)          106.4328         0.289131   
     87. A(C  11,C  20,H  22)          109.1990         0.324339   
     88. A(C  11,C  20,H  21)          108.7901         0.324638   
     89. A(H  22,C  20,C  24)          109.3707         0.323601   
     90. A(H  21,C  20,C  24)          109.7000         0.323899   
     91. A(H  15,O  23,H  16)          104.6306         0.318667   
     92. A(H  26,C  24,C  29)          109.4331         0.324001   
     93. A(H  25,C  24,C  29)          109.4953         0.324026   
     94. A(C  20,C  24,C  29)          112.9434         0.364487   
     95. A(H  25,C  24,H  26)          106.2815         0.289392   
     96. A(C  20,C  24,H  26)          109.1318         0.323890   
     97. A(C  20,C  24,H  25)          109.3367         0.323915   
     98. A(H  31,C  29,H  32)          107.5284         0.289919   
     99. A(H  30,C  29,H  32)          107.6650         0.290075   
    100. A(C  24,C  29,H  32)          111.1414         0.324310   
    101. A(H  30,C  29,H  31)          107.7028         0.290097   
    102. A(C  24,C  29,H  31)          111.0662         0.324335   
    103. A(C  24,C  29,H  30)          111.5506         0.324518   
    104. D(H   6,C   1,C   0,C   5)   -179.6358         0.027449   
    105. D(H   6,C   1,C   0,H  28)      0.3004         0.027449   
    106. D(C   2,C   1,C   0,H  28)    179.9735         0.027449   
    107. D(C   2,C   1,C   0,C   5)      0.0373         0.027449   
    108. D(C  17,C   2,C   1,H   6)     -0.5719         0.025622   
    109. D(C   3,C   2,C   1,H   6)    179.7310         0.025622   
    110. D(C   3,C   2,C   1,C   0)      0.0546         0.025622   
    111. D(C  17,C   2,C   1,C   0)    179.7517         0.025622   
    112. D(C   4,C   3,C   2,C  17)   -179.8122         0.025276   
    113. D(H   7,C   3,C   2,C  17)      0.2039         0.025276   
    114. D(C   4,C   3,C   2,C   1)     -0.1224         0.025276   
    115. D(H   7,C   3,C   2,C   1)    179.8937         0.025276   
    116. D(H  27,C   4,C   3,C   2)   -179.9308         0.028002   
    117. D(C   5,C   4,C   3,C   2)      0.0980         0.028002   
    118. D(C   5,C   4,C   3,H   7)   -179.9182         0.028002   
    119. D(H  27,C   4,C   3,H   7)      0.0529         0.028002   
    120. D(H   8,C   5,C   4,H  27)     -0.0493         0.026037   
    121. D(C   0,C   5,C   4,H  27)   -179.9770         0.026037   
    122. D(H   8,C   5,C   0,H  28)      0.0740         0.026601   
    123. D(C   0,C   5,C   4,C   3)     -0.0059         0.026037   
    124. D(C   4,C   5,C   0,H  28)   -179.9983         0.026601   
    125. D(H   8,C   5,C   4,C   3)    179.9219         0.026037   
    126. D(C   4,C   5,C   0,C   1)     -0.0620         0.026601   
    127. D(H   8,C   5,C   0,C   1)   -179.9897         0.026601   
    128. D(H  16,H   7,C   3,C   4)   -141.2801         0.119092   
    129. D(H  16,H   7,C   3,C   2)     38.7037         0.119092   
    130. D(H  13,C  11,N   9,H  10)     56.1551         0.017322   
    131. D(H  12,C  11,N   9,C  17)   -147.7126         0.017322   
    132. D(H  12,C  11,N   9,H  14)     56.7311         0.017322   
    133. D(H  13,C  11,N   9,H  14)    174.1060         0.017322   
    134. D(H  12,C  11,N   9,H  10)    -61.2198         0.017322   
    135. D(C  20,C  11,N   9,C  17)     89.1714         0.017322   
    136. D(C  20,C  11,N   9,H  14)    -66.3850         0.017322   
    137. D(C  20,C  11,N   9,H  10)    175.6641         0.017322   
    138. D(H  13,C  11,N   9,C  17)    -30.3377         0.017322   
    139. D(O  19,H  16,H   7,C   3)    -63.8323         0.001505   
    140. D(O  23,H  16,H   7,C   3)    102.5870         0.001505   
    141. D(O  19,C  17,N   9,H  14)   -169.0278         0.001500   
    142. D(O  19,C  17,N   9,C  11)     49.5656         0.001500   
    143. D(O  19,C  17,N   9,H  10)    -59.4069         0.001500   
    144. D(H  18,C  17,N   9,H  14)     71.0267         0.001500   
    145. D(H  18,C  17,N   9,C  11)    -70.3799         0.001500   
    146. D(H  18,C  17,N   9,H  10)   -179.3524         0.001500   
    147. D(C   2,C  17,N   9,H  14)    -43.7397         0.001500   
    148. D(C   2,C  17,N   9,C  11)    174.8537         0.001500   
    149. D(C   2,C  17,N   9,H  10)     65.8812         0.001500   
    150. D(N   9,C  17,C   2,C   1)     83.5805         0.017071   
    151. D(O  19,C  17,C   2,C   3)     -1.1759         0.017071   
    152. D(N   9,C  17,C   2,C   3)    -96.7269         0.017071   
    153. D(O  19,C  17,C   2,C   1)    179.1314         0.017071   
    154. D(H  18,C  17,C   2,C   3)    176.2573         0.017071   
    155. D(H  18,C  17,C   2,C   1)     -3.4354         0.017071   
    156. D(H  16,O  19,C  17,N   9)     48.1273         0.116675   
    157. D(H  16,O  19,C  17,H  18)    133.7725         0.116675   
    158. D(H  16,O  19,C  17,C   2)    -48.9133         0.116675   
    159. D(C  17,O  19,H  16,H   7)     60.4811         0.001731   
    160. D(C  17,O  19,H  16,O  23)    -34.1892         0.001731   
    161. D(H  22,C  20,C  11,H  12)    -66.4896         0.011616   
    162. D(H  22,C  20,C  11,N   9)     58.7375         0.011616   
    163. D(H  21,C  20,C  11,H  13)     61.3645         0.011616   
    164. D(H  21,C  20,C  11,H  12)    177.7321         0.011616   
    165. D(H  22,C  20,C  11,H  13)    177.1428         0.011616   
    166. D(H  21,C  20,C  11,N   9)    -57.0408         0.011616   
    167. D(C  24,C  20,C  11,H  13)    -60.8098         0.011616   
    168. D(C  24,C  20,C  11,H  12)     55.5578         0.011616   
    169. D(C  24,C  20,C  11,N   9)   -179.2151         0.011616   
    170. D(H  15,O  23,H  16,O  19)   -106.6298         0.400079   
    171. D(H  15,O  23,H  16,H   7)    162.0282         0.400079   
    172. D(C  29,C  24,C  20,H  22)    -59.2981         0.011315   
    173. D(C  29,C  24,C  20,H  21)     57.0863         0.011315   
    174. D(C  29,C  24,C  20,C  11)    178.7506         0.011315   
    175. D(H  26,C  24,C  20,H  22)    178.7467         0.011315   
    176. D(H  26,C  24,C  20,H  21)    -64.8689         0.011315   
    177. D(H  26,C  24,C  20,C  11)     56.7954         0.011315   
    178. D(H  25,C  24,C  20,H  22)     62.8838         0.011315   
    179. D(H  25,C  24,C  20,H  21)    179.2681         0.011315   
    180. D(H  25,C  24,C  20,C  11)    -59.0675         0.011315   
    181. D(H  32,C  29,C  24,H  26)   -178.5592         0.011360   
    182. D(H  32,C  29,C  24,H  25)    -62.4378         0.011360   
    183. D(H  32,C  29,C  24,C  20)     59.6551         0.011360   
    184. D(H  31,C  29,C  24,H  26)     61.7715         0.011360   
    185. D(H  31,C  29,C  24,H  25)    177.8930         0.011360   
    186. D(H  31,C  29,C  24,C  20)    -60.0141         0.011360   
    187. D(H  30,C  29,C  24,H  26)    -58.3922         0.011360   
    188. D(H  30,C  29,C  24,H  25)     57.7292         0.011360   
    189. D(H  30,C  29,C  24,C  20)    179.8221         0.011360   
    -----------------------------------------------------------------

Number of atoms                         .... 33
Number of degrees of freedom            .... 189

         *************************************************************
         *                GEOMETRY OPTIMIZATION CYCLE   1            *
         *************************************************************
      -----------------------------------------------------------      
     |                   =====================                   |     
     |                           x T B                           |     
     |                   =====================                   |     
     |                         S. Grimme                         |     
     |          Mulliken Center for Theoretical Chemistry        |     
     |                    University of Bonn                     |     
      -----------------------------------------------------------      

   * xtb version 6.3.0 (49875a8) compiled by 'schneider@apollo14' on 2020-05-23

   xtb is free software: you can redistribute it and/or modify it under
   the terms of the GNU Lesser General Public License as published by
   the Free Software Foundation, either version 3 of the License, or
   (at your option) any later version.
   
   xtb is distributed in the hope that it will be useful,
   but WITHOUT ANY WARRANTY; without even the implied warranty of
   MERCHANTABILITY or FITNESS FOR A PARTICULAR PURPOSE.  See the
   GNU Lesser General Public License for more details.
   
   Cite this work as:
   * S. Grimme, C. Bannwarth, P. Shushkov, J. Chem. Theory Comput., 2017,
     13, 1989-2009. DOI: 10.1021/acs.jctc.7b00118
   * C. Bannwarth, S. Ehlert and S. Grimme., J. Chem. Theory Comput., 2019,
     15, 1652-1671. DOI: 10.1021/acs.jctc.8b01176
   * P. Pracht, E. Caldeweyher, S. Ehlert, S. Grimme, ChemRxiv, 2019, preprint.
     DOI: 10.26434/chemrxiv.8326202.v1
   
   for GFN-FF:
   * S. Spicher and S. Grimme, Angew. Chem. Int. Ed., 2020,
     DOI: 10.1002/anie.202004239
   
   for DFT-D4:
   * E. Caldeweyher, C. Bannwarth and S. Grimme, J. Chem. Phys., 2017,
     147, 034112. DOI: 10.1063/1.4993215
   * E. Caldeweyher, S. Ehlert, A. Hansen, H. Neugebauer, S. Spicher,
     C. Bannwarth and S. Grimme, J. Chem. Phys., 2019, 150, 154122.
     DOI: 10.1063/1.5090222
   
   for sTDA-xTB:
   * S. Grimme and C. Bannwarth, J. Chem. Phys., 2016, 145, 054103.
     DOI: 10.1063/1.4959605
   
   in the mass-spec context:
   * V. Asgeirsson, C. Bauer and S. Grimme, Chem. Sci., 2017, 8, 4879.
     DOI: 10.1039/c7sc00601b
   * J. Koopman and S. Grimme, ACS Omega 2019, 4, 12, 15120-15133.
     DOI: 10.1021/acsomega.9b02011
   
   for metadynamics refer to:
   * S. Grimme, J. Chem. Theory Comput., 2019, 155, 2847-2862
     DOI: 10.1021/acs.jctc.9b00143
   
   with help from (in alphabetical order)
   C. Bannwarth, F. Bohle, G. Brandenburg, E. Caldeweyher, M. Checinski,
   S. Dohm, S. Ehlert, S. Ehrlich, F. März, H. Neugebauer, J. Pisarek,
   P. Pracht, P. Shushkov, and S. Spicher.
   
 * started run on 2020/06/19 at 15:49:54.965     

           -------------------------------------------------
          |                Calculation Setup                |
           -------------------------------------------------

          program call               : /opt/orca/otool_xtb opt+freq_XTB.xyz --grad -c 0 -u 0 -P 12 --namespace opt+freq --gbsa CH2Cl2
          calculation namespace      : opt+freq
          coordinate file            : opt+freq_XTB.xyz
          number of atoms            :                    33
          number of electrons        :                    80
          charge                     :                     0
          spin                       :                   0.0
          first test random number   :      0.56363925506412

   ID    Z sym.   atoms
    1    6 C      1-6, 12, 18, 21, 25, 30
    2    1 H      7-9, 11, 13-17, 19, 22, 23, 26-29, 31-33
    3    7 N      10
    4    8 O      20, 24

molecular fragmentation (1/2 indicates fragments):
111111111222222221112222222112222
# atoms in fragment 1/2:    14    19
 fragment masses (1/2) :      106.12       91.15
CMA distance (Bohr)    :   9.306
constraining FC (au)   :  0.0500
########################################################################
[WARNING] Please study the warnings concerning your input carefully
-1- prog_main_parseArguments: Process number higher than OMP_NUM_THREADS, I hope you know what you are doing.
########################################################################
 Solvent             : CH2Cl2
 Using internal parameter file: .param_gbsa2_CH2Cl2
 Gsolv ref. state (COSMO-RS): gsolv [1 M gas/solution]
 temperature (mdtemp)       :    298.14999999999998     
 dielectric constant        :    8.9299999999999997     
 rho                        :    1.3300000000000003     
 mass                       :    84.930000000000007     
 surface tension            :    15.568945408385856     
 probe radius               :   0.71987590000000001     
 Gshift (Eh)                :    4.4408291734517593E-003
 c1                         :    1.4917377599999999     
 soset                      :    0.0000000000000000     
 HB correction              :  F

           -------------------------------------------------
          |                 G F N 2 - x T B                 |
           -------------------------------------------------

        Reference                      10.1021/acs.jctc.8b01176
      * Hamiltonian:
        H0-scaling (s, p, d)           1.850000    2.230000    2.230000
        zeta-weighting                 0.500000
      * Dispersion:
        s8                             2.700000
        a1                             0.520000
        a2                             5.000000
        s9                             5.000000
      * Repulsion:
        kExp                           1.500000    1.000000
        rExp                           1.000000
      * Coulomb:
        alpha                          2.000000
        third order                    shell-resolved
        anisotropic                    true
        a3                             3.000000
        a5                             4.000000
        cn-shift                       1.200000
        cn-exp                         4.000000
        max-rad                        5.000000


          ...................................................
          :                      SETUP                      :
          :.................................................:
          :  # basis functions                  75          :
          :  # atomic orbitals                  75          :
          :  # shells                           47          :
          :  # electrons                        80          :
          :  max. iterations                   250          :
          :  Hamiltonian                  GFN2-xTB          :
          :  restarted?                      false          :
          :  GBSA solvation                   true          :
          :  PC potential                    false          :
          :  electronic temp.          300.0000000     K    :
          :  accuracy                    1.0000000          :
          :  -> integral cutoff          0.2500000E+02      :
          :  -> integral neglect         0.1000000E-07      :
          :  -> SCF convergence          0.1000000E-05 Eh   :
          :  -> wf. convergence          0.1000000E-03 e    :
          :  Broyden damping             0.4000000          :
          ...................................................

 iter      E             dE          RMSdq      gap      omega  full diag
   1    -44.8043276 -0.448043E+02  0.381E+00    2.34       0.0  T
   2    -44.8624333 -0.581057E-01  0.204E+00    2.13       1.0  T
   3    -44.8624478 -0.145592E-04  0.992E-01    2.29       1.0  T
   4    -44.8680881 -0.564022E-02  0.203E-01    2.10       1.0  T
   5    -44.8686500 -0.561936E-03  0.733E-02    2.11       1.0  T
   6    -44.8687037 -0.536677E-04  0.373E-02    2.13       1.0  T
   7    -44.8687173 -0.135919E-04  0.132E-02    2.13       1.3  T
   8    -44.8687178 -0.588997E-06  0.411E-03    2.13       4.2  T
   9    -44.8687180 -0.134587E-06  0.173E-03    2.13      10.0  T
  10    -44.8687180 -0.224842E-07  0.875E-04    2.13      19.9  T
  11    -44.8687180 -0.370654E-08  0.375E-04    2.13      46.4  T

   *** convergence criteria satisfied after 11 iterations ***

         #    Occupation            Energy/Eh            Energy/eV
      -------------------------------------------------------------
         1        2.0000           -0.7173536             -19.5202
       ...           ...                  ...                  ...
        34        2.0000           -0.4356903             -11.8557
        35        2.0000           -0.4316911             -11.7469
        36        2.0000           -0.4241849             -11.5427
        37        2.0000           -0.4194703             -11.4144
        38        2.0000           -0.4164704             -11.3327
        39        2.0000           -0.4066938             -11.0667
        40        2.0000           -0.3745000             -10.1907 (HOMO)
        41                         -0.2963534              -8.0642 (LUMO)
        42                         -0.2356857              -6.4133
        43                         -0.2043825              -5.5615
        44                         -0.0969369              -2.6378
        45                          0.0230284               0.6266
       ...                                ...                  ...
        75                          0.6470039              17.6059
      -------------------------------------------------------------
                  HL-Gap            0.0781466 Eh            2.1265 eV
             Fermi-level           -0.3354267 Eh           -9.1274 eV

 SCC (total)                   0 d,  0 h,  0 min,  0.099 sec
 SCC setup                      ...        0 min,  0.001 sec (  1.273%)
 Dispersion                     ...        0 min,  0.000 sec (  0.441%)
 classical contributions        ...        0 min,  0.000 sec (  0.143%)
 integral evaluation            ...        0 min,  0.018 sec ( 17.802%)
 iterations                     ...        0 min,  0.048 sec ( 48.529%)
 molecular gradient             ...        0 min,  0.027 sec ( 27.567%)
 printout                       ...        0 min,  0.004 sec (  4.220%)

         :::::::::::::::::::::::::::::::::::::::::::::::::::::
         ::                     SUMMARY                     ::
         :::::::::::::::::::::::::::::::::::::::::::::::::::::
         :: total energy             -44.263889680169 Eh    ::
         :: total w/o Gsasa/hb       -44.246091704275 Eh    ::
         :: gradient norm              0.023519482329 Eh/a0 ::
         :: HOMO-LUMO gap              2.126477578562 eV    ::
         ::.................................................::
         :: SCC energy               -44.886515982206 Eh    ::
         :: -> isotropic ES            0.078835666038 Eh    ::
         :: -> anisotropic ES          0.000419218049 Eh    ::
         :: -> anisotropic XC          0.024926382610 Eh    ::
         :: -> dispersion             -0.025133177068 Eh    ::
         :: -> Gsolv                  -0.025538115912 Eh    ::
         ::    -> Gborn               -0.007740140018 Eh    ::
         ::    -> Gsasa               -0.022238805068 Eh    ::
         ::    -> Ghb                  0.000000000000 Eh    ::
         ::    -> Gshift               0.004440829173 Eh    ::
         :: repulsion energy           0.622437492738 Eh    ::
         :: add. restraining           0.000000000000 Eh    ::
         :::::::::::::::::::::::::::::::::::::::::::::::::::::

           -------------------------------------------------
          |                Property Printout                |
           -------------------------------------------------

    * Orbital Energies and Occupations

         #    Occupation            Energy/Eh            Energy/eV
      -------------------------------------------------------------
         1        2.0000           -0.7173536             -19.5202
       ...           ...                  ...                  ...
        28        2.0000           -0.4798194             -13.0566
        29        2.0000           -0.4664988             -12.6941
        30        2.0000           -0.4482163             -12.1966
        31        2.0000           -0.4472190             -12.1694
        32        2.0000           -0.4460039             -12.1364
        33        2.0000           -0.4376438             -11.9089
        34        2.0000           -0.4356903             -11.8557
        35        2.0000           -0.4316911             -11.7469
        36        2.0000           -0.4241849             -11.5427
        37        2.0000           -0.4194703             -11.4144
        38        2.0000           -0.4164704             -11.3327
        39        2.0000           -0.4066938             -11.0667
        40        2.0000           -0.3745000             -10.1907 (HOMO)
        41                         -0.2963534              -8.0642 (LUMO)
        42                         -0.2356857              -6.4133
        43                         -0.2043825              -5.5615
        44                         -0.0969369              -2.6378
        45                          0.0230284               0.6266
        46                          0.0751224               2.0442
        47                          0.0876098               2.3840
        48                          0.0924196               2.5149
        49                          0.1097609               2.9867
        50                          0.1170432               3.1849
        51                          0.1293825               3.5207
       ...                                ...                  ...
        75                          0.6470039              17.6059
      -------------------------------------------------------------
                  HL-Gap            0.0781466 Eh            2.1265 eV
             Fermi-level           -0.3354267 Eh           -9.1274 eV

     #   Z        covCN         q      C6AA      α(0)
     1   6 C      2.913    -0.024    28.603     8.770
     2   6 C      2.921    -0.021    28.538     8.760
     3   6 C      2.968    -0.008    28.218     8.713
     4   6 C      2.918    -0.013    28.333     8.729
     5   6 C      2.914    -0.024    28.613     8.771
     6   6 C      2.916    -0.016    28.414     8.741
     7   1 H      0.925     0.054     2.275     2.359
     8   1 H      0.926     0.060     2.200     2.319
     9   1 H      0.925     0.054     2.267     2.355
    10   7 N      2.628    -0.372    29.604     8.081
    11   1 H      0.860     0.154     1.372     1.835
    12   6 C      3.731     0.024    20.269     6.426
    13   1 H      0.923     0.005     2.975     2.697
    14   1 H      0.924     0.033     2.548     2.496
    15   1 H      0.860     0.143     1.452     1.888
    16   1 H      0.805     0.287     0.761     1.371
    17   1 H      0.804     0.312     0.687     1.302
    18   6 C      2.767     0.214    23.483     7.936
    19   1 H      0.923     0.034     2.537     2.491
    20   8 O      0.856    -0.407    21.820     6.263
    21   6 C      3.802    -0.064    21.720     6.635
    22   1 H      0.924     0.040     2.453     2.449
    23   1 H      0.924     0.034     2.530     2.487
    24   8 O      1.609    -0.614    25.536     6.820
    25   6 C      3.800    -0.053    21.529     6.606
    26   1 H      0.924     0.030     2.590     2.517
    27   1 H      0.924     0.031     2.579     2.511
    28   1 H      0.925     0.051     2.303     2.373
    29   1 H      0.925     0.054     2.272     2.357
    30   6 C      3.749    -0.102    22.510     6.767
    31   1 H      0.924     0.036     2.497     2.471
    32   1 H      0.924     0.036     2.505     2.475
    33   1 H      0.924     0.035     2.511     2.478

 Mol. C6AA /au·bohr⁶  :       9600.108973
 Mol. C8AA /au·bohr⁸  :     213681.854080
 Mol. α(0) /au        :        151.251238


Wiberg/Mayer (AO) data.
largest (>0.10) Wiberg bond orders for each atom
          total WBO             WBO to atom ...
     1  C   3.991        C    2 1.460    C    6 1.429    H   29 0.969    C    4 0.104
     2  C   3.989        C    1 1.460    C    3 1.364    H    7 0.966    C    5 0.104
     3  C   3.989        C    2 1.364    C    4 1.361    C   18 1.081
     4  C   3.988        C    5 1.464    C    3 1.361    H    8 0.965    C    1 0.104
     5  C   3.991        C    4 1.464    C    6 1.424    H   28 0.969    C    2 0.104
     6  C   3.987        C    1 1.429    C    5 1.424    H    9 0.970
     7  H   0.997        C    2 0.966
     8  H   0.996        C    4 0.965
     9  H   0.997        C    6 0.970
    10  N   3.009        C   12 1.018    H   15 0.966    H   11 0.956
    11  H   0.976        N   10 0.956
    12  C   3.984        N   10 1.018    C   21 1.006    H   14 0.974    H   13 0.970
    13  H   1.000        C   12 0.970
    14  H   0.999        C   12 0.974
    15  H   0.980        N   10 0.966
    16  H   0.918        O   24 0.916
    17  H   0.903        O   24 0.867
    18  C   3.907        O   20 1.785    C    3 1.081    H   19 0.936
    19  H   0.998        C   18 0.936
    20  O   2.041        C   18 1.785
    21  C   3.996        C   25 1.007    C   12 1.006    H   23 0.976    H   22 0.976
    22  H   0.998        C   21 0.976
    23  H   0.999        C   21 0.976
    24  O   1.818        H   16 0.916    H   17 0.867
    25  C   3.997        C   30 1.019    C   21 1.007    H   27 0.978    H   26 0.978
    26  H   0.999        C   25 0.978
    27  H   0.999        C   25 0.978
    28  H   0.997        C    5 0.969
    29  H   0.997        C    1 0.969
    30  C   3.996        C   25 1.019    H   32 0.988    H   33 0.988    H   31 0.987
    31  H   0.998        C   30 0.987
    32  H   0.999        C   30 0.988
    33  H   0.999        C   30 0.988
Topologies differ in total number of bonds
Writing topology from bond orders to xtbtopo.mol

molecular dipole:
                 x           y           z       tot (Debye)
 q only:       -0.227       0.835      -0.984
   full:       -0.467       0.584      -0.884       2.943
molecular quadrupole (traceless):
                xx          xy          yy          xz          yz          zz
 q only:        4.123       2.381      -2.349      -5.270      -3.072      -1.774
  q+dip:        3.555       3.722      -1.452      -5.205      -5.354      -2.103
   full:        3.152       5.656      -0.486      -4.616      -3.931      -2.666


           -------------------------------------------------
          | TOTAL ENERGY              -44.263889680169 Eh   |
          | GRADIENT NORM               0.023519482329 Eh/α |
          | HOMO-LUMO GAP               2.126477578562 eV   |
           -------------------------------------------------

------------------------------------------------------------------------
 * finished run on 2020/06/19 at 15:49:55.104     
------------------------------------------------------------------------
 total:
 * wall-time:     0 d,  0 h,  0 min,  0.138 sec
 *  cpu-time:     0 d,  0 h,  0 min,  1.450 sec
 * ratio c/w:    10.490 speedup
 SCF:
 * wall-time:     0 d,  0 h,  0 min,  0.100 sec
 *  cpu-time:     0 d,  0 h,  0 min,  1.050 sec
 * ratio c/w:    10.491 speedup


-------------------------   --------------------
FINAL SINGLE POINT ENERGY       -44.263889680170
-------------------------   --------------------

------------------------------------------------------------------------------
                         ORCA GEOMETRY RELAXATION STEP
------------------------------------------------------------------------------

Reading the OPT-File                    .... done
Getting information on internals        .... done
Copying old internal coords+grads       .... done
Making the new internal coordinates     .... (new redundants).... done
Validating the new internal coordinates .... (new redundants).... done
Calculating the B-matrix                .... done
Calculating the G,G- and P matrices     .... done
Transforming gradient to internals      .... done
Projecting the internal gradient        .... done
Number of atoms                         ....  33
Number of internal coordinates          .... 189
Current Energy                          ....   -44.263889680 Eh
Current gradient norm                   ....     0.023519482 Eh/bohr
Maximum allowed component of the step   ....  0.300
Current trust radius                    ....  0.300
Evaluating the initial hessian          ....  (Almloef) done
Projecting the Hessian                  .... done
Forming the augmented Hessian           .... done
Diagonalizing the augmented Hessian     .... done
Last element of RFO vector              ....  0.956922549
Lowest eigenvalues of augmented Hessian:
 -0.001495369  0.000512889  0.001012632  0.002850397  0.005080484
Length of the computed step             ....  0.303413590
Warning: the length of the step is outside the trust region - taking restricted step instead
The input lambda is                     ....    -0.001495
   iter:   1  x=   -0.001525  g=   68.830673 f(x)=     0.002060
   iter:   2  x=   -0.001526  g=   66.260070 f(x)=     0.000039
   iter:   3  x=   -0.001526  g=   66.211091 f(x)=     0.000000
   iter:   4  x=   -0.001526  g=   66.211073 f(x)=     0.000000
The output lambda is                    ....    -0.001526 (4 iterations)
The final length of the internal step   ....  0.300000000
Converting the step to cartesian space:
 Initial RMS(Int)=    0.0218217890
Transforming coordinates:
 Iter   0:  RMS(Cart)=    0.0704281461 RMS(Int)=    0.9139580476
 Iter   1:  RMS(Cart)=    0.0012311251 RMS(Int)=    0.0004439910
 Iter   2:  RMS(Cart)=    0.0000245961 RMS(Int)=    0.0000064415
 Iter   3:  RMS(Cart)=    0.0000007244 RMS(Int)=    0.0000002298
 Iter   4:  RMS(Cart)=    0.0000000158 RMS(Int)=    0.0000000038
done
Storing new coordinates                 .... done

                                .--------------------.
          ----------------------|Geometry convergence|-------------------------
          Item                value                   Tolerance       Converged
          ---------------------------------------------------------------------
          RMS gradient        0.0015372309            0.0001000000      NO
          MAX gradient        0.0079234250            0.0003000000      NO
          RMS step            0.0218217890            0.0020000000      NO
          MAX step            0.1238776653            0.0040000000      NO
          ........................................................
          Max(Bonds)      0.0656      Max(Angles)    0.77
          Max(Dihed)        1.97      Max(Improp)    0.00
          ---------------------------------------------------------------------

The optimization has not yet converged - more geometry cycles are needed


    ---------------------------------------------------------------------------
                         Redundant Internal Coordinates
                            (Angstroem and degrees)

        Definition                    Value    dE/dq     Step     New-Value
    ----------------------------------------------------------------------------
     1. B(C   1,C   0)                1.3881  0.006503 -0.0055    1.3826   
     2. B(C   2,C   1)                1.3969  0.001207 -0.0010    1.3959   
     3. B(C   3,C   2)                1.3987  0.001676 -0.0020    1.3967   
     4. B(C   4,C   3)                1.3855  0.005060 -0.0042    1.3813   
     5. B(C   5,C   0)                1.3921  0.004993 -0.0044    1.3877   
     6. B(C   5,C   4)                1.3948  0.006821 -0.0060    1.3889   
     7. B(H   6,C   1)                1.0830  0.002174 -0.0031    1.0799   
     8. B(H   7,C   3)                1.0807  0.001270 -0.0018    1.0790   
     9. B(H   8,C   5)                1.0822  0.001555 -0.0022    1.0799   
    10. B(H  10,N   9)                1.0148 -0.000609  0.0006    1.0154   
    11. B(C  11,N   9)                1.4666  0.005822 -0.0076    1.4589   
    12. B(H  12,C  11)                1.0994 -0.002545  0.0039    1.1033   
    13. B(H  13,C  11)                1.0923 -0.001381  0.0019    1.0942   
    14. B(H  14,N   9)                1.0143 -0.000622  0.0008    1.0151   
    15. B(H  15,H  13)                2.9344 -0.000293  0.0563    2.9907   
    16. B(H  15,H  10)                2.7249 -0.000551  0.0127    2.7376   
    17. B(H  16,H  13)                2.7233  0.001198  0.0091    2.7324   
    18. B(H  16,H   7)                2.3445  0.000637  0.0139    2.3584   
    19. B(H  16,H  10)                2.3760  0.000440 -0.0448    2.3313   
    20. B(C  17,C   2)                1.4705  0.007923 -0.0098    1.4607   
    21. B(C  17,H  10)                2.9705  0.000686 -0.0645    2.9059   
    22. B(C  17,N   9)                2.9094  0.000050 -0.0656    2.8438   
    23. B(H  18,N   9)                3.0254  0.000142 -0.0584    2.9670   
    24. B(H  18,C  17)                1.1009  0.000492 -0.0005    1.1004   
    25. B(O  19,H  13)                2.6492 -0.000843 -0.0379    2.6113   
    26. B(O  19,C  17)                1.2214  0.004894 -0.0026    1.2188   
    27. B(O  19,H  16)                1.8711  0.000362 -0.0100    1.8611   
    28. B(C  20,C  11)                1.5240 -0.000190  0.0001    1.5241   
    29. B(H  21,H  18)                2.7585  0.000357 -0.0368    2.7217   
    30. B(H  21,C  20)                1.0943  0.001560 -0.0021    1.0923   
    31. B(H  22,C  20)                1.0959  0.000862 -0.0013    1.0946   
    32. B(O  23,H  16)                0.9728  0.000812 -0.0007    0.9721   
    33. B(O  23,H  10)                2.3396  0.000417 -0.0199    2.3197   
    34. B(O  23,H  15)                0.9637  0.002171 -0.0019    0.9618   
    35. B(C  24,C  20)                1.5278  0.002458 -0.0034    1.5244   
    36. B(H  25,C  24)                1.0943  0.000269 -0.0004    1.0939   
    37. B(H  26,C  24)                1.0944  0.000388 -0.0006    1.0938   
    38. B(H  27,C   4)                1.0818  0.001600 -0.0023    1.0795   
    39. B(H  28,C   0)                1.0816  0.001560 -0.0022    1.0794   
    40. B(C  29,C  24)                1.5272  0.004429 -0.0062    1.5210   
    41. B(H  30,C  29)                1.0917  0.002533 -0.0037    1.0880   
    42. B(H  31,C  29)                1.0927  0.002528 -0.0037    1.0889   
    43. B(H  32,C  29)                1.0928  0.002455 -0.0036    1.0892   
    44. A(C   1,C   0,C   5)          119.71 -0.000998    0.11    119.82   
    45. A(C   5,C   0,H  28)          120.13  0.000533   -0.06    120.07   
    46. A(C   1,C   0,H  28)          120.15  0.000464   -0.05    120.10   
    47. A(C   2,C   1,H   6)          119.41 -0.000277    0.04    119.45   
    48. A(C   0,C   1,C   2)          120.20  0.000363   -0.05    120.15   
    49. A(C   0,C   1,H   6)          120.39 -0.000086    0.01    120.40   
    50. A(C   3,C   2,C  17)          121.26 -0.000463   -0.05    121.21   
    51. A(C   1,C   2,C   3)          119.84  0.001618   -0.15    119.69   
    52. A(C   1,C   2,C  17)          118.90 -0.001154    0.20    119.10   
    53. A(C   2,C   3,H   7)          119.57  0.000331   -0.06    119.51   
    54. A(C   4,C   3,H   7)          120.54 -0.000254    0.04    120.58   
    55. A(C   2,C   3,C   4)          119.89 -0.000077    0.02    119.92   
    56. A(C   5,C   4,H  27)          119.97  0.000102   -0.00    119.97   
    57. A(C   3,C   4,H  27)          120.00  0.000330   -0.04    119.96   
    58. A(C   3,C   4,C   5)          120.03 -0.000432    0.04    120.07   
    59. A(C   0,C   5,H   8)          119.88  0.000160   -0.00    119.88   
    60. A(C   4,C   5,H   8)          119.79  0.000315   -0.03    119.77   
    61. A(C   0,C   5,C   4)          120.32 -0.000475    0.03    120.35   
    62. A(C   3,H   7,H  16)          117.36  0.000398    0.19    117.55   
    63. A(H  14,N   9,C  17)          141.53 -0.000306   -0.08    141.46   
    64. A(C  11,N   9,C  17)           99.69 -0.001159    0.44    100.13   
    65. A(C  11,N   9,H  14)          110.33  0.001511   -0.32    110.01   
    66. A(H  10,N   9,C  17)           83.48  0.000417   -0.17     83.30   
    67. A(H  10,N   9,H  14)          107.25 -0.000486    0.16    107.40   
    68. A(H  10,N   9,C  11)          109.73 -0.000321   -0.01    109.72   
    69. A(N   9,C  11,H  12)          112.87 -0.000348   -0.11    112.76   
    70. A(H  12,C  11,C  20)          109.14 -0.000581    0.06    109.20   
    71. A(N   9,C  11,C  20)          111.30  0.002494   -0.63    110.67   
    72. A(N   9,C  11,H  13)          107.39 -0.000140   -0.09    107.30   
    73. A(H  13,C  11,C  20)          109.23 -0.001011    0.28    109.51   
    74. A(H  12,C  11,H  13)          106.75 -0.000577    0.55    107.30   
    75. A(H   7,H  16,O  19)           76.23  0.001389   -0.27     75.95   
    76. A(O  19,H  16,O  23)          166.81  0.000325    0.21    167.03   
    77. A(H   7,H  16,O  23)          104.47 -0.001298    0.31    104.78   
    78. A(N   9,C  17,O  19)           91.83 -0.000127    0.21     92.05   
    79. A(H  18,C  17,O  19)          119.99  0.000164   -0.13    119.86   
    80. A(C   2,C  17,O  19)          124.95 -0.001494    0.51    125.46   
    81. A(N   9,C  17,H  18)           85.31 -0.000023    0.16     85.47   
    82. A(C   2,C  17,H  18)          115.01  0.001313   -0.36    114.65   
    83. A(C   2,C  17,N   9)           94.71  0.000656   -0.76     93.95   
    84. A(H  16,O  19,C  17)          116.29 -0.001157    0.77    117.06   
    85. A(C  11,C  20,C  24)          113.13  0.003046   -0.66    112.47   
    86. A(H  21,C  20,H  22)          106.43 -0.000193    0.49    106.93   
    87. A(C  11,C  20,H  22)          109.20 -0.000568    0.03    109.23   
    88. A(C  11,C  20,H  21)          108.79 -0.000941    0.04    108.83   
    89. A(H  22,C  20,C  24)          109.37 -0.000969    0.13    109.50   
    90. A(H  21,C  20,C  24)          109.70 -0.000566    0.04    109.74   
    91. A(H  15,O  23,H  16)          104.63 -0.001811    0.37    105.00   
    92. A(H  26,C  24,C  29)          109.43 -0.000647    0.04    109.48   
    93. A(H  25,C  24,C  29)          109.50 -0.000522   -0.02    109.48   
    94. A(C  20,C  24,C  29)          112.94  0.002897   -0.69    112.26   
    95. A(H  25,C  24,H  26)          106.28 -0.000473    0.63    106.91   
    96. A(C  20,C  24,H  26)          109.13 -0.000724    0.07    109.20   
    97. A(C  20,C  24,H  25)          109.34 -0.000735    0.04    109.38   
    98. A(H  31,C  29,H  32)          107.53 -0.001575    0.36    107.89   
    99. A(H  30,C  29,H  32)          107.67 -0.001992    0.34    108.01   
   100. A(C  24,C  29,H  32)          111.14  0.001286   -0.23    110.91   
   101. A(H  30,C  29,H  31)          107.70 -0.001943    0.33    108.03   
   102. A(C  24,C  29,H  31)          111.07  0.001246   -0.22    110.84   
   103. A(C  24,C  29,H  30)          111.55  0.002645   -0.51    111.04   
   104. D(H   6,C   1,C   0,C   5)   -179.64  0.000027    0.07   -179.57   
   105. D(H   6,C   1,C   0,H  28)      0.30 -0.000006    0.04      0.34   
   106. D(C   2,C   1,C   0,H  28)    179.97  0.000062   -0.05    179.92   
   107. D(C   2,C   1,C   0,C   5)      0.04  0.000095   -0.03      0.01   
   108. D(C  17,C   2,C   1,H   6)     -0.57  0.000075    0.17     -0.40   
   109. D(C   3,C   2,C   1,H   6)    179.73 -0.000046   -0.07    179.66   
   110. D(C   3,C   2,C   1,C   0)      0.05 -0.000115    0.03      0.08   
   111. D(C  17,C   2,C   1,C   0)    179.75  0.000006    0.26    180.02   
   112. D(C   4,C   3,C   2,C  17)   -179.81 -0.000091   -0.24   -180.06   
   113. D(H   7,C   3,C   2,C  17)      0.20  0.000238   -0.29     -0.09   
   114. D(C   4,C   3,C   2,C   1)     -0.12  0.000031   -0.00     -0.12   
   115. D(H   7,C   3,C   2,C   1)    179.89  0.000360   -0.05    179.84   
   116. D(H  27,C   4,C   3,C   2)   -179.93  0.000066    0.03   -179.90   
   117. D(C   5,C   4,C   3,C   2)      0.10  0.000070   -0.02      0.08   
   118. D(C   5,C   4,C   3,H   7)   -179.92 -0.000262    0.03   -179.89   
   119. D(H  27,C   4,C   3,H   7)      0.05 -0.000266    0.08      0.13   
   120. D(H   8,C   5,C   4,H  27)     -0.05 -0.000048    0.02     -0.03   
   121. D(C   0,C   5,C   4,H  27)   -179.98 -0.000088   -0.03   -180.01   
   122. D(H   8,C   5,C   0,H  28)      0.07  0.000003   -0.02      0.05   
   123. D(C   0,C   5,C   4,C   3)     -0.01 -0.000091    0.02      0.01   
   124. D(C   4,C   5,C   0,H  28)   -180.00  0.000042    0.03   -179.97   
   125. D(H   8,C   5,C   4,C   3)    179.92 -0.000052    0.07    179.99   
   126. D(C   4,C   5,C   0,C   1)     -0.06  0.000009    0.01     -0.05   
   127. D(H   8,C   5,C   0,C   1)   -179.99 -0.000030   -0.04   -180.03   
   128. D(H  16,H   7,C   3,C   4)   -141.28 -0.000033   -0.22   -141.50   
   129. D(H  16,H   7,C   3,C   2)     38.70 -0.000365   -0.17     38.53   
   130. D(H  13,C  11,N   9,H  10)     56.16 -0.000902    0.97     57.12   
   131. D(H  12,C  11,N   9,C  17)   -147.71  0.000098    0.44   -147.27   
   132. D(H  12,C  11,N   9,H  14)     56.73  0.000213    0.41     57.14   
   133. D(H  13,C  11,N   9,H  14)    174.11 -0.000782    0.97    175.07   
   134. D(H  12,C  11,N   9,H  10)    -61.22  0.000093    0.41    -60.81   
   135. D(C  20,C  11,N   9,C  17)     89.17 -0.000771    0.93     90.10   
   136. D(C  20,C  11,N   9,H  14)    -66.38 -0.000655    0.89    -65.49   
   137. D(C  20,C  11,N   9,H  10)    175.66 -0.000775    0.89    176.56   
   138. D(H  13,C  11,N   9,C  17)    -30.34 -0.000897    1.00    -29.34   
   139. D(O  19,H  16,H   7,C   3)    -63.83 -0.001169    0.66    -63.17   
   140. D(O  23,H  16,H   7,C   3)    102.59 -0.000748    0.87    103.45   
   141. D(O  19,C  17,N   9,H  14)   -169.03  0.000497    1.49   -167.54   
   142. D(O  19,C  17,N   9,C  11)     49.57 -0.000054    1.44     51.01   
   143. D(O  19,C  17,N   9,H  10)    -59.41  0.000141    1.50    -57.91   
   144. D(H  18,C  17,N   9,H  14)     71.03  0.000323    1.64     72.66   
   145. D(H  18,C  17,N   9,C  11)    -70.38 -0.000228    1.59    -68.79   
   146. D(H  18,C  17,N   9,H  10)   -179.35 -0.000033    1.65   -177.70   
   147. D(C   2,C  17,N   9,H  14)    -43.74 -0.000961    1.96    -41.78   
   148. D(C   2,C  17,N   9,C  11)    174.85 -0.001512    1.91    176.76   
   149. D(C   2,C  17,N   9,H  10)     65.88 -0.001317    1.97     67.85   
   150. D(N   9,C  17,C   2,C   1)     83.58  0.000441   -0.25     83.33   
   151. D(O  19,C  17,C   2,C   3)     -1.18  0.000655   -0.21     -1.38   
   152. D(N   9,C  17,C   2,C   3)    -96.73  0.000570   -0.01    -96.73   
   153. D(O  19,C  17,C   2,C   1)    179.13  0.000525   -0.45    178.69   
   154. D(H  18,C  17,C   2,C   3)    176.26  0.000215    0.19    176.45   
   155. D(H  18,C  17,C   2,C   1)     -3.44  0.000086   -0.05     -3.48   
   156. D(H  16,O  19,C  17,N   9)     48.13 -0.000000   -0.40     47.73   
   157. D(H  16,O  19,C  17,H  18)    133.77 -0.000102   -0.09    133.68   
   158. D(H  16,O  19,C  17,C   2)    -48.91 -0.000537    0.32    -48.60   
   159. D(C  17,O  19,H  16,H   7)     60.48  0.000853   -0.75     59.73   
   160. D(C  17,O  19,H  16,O  23)    -34.19  0.000593   -0.99    -35.18   
   161. D(H  22,C  20,C  11,H  12)    -66.49 -0.001404    1.17    -65.32   
   162. D(H  22,C  20,C  11,N   9)     58.74 -0.000524    0.62     59.36   
   163. D(H  21,C  20,C  11,H  13)     61.36  0.001237   -0.31     61.05   
   164. D(H  21,C  20,C  11,H  12)    177.73 -0.000346    0.54    178.27   
   165. D(H  22,C  20,C  11,H  13)    177.14  0.000179    0.31    177.46   
   166. D(H  21,C  20,C  11,N   9)    -57.04  0.000534   -0.00    -57.04   
   167. D(C  24,C  20,C  11,H  13)    -60.81  0.000594    0.05    -60.76   
   168. D(C  24,C  20,C  11,H  12)     55.56 -0.000990    0.90     56.46   
   169. D(C  24,C  20,C  11,N   9)   -179.22 -0.000110    0.36   -178.85   
   170. D(H  15,O  23,H  16,O  19)   -106.63  0.000420    0.03   -106.60   
   171. D(H  15,O  23,H  16,H   7)    162.03 -0.000254   -0.19    161.84   
   172. D(C  29,C  24,C  20,H  22)    -59.30  0.000494   -0.14    -59.44   
   173. D(C  29,C  24,C  20,H  21)     57.09 -0.000617    0.55     57.64   
   174. D(C  29,C  24,C  20,C  11)    178.75 -0.000152    0.18    178.93   
   175. D(H  26,C  24,C  20,H  22)    178.75 -0.000111    0.21    178.96   
   176. D(H  26,C  24,C  20,H  21)    -64.87 -0.001222    0.90    -63.97   
   177. D(H  26,C  24,C  20,C  11)     56.80 -0.000757    0.53     57.33   
   178. D(H  25,C  24,C  20,H  22)     62.88  0.001267   -0.60     62.28   
   179. D(H  25,C  24,C  20,H  21)    179.27  0.000156    0.09    179.35   
   180. D(H  25,C  24,C  20,C  11)    -59.07  0.000622   -0.28    -59.35   
   181. D(H  32,C  29,C  24,H  26)   -178.56  0.000455   -0.30   -178.86   
   182. D(H  32,C  29,C  24,H  25)    -62.44 -0.000777    0.47    -61.97   
   183. D(H  32,C  29,C  24,C  20)     59.66 -0.000117    0.04     59.70   
   184. D(H  31,C  29,C  24,H  26)     61.77  0.000759   -0.45     61.32   
   185. D(H  31,C  29,C  24,H  25)    177.89 -0.000473    0.32    178.21   
   186. D(H  31,C  29,C  24,C  20)    -60.01  0.000187   -0.11    -60.13   
   187. D(H  30,C  29,C  24,H  26)    -58.39  0.000592   -0.37    -58.76   
   188. D(H  30,C  29,C  24,H  25)     57.73 -0.000640    0.40     58.13   
   189. D(H  30,C  29,C  24,C  20)    179.82  0.000020   -0.03    179.79   
    ----------------------------------------------------------------------------

         *************************************************************
         *                GEOMETRY OPTIMIZATION CYCLE   2            *
         *************************************************************
      -----------------------------------------------------------      
     |                   =====================                   |     
     |                           x T B                           |     
     |                   =====================                   |     
     |                         S. Grimme                         |     
     |          Mulliken Center for Theoretical Chemistry        |     
     |                    University of Bonn                     |     
      -----------------------------------------------------------      

   * xtb version 6.3.0 (49875a8) compiled by 'schneider@apollo14' on 2020-05-23

   xtb is free software: you can redistribute it and/or modify it under
   the terms of the GNU Lesser General Public License as published by
   the Free Software Foundation, either version 3 of the License, or
   (at your option) any later version.
   
   xtb is distributed in the hope that it will be useful,
   but WITHOUT ANY WARRANTY; without even the implied warranty of
   MERCHANTABILITY or FITNESS FOR A PARTICULAR PURPOSE.  See the
   GNU Lesser General Public License for more details.
   
   Cite this work as:
   * S. Grimme, C. Bannwarth, P. Shushkov, J. Chem. Theory Comput., 2017,
     13, 1989-2009. DOI: 10.1021/acs.jctc.7b00118
   * C. Bannwarth, S. Ehlert and S. Grimme., J. Chem. Theory Comput., 2019,
     15, 1652-1671. DOI: 10.1021/acs.jctc.8b01176
   * P. Pracht, E. Caldeweyher, S. Ehlert, S. Grimme, ChemRxiv, 2019, preprint.
     DOI: 10.26434/chemrxiv.8326202.v1
   
   for GFN-FF:
   * S. Spicher and S. Grimme, Angew. Chem. Int. Ed., 2020,
     DOI: 10.1002/anie.202004239
   
   for DFT-D4:
   * E. Caldeweyher, C. Bannwarth and S. Grimme, J. Chem. Phys., 2017,
     147, 034112. DOI: 10.1063/1.4993215
   * E. Caldeweyher, S. Ehlert, A. Hansen, H. Neugebauer, S. Spicher,
     C. Bannwarth and S. Grimme, J. Chem. Phys., 2019, 150, 154122.
     DOI: 10.1063/1.5090222
   
   for sTDA-xTB:
   * S. Grimme and C. Bannwarth, J. Chem. Phys., 2016, 145, 054103.
     DOI: 10.1063/1.4959605
   
   in the mass-spec context:
   * V. Asgeirsson, C. Bauer and S. Grimme, Chem. Sci., 2017, 8, 4879.
     DOI: 10.1039/c7sc00601b
   * J. Koopman and S. Grimme, ACS Omega 2019, 4, 12, 15120-15133.
     DOI: 10.1021/acsomega.9b02011
   
   for metadynamics refer to:
   * S. Grimme, J. Chem. Theory Comput., 2019, 155, 2847-2862
     DOI: 10.1021/acs.jctc.9b00143
   
   with help from (in alphabetical order)
   C. Bannwarth, F. Bohle, G. Brandenburg, E. Caldeweyher, M. Checinski,
   S. Dohm, S. Ehlert, S. Ehrlich, F. März, H. Neugebauer, J. Pisarek,
   P. Pracht, P. Shushkov, and S. Spicher.
   
 * started run on 2020/06/19 at 15:49:55.654     

           -------------------------------------------------
          |                Calculation Setup                |
           -------------------------------------------------

          program call               : /opt/orca/otool_xtb opt+freq_XTB.xyz --grad -c 0 -u 0 -P 12 --namespace opt+freq --gbsa CH2Cl2
          calculation namespace      : opt+freq
          coordinate file            : opt+freq_XTB.xyz
          number of atoms            :                    33
          number of electrons        :                    80
          charge                     :                     0
          spin                       :                   0.0
          first test random number   :      0.47778556935758

   ID    Z sym.   atoms
    1    6 C      1-6, 12, 18, 21, 25, 30
    2    1 H      7-9, 11, 13-17, 19, 22, 23, 26-29, 31-33
    3    7 N      10
    4    8 O      20, 24

molecular fragmentation (1/2 indicates fragments):
111111111222222221112222222112222
# atoms in fragment 1/2:    14    19
 fragment masses (1/2) :      106.12       91.15
CMA distance (Bohr)    :   9.179
constraining FC (au)   :  0.0500
########################################################################
[WARNING] Please study the warnings concerning your input carefully
-1- prog_main_parseArguments: Process number higher than OMP_NUM_THREADS, I hope you know what you are doing.
########################################################################
 Solvent             : CH2Cl2
 Using internal parameter file: .param_gbsa2_CH2Cl2
 Gsolv ref. state (COSMO-RS): gsolv [1 M gas/solution]
 temperature (mdtemp)       :    298.14999999999998     
 dielectric constant        :    8.9299999999999997     
 rho                        :    1.3300000000000003     
 mass                       :    84.930000000000007     
 surface tension            :    15.568945408385856     
 probe radius               :   0.71987590000000001     
 Gshift (Eh)                :    4.4408291734517593E-003
 c1                         :    1.4917377599999999     
 soset                      :    0.0000000000000000     
 HB correction              :  F

           -------------------------------------------------
          |                 G F N 2 - x T B                 |
           -------------------------------------------------

        Reference                      10.1021/acs.jctc.8b01176
      * Hamiltonian:
        H0-scaling (s, p, d)           1.850000    2.230000    2.230000
        zeta-weighting                 0.500000
      * Dispersion:
        s8                             2.700000
        a1                             0.520000
        a2                             5.000000
        s9                             5.000000
      * Repulsion:
        kExp                           1.500000    1.000000
        rExp                           1.000000
      * Coulomb:
        alpha                          2.000000
        third order                    shell-resolved
        anisotropic                    true
        a3                             3.000000
        a5                             4.000000
        cn-shift                       1.200000
        cn-exp                         4.000000
        max-rad                        5.000000


          ...................................................
          :                      SETUP                      :
          :.................................................:
          :  # basis functions                  75          :
          :  # atomic orbitals                  75          :
          :  # shells                           47          :
          :  # electrons                        80          :
          :  max. iterations                   250          :
          :  Hamiltonian                  GFN2-xTB          :
          :  restarted?                      false          :
          :  GBSA solvation                   true          :
          :  PC potential                    false          :
          :  electronic temp.          300.0000000     K    :
          :  accuracy                    1.0000000          :
          :  -> integral cutoff          0.2500000E+02      :
          :  -> integral neglect         0.1000000E-07      :
          :  -> SCF convergence          0.1000000E-05 Eh   :
          :  -> wf. convergence          0.1000000E-03 e    :
          :  Broyden damping             0.4000000          :
          ...................................................

 iter      E             dE          RMSdq      gap      omega  full diag
   1    -44.8172272 -0.448172E+02  0.379E+00    2.36       0.0  T
   2    -44.8755148 -0.582876E-01  0.204E+00    2.16       1.0  T
   3    -44.8757182 -0.203465E-03  0.975E-01    2.31       1.0  T
   4    -44.8808638 -0.514558E-02  0.200E-01    2.13       1.0  T
   5    -44.8814210 -0.557161E-03  0.727E-02    2.15       1.0  T
   6    -44.8814734 -0.524245E-04  0.368E-02    2.16       1.0  T
   7    -44.8814862 -0.127713E-04  0.130E-02    2.16       1.3  T
   8    -44.8814868 -0.571508E-06  0.406E-03    2.16       4.3  T
   9    -44.8814869 -0.136012E-06  0.170E-03    2.16      10.3  T
  10    -44.8814869 -0.204278E-07  0.858E-04    2.16      20.3  T
  11    -44.8814869 -0.328262E-08  0.357E-04    2.16      48.8  T

   *** convergence criteria satisfied after 11 iterations ***

         #    Occupation            Energy/Eh            Energy/eV
      -------------------------------------------------------------
         1        2.0000           -0.7173402             -19.5198
       ...           ...                  ...                  ...
        34        2.0000           -0.4347007             -11.8288
        35        2.0000           -0.4314796             -11.7412
        36        2.0000           -0.4248517             -11.5608
        37        2.0000           -0.4200128             -11.4291
        38        2.0000           -0.4173122             -11.3556
        39        2.0000           -0.4060347             -11.0488
        40        2.0000           -0.3750641             -10.2060 (HOMO)
        41                         -0.2956153              -8.0441 (LUMO)
        42                         -0.2346322              -6.3847
        43                         -0.2021231              -5.5001
        44                         -0.0942691              -2.5652
        45                          0.0295545               0.8042
       ...                                ...                  ...
        75                          0.6604039              17.9705
      -------------------------------------------------------------
                  HL-Gap            0.0794489 Eh            2.1619 eV
             Fermi-level           -0.3353397 Eh           -9.1251 eV

 SCC (total)                   0 d,  0 h,  0 min,  0.092 sec
 SCC setup                      ...        0 min,  0.001 sec (  1.417%)
 Dispersion                     ...        0 min,  0.000 sec (  0.492%)
 classical contributions        ...        0 min,  0.000 sec (  0.157%)
 integral evaluation            ...        0 min,  0.017 sec ( 18.582%)
 iterations                     ...        0 min,  0.040 sec ( 42.960%)
 molecular gradient             ...        0 min,  0.030 sec ( 33.088%)
 printout                       ...        0 min,  0.003 sec (  3.279%)

         :::::::::::::::::::::::::::::::::::::::::::::::::::::
         ::                     SUMMARY                     ::
         :::::::::::::::::::::::::::::::::::::::::::::::::::::
         :: total energy             -44.264923515921 Eh    ::
         :: total w/o Gsasa/hb       -44.247292217904 Eh    ::
         :: gradient norm              0.011090389866 Eh/a0 ::
         :: HOMO-LUMO gap              2.161913582626 eV    ::
         ::.................................................::
         :: SCC energy               -44.899118217117 Eh    ::
         :: -> isotropic ES            0.078879682080 Eh    ::
         :: -> anisotropic ES          0.000090426449 Eh    ::
         :: -> anisotropic XC          0.024587797676 Eh    ::
         :: -> dispersion             -0.025373870529 Eh    ::
         :: -> Gsolv                  -0.025353686976 Eh    ::
         ::    -> Gborn               -0.007722388960 Eh    ::
         ::    -> Gsasa               -0.022072127190 Eh    ::
         ::    -> Ghb                  0.000000000000 Eh    ::
         ::    -> Gshift               0.004440829173 Eh    ::
         :: repulsion energy           0.634005226350 Eh    ::
         :: add. restraining           0.000000000000 Eh    ::
         :::::::::::::::::::::::::::::::::::::::::::::::::::::

           -------------------------------------------------
          |                Property Printout                |
           -------------------------------------------------

    * Orbital Energies and Occupations

         #    Occupation            Energy/Eh            Energy/eV
      -------------------------------------------------------------
         1        2.0000           -0.7173402             -19.5198
       ...           ...                  ...                  ...
        28        2.0000           -0.4804241             -13.0730
        29        2.0000           -0.4664664             -12.6932
        30        2.0000           -0.4483255             -12.1996
        31        2.0000           -0.4471353             -12.1672
        32        2.0000           -0.4458912             -12.1333
        33        2.0000           -0.4380571             -11.9201
        34        2.0000           -0.4347007             -11.8288
        35        2.0000           -0.4314796             -11.7412
        36        2.0000           -0.4248517             -11.5608
        37        2.0000           -0.4200128             -11.4291
        38        2.0000           -0.4173122             -11.3556
        39        2.0000           -0.4060347             -11.0488
        40        2.0000           -0.3750641             -10.2060 (HOMO)
        41                         -0.2956153              -8.0441 (LUMO)
        42                         -0.2346322              -6.3847
        43                         -0.2021231              -5.5001
        44                         -0.0942691              -2.5652
        45                          0.0295545               0.8042
        46                          0.0786111               2.1391
        47                          0.0935681               2.5461
        48                          0.0949355               2.5833
        49                          0.1111734               3.0252
        50                          0.1200432               3.2665
        51                          0.1311679               3.5693
       ...                                ...                  ...
        75                          0.6604039              17.9705
      -------------------------------------------------------------
                  HL-Gap            0.0794489 Eh            2.1619 eV
             Fermi-level           -0.3353397 Eh           -9.1251 eV

     #   Z        covCN         q      C6AA      α(0)
     1   6 C      2.916    -0.024    28.601     8.770
     2   6 C      2.924    -0.021    28.540     8.761
     3   6 C      2.970    -0.009    28.227     8.715
     4   6 C      2.921    -0.013    28.340     8.730
     5   6 C      2.917    -0.024    28.613     8.772
     6   6 C      2.920    -0.016    28.410     8.741
     7   1 H      0.926     0.054     2.274     2.358
     8   1 H      0.926     0.059     2.205     2.322
     9   1 H      0.926     0.054     2.267     2.355
    10   7 N      2.629    -0.370    29.563     8.075
    11   1 H      0.860     0.155     1.366     1.831
    12   6 C      3.731     0.024    20.253     6.424
    13   1 H      0.923     0.004     2.996     2.707
    14   1 H      0.924     0.033     2.545     2.495
    15   1 H      0.860     0.144     1.446     1.884
    16   1 H      0.805     0.287     0.760     1.370
    17   1 H      0.804     0.312     0.686     1.301
    18   6 C      2.769     0.215    23.457     7.932
    19   1 H      0.923     0.031     2.569     2.507
    20   8 O      0.856    -0.409    21.858     6.268
    21   6 C      3.804    -0.064    21.729     6.636
    22   1 H      0.924     0.040     2.444     2.445
    23   1 H      0.924     0.034     2.525     2.485
    24   8 O      1.609    -0.615    25.560     6.823
    25   6 C      3.801    -0.053    21.533     6.607
    26   1 H      0.924     0.030     2.590     2.517
    27   1 H      0.924     0.031     2.577     2.511
    28   1 H      0.926     0.051     2.304     2.374
    29   1 H      0.926     0.054     2.273     2.358
    30   6 C      3.752    -0.103    22.529     6.769
    31   1 H      0.925     0.037     2.492     2.469
    32   1 H      0.925     0.037     2.495     2.470
    33   1 H      0.925     0.036     2.500     2.473

 Mol. C6AA /au·bohr⁶  :       9600.241039
 Mol. C8AA /au·bohr⁸  :     213685.696744
 Mol. α(0) /au        :        151.250765


Wiberg/Mayer (AO) data.
largest (>0.10) Wiberg bond orders for each atom
          total WBO             WBO to atom ...
     1  C   3.991        C    2 1.463    C    6 1.427    H   29 0.969    C    4 0.103
     2  C   3.989        C    1 1.463    C    3 1.361    H    7 0.966    C    5 0.104
     3  C   3.989        C    4 1.361    C    2 1.361    C   18 1.086
     4  C   3.988        C    5 1.463    C    3 1.361    H    8 0.965    C    1 0.103
     5  C   3.991        C    4 1.463    C    6 1.426    H   28 0.969    C    2 0.104
     6  C   3.989        C    1 1.427    C    5 1.426    H    9 0.970
     7  H   0.997        C    2 0.966
     8  H   0.996        C    4 0.965
     9  H   0.997        C    6 0.970
    10  N   3.019        C   12 1.019    H   15 0.965    H   11 0.954
    11  H   0.976        N   10 0.954
    12  C   3.984        N   10 1.019    C   21 1.005    H   14 0.973    H   13 0.969
    13  H   1.000        C   12 0.969
    14  H   0.999        C   12 0.973
    15  H   0.979        N   10 0.965
    16  H   0.917        O   24 0.916
    17  H   0.903        O   24 0.865
    18  C   3.909        O   20 1.780    C    3 1.086    H   19 0.935
    19  H   0.999        C   18 0.935
    20  O   2.040        C   18 1.780
    21  C   3.996        C   25 1.008    C   12 1.005    H   23 0.976    H   22 0.976
    22  H   0.998        C   21 0.976
    23  H   0.999        C   21 0.976
    24  O   1.818        H   16 0.916    H   17 0.865
    25  C   3.998        C   30 1.020    C   21 1.008    H   27 0.978    H   26 0.978
    26  H   0.999        C   25 0.978
    27  H   0.999        C   25 0.978
    28  H   0.997        C    5 0.969
    29  H   0.997        C    1 0.969
    30  C   3.996        C   25 1.020    H   32 0.988    H   33 0.988    H   31 0.987
    31  H   0.998        C   30 0.987
    32  H   0.999        C   30 0.988
    33  H   0.999        C   30 0.988
Topologies differ in total number of bonds
Writing topology from bond orders to xtbtopo.mol

molecular dipole:
                 x           y           z       tot (Debye)
 q only:       -0.266       0.848      -0.989
   full:       -0.496       0.598      -0.890       3.003
molecular quadrupole (traceless):
                xx          xy          yy          xz          yz          zz
 q only:        4.228       2.301      -2.463      -5.226      -2.873      -1.765
  q+dip:        3.482       3.676      -1.484      -4.998      -5.095      -1.998
   full:        3.168       5.566      -0.592      -4.458      -3.742      -2.576


           -------------------------------------------------
          | TOTAL ENERGY              -44.264923515921 Eh   |
          | GRADIENT NORM               0.011090389866 Eh/α |
          | HOMO-LUMO GAP               2.161913582626 eV   |
           -------------------------------------------------

------------------------------------------------------------------------
 * finished run on 2020/06/19 at 15:49:55.789     
------------------------------------------------------------------------
 total:
 * wall-time:     0 d,  0 h,  0 min,  0.135 sec
 *  cpu-time:     0 d,  0 h,  0 min,  1.493 sec
 * ratio c/w:    11.063 speedup
 SCF:
 * wall-time:     0 d,  0 h,  0 min,  0.093 sec
 *  cpu-time:     0 d,  0 h,  0 min,  1.037 sec
 * ratio c/w:    11.188 speedup


-------------------------   --------------------
FINAL SINGLE POINT ENERGY       -44.264923515920
-------------------------   --------------------

------------------------------------------------------------------------------
                         ORCA GEOMETRY RELAXATION STEP
------------------------------------------------------------------------------

Reading the OPT-File                    .... done
Getting information on internals        .... done
Copying old internal coords+grads       .... done
Making the new internal coordinates     .... (new redundants).... done
Validating the new internal coordinates .... (new redundants).... done
[...]
     17      -0.000187  -0.000046   0.000004
     18       0.003870  -0.001342  -0.000105
     19      -0.002208   0.000523   0.000118
     20      -0.001731   0.000151  -0.000045
     21       0.000774  -0.000427  -0.001829
     22      -0.002106   0.000264   0.001699
     23       0.000903  -0.000153  -0.001188
     24      -0.000822  -0.000388   0.000025
     25      -0.000924  -0.000283   0.000142
     26       0.002189   0.000760  -0.000254
     27      -0.041935   0.032679   0.000172
     28       0.047141  -0.028316  -0.000192
     29       0.015596   0.058166  -0.000046
     30       0.638247  -0.078475  -0.001382
     31      -0.739190   0.104544   0.003967
     32      -0.105941   0.040693  -0.001114
     33      -0.000564   0.000835   0.000012
     34       0.001058  -0.000474   0.000040
     35       0.000993   0.002241  -0.000041
     36       0.001573   0.003670  -0.000431
     37      -0.002997   0.005323  -0.000232
     38      -0.000936   0.000476  -0.000009
     39      -0.002526  -0.006927  -0.000191
     40      -0.000322  -0.002417   0.000269
     41      -0.002989  -0.009504   0.000387
     42      -0.071414  -0.387144   0.000557
     43       0.065839   0.281162  -0.000145
     44      -0.127509  -0.864196   0.001067
     45       0.006573  -0.000941   0.187872
     46       0.000727  -0.000281  -0.615132
     47       0.005423   0.000573   0.762344
     48      -0.005861   0.000847  -0.005070
     49      -0.063990  -0.003354   0.034389
     50      -0.024579  -0.000242  -0.014561
     51       0.001856   0.001178  -0.000071
     52       0.001880   0.000258  -0.000053
     53       0.001150   0.000809  -0.000106
     54       0.002962  -0.000871   0.000132
     55      -0.007616  -0.001192   0.000209
     56      -0.003184   0.000032   0.000046
     57      -0.000460  -0.000371   0.000041
     58       0.000301   0.000289  -0.000169
     59      -0.000287  -0.000394   0.000055
     60       0.000210  -0.000076  -0.000007
     61       0.000310  -0.000096   0.000000
     62      -0.000384  -0.000235   0.000010
     63      -0.002080   0.000539  -0.000019
     64      -0.006383   0.002249  -0.000236
     65      -0.001463   0.000964  -0.000042
     66       0.002763  -0.002776   0.000157
     67       0.000171   0.001024  -0.000050
     68       0.005783  -0.001272   0.000236
     69       0.000106  -0.000084  -0.011558
     70       0.003535   0.000335   0.036704
     71       0.001362  -0.000092  -0.047088
     72       0.000041   0.000055  -0.000002
     73      -0.000108  -0.000058   0.000016
     74       0.000081   0.000026  -0.000014
     75       0.000404   0.000391  -0.000077
     76       0.001251   0.000663  -0.000093
     77       0.000353   0.000030   0.000007
     78      -0.000596   0.000163   0.000005
     79      -0.000093  -0.000125   0.000005
     80      -0.001333  -0.000821   0.000143
     81      -0.002365  -0.000953  -0.000094
     82       0.000877   0.000383   0.000112
     83       0.001375   0.000545  -0.000036
     84       0.001949   0.000495  -0.000084
     85      -0.002911  -0.000940   0.000162
     86       0.002355   0.000881  -0.000139
     87      -0.000065  -0.000009   0.000003
     88       0.000088  -0.000007  -0.000001
     89      -0.000015   0.000026  -0.000002
     90       0.001053   0.000513  -0.000082
     91       0.000322   0.000056  -0.000001
     92      -0.000979  -0.000370   0.000058
     93      -0.000493   0.000004   0.000001
     94      -0.001553   0.000082  -0.000020
     95      -0.000315   0.000043  -0.000002
     96       0.000633  -0.000160   0.000020
     97      -0.000028   0.000029  -0.000007
     98       0.001329  -0.000306   0.000023


-----------
IR SPECTRUM  
-----------

 Mode    freq (cm**-1)   T**2         TX         TY         TZ
-------------------------------------------------------------------
   6:        12.95    0.000000  (  0.000000   0.000000   0.000000)
   7:        17.62    0.000000  (  0.000000   0.000000   0.000000)
   8:        45.75    0.000000  (  0.000000   0.000000   0.000000)
   9:        53.64    0.000000  (  0.000000   0.000000   0.000000)
  10:        60.55    0.000000  (  0.000000   0.000000   0.000000)
  11:        82.29    0.000000  (  0.000000   0.000000   0.000000)
  12:        99.62    0.000000  (  0.000000   0.000000   0.000000)
  13:       123.63    0.000000  (  0.000000   0.000000   0.000000)
  14:       161.65    0.000000  (  0.000000   0.000000   0.000000)
  15:       169.24    0.000000  (  0.000000   0.000000   0.000000)
  16:       182.58    0.000000  (  0.000000   0.000000   0.000000)
  17:       199.94    0.000000  (  0.000000   0.000000   0.000000)
  18:       230.96    0.000000  (  0.000000   0.000000   0.000000)
  19:       235.91    0.000000  (  0.000000   0.000000   0.000000)
  20:       258.61    0.000000  (  0.000000   0.000000   0.000000)
  21:       304.96    0.000000  (  0.000000   0.000000   0.000000)
  22:       362.50    0.000000  (  0.000000   0.000000   0.000000)
  23:       387.69    0.000000  (  0.000000   0.000000   0.000000)
  24:       399.86    0.000000  (  0.000000   0.000000   0.000000)
  25:       415.04    0.000000  (  0.000000   0.000000   0.000000)
  26:       461.63    0.000000  (  0.000000   0.000000   0.000000)
  27:       489.29    0.000000  (  0.000000   0.000000   0.000000)
  28:       523.71    0.000000  (  0.000000   0.000000   0.000000)
  29:       587.76    0.000000  (  0.000000   0.000000   0.000000)
  30:       615.64    0.000000  (  0.000000   0.000000   0.000000)
  31:       663.61    0.000000  (  0.000000   0.000000   0.000000)
  32:       709.42    0.000000  (  0.000000   0.000000   0.000000)
  33:       755.17    0.000000  (  0.000000   0.000000   0.000000)
  34:       775.68    0.000000  (  0.000000   0.000000   0.000000)
  35:       791.97    0.000000  (  0.000000   0.000000   0.000000)
  36:       824.63    0.000000  (  0.000000   0.000000   0.000000)
  37:       831.93    0.000000  (  0.000000   0.000000   0.000000)
  38:       875.53    0.000000  (  0.000000   0.000000   0.000000)
  39:       904.06    0.000000  (  0.000000   0.000000   0.000000)
  40:       926.04    0.000000  (  0.000000   0.000000   0.000000)
  41:       932.39    0.000000  (  0.000000   0.000000   0.000000)
  42:       933.37    0.000000  (  0.000000   0.000000   0.000000)
  43:       944.10    0.000000  (  0.000000   0.000000   0.000000)
  44:       985.04    0.000000  (  0.000000   0.000000   0.000000)
  45:       995.83    0.000000  (  0.000000   0.000000   0.000000)
  46:      1037.64    0.000000  (  0.000000   0.000000   0.000000)
  47:      1070.50    0.000000  (  0.000000   0.000000   0.000000)
  48:      1079.46    0.000000  (  0.000000   0.000000   0.000000)
  49:      1091.28    0.000000  (  0.000000   0.000000   0.000000)
  50:      1103.72    0.000000  (  0.000000   0.000000   0.000000)
  51:      1119.09    0.000000  (  0.000000   0.000000   0.000000)
  52:      1122.46    0.000000  (  0.000000   0.000000   0.000000)
  53:      1166.26    0.000000  (  0.000000   0.000000   0.000000)
  54:      1180.06    0.000000  (  0.000000   0.000000   0.000000)
  55:      1180.65    0.000000  (  0.000000   0.000000   0.000000)
  56:      1182.54    0.000000  (  0.000000   0.000000   0.000000)
  57:      1205.93    0.000000  (  0.000000   0.000000   0.000000)
  58:      1224.92    0.000000  (  0.000000   0.000000   0.000000)
  59:      1269.97    0.000000  (  0.000000   0.000000   0.000000)
  60:      1272.96    0.000000  (  0.000000   0.000000   0.000000)
  61:      1276.16    0.000000  (  0.000000   0.000000   0.000000)
  62:      1282.63    0.000000  (  0.000000   0.000000   0.000000)
  63:      1316.34    0.000000  (  0.000000   0.000000   0.000000)
  64:      1345.97    0.000000  (  0.000000   0.000000   0.000000)
  65:      1354.92    0.000000  (  0.000000   0.000000   0.000000)
  66:      1367.93    0.000000  (  0.000000   0.000000   0.000000)
  67:      1414.84    0.000000  (  0.000000   0.000000   0.000000)
  68:      1434.41    0.000000  (  0.000000   0.000000   0.000000)
  69:      1459.54    0.000000  (  0.000000   0.000000   0.000000)
  70:      1466.29    0.000000  (  0.000000   0.000000   0.000000)
  71:      1477.19    0.000000  (  0.000000   0.000000   0.000000)
  72:      1484.84    0.000000  (  0.000000   0.000000   0.000000)
  73:      1493.05    0.000000  (  0.000000   0.000000   0.000000)
  74:      1501.00    0.000000  (  0.000000   0.000000   0.000000)
  75:      1501.22    0.000000  (  0.000000   0.000000   0.000000)
  76:      1513.69    0.000000  (  0.000000   0.000000   0.000000)
  77:      1555.34    0.000000  (  0.000000   0.000000   0.000000)
  78:      1589.17    0.000000  (  0.000000   0.000000   0.000000)
  79:      1595.57    0.000000  (  0.000000   0.000000   0.000000)
  80:      2733.65    0.000000  (  0.000000   0.000000   0.000000)
  81:      2921.28    0.000000  (  0.000000   0.000000   0.000000)
  82:      2960.09    0.000000  (  0.000000   0.000000   0.000000)
  83:      2969.85    0.000000  (  0.000000   0.000000   0.000000)
  84:      2974.68    0.000000  (  0.000000   0.000000   0.000000)
  85:      2984.11    0.000000  (  0.000000   0.000000   0.000000)
  86:      2992.08    0.000000  (  0.000000   0.000000   0.000000)
  87:      3027.98    0.000000  (  0.000000   0.000000   0.000000)
  88:      3031.11    0.000000  (  0.000000   0.000000   0.000000)
  89:      3037.34    0.000000  (  0.000000   0.000000   0.000000)
  90:      3038.93    0.000000  (  0.000000   0.000000   0.000000)
  91:      3065.56    0.000000  (  0.000000   0.000000   0.000000)
  92:      3073.26    0.000000  (  0.000000   0.000000   0.000000)
  93:      3078.49    0.000000  (  0.000000   0.000000   0.000000)
  94:      3087.82    0.000000  (  0.000000   0.000000   0.000000)
  95:      3095.99    0.000000  (  0.000000   0.000000   0.000000)
  96:      3280.78    0.000000  (  0.000000   0.000000   0.000000)
  97:      3355.92    0.000000  (  0.000000   0.000000   0.000000)
  98:      3643.56    0.000000  (  0.000000   0.000000   0.000000)

The first frequency considered to be a vibration is 6
The total number of vibrations considered is 93


--------------------------
THERMOCHEMISTRY AT 298.15K
--------------------------

Temperature         ... 298.15 K
Pressure            ... 1.00 atm
Total Mass          ... 197.28 AMU

Throughout the following assumptions are being made:
  (1) The electronic state is orbitally nondegenerate
  (2) There are no thermally accessible electronically excited states
  (3) Hindered rotations indicated by low frequency modes are not
      treated as such but are treated as vibrations and this may
      cause some error
  (4) All equations used are the standard statistical mechanics
      equations for an ideal gas
  (5) All vibrations are strictly harmonic

freq.      12.95  E(vib)   ...       0.57 
freq.      17.62  E(vib)   ...       0.57 
freq.      45.75  E(vib)   ...       0.53 
freq.      53.64  E(vib)   ...       0.52 
freq.      60.55  E(vib)   ...       0.51 
freq.      82.29  E(vib)   ...       0.48 
freq.      99.62  E(vib)   ...       0.46 
freq.     123.63  E(vib)   ...       0.43 
freq.     161.65  E(vib)   ...       0.39 
freq.     169.24  E(vib)   ...       0.38 
freq.     182.58  E(vib)   ...       0.37 
freq.     199.94  E(vib)   ...       0.35 
freq.     230.96  E(vib)   ...       0.32 
freq.     235.91  E(vib)   ...       0.32 
freq.     258.61  E(vib)   ...       0.30 
freq.     304.96  E(vib)   ...       0.26 
freq.     362.50  E(vib)   ...       0.22 
freq.     387.69  E(vib)   ...       0.20 
freq.     399.86  E(vib)   ...       0.19 
freq.     415.04  E(vib)   ...       0.19 
freq.     461.63  E(vib)   ...       0.16 
freq.     489.29  E(vib)   ...       0.15 
freq.     523.71  E(vib)   ...       0.13 
freq.     587.76  E(vib)   ...       0.10 
freq.     615.64  E(vib)   ...       0.10 
freq.     663.61  E(vib)   ...       0.08 
freq.     709.42  E(vib)   ...       0.07 
freq.     755.17  E(vib)   ...       0.06 
freq.     775.68  E(vib)   ...       0.05 
freq.     791.97  E(vib)   ...       0.05 
freq.     824.63  E(vib)   ...       0.04 
freq.     831.93  E(vib)   ...       0.04 
freq.     875.53  E(vib)   ...       0.04 
freq.     904.06  E(vib)   ...       0.03 
freq.     926.04  E(vib)   ...       0.03 
freq.     932.39  E(vib)   ...       0.03 
freq.     933.37  E(vib)   ...       0.03 
freq.     944.10  E(vib)   ...       0.03 
freq.     985.04  E(vib)   ...       0.02 
freq.     995.83  E(vib)   ...       0.02 
freq.    1037.64  E(vib)   ...       0.02 
freq.    1070.50  E(vib)   ...       0.02 
freq.    1079.46  E(vib)   ...       0.02 
freq.    1091.28  E(vib)   ...       0.02 
freq.    1103.72  E(vib)   ...       0.02 
freq.    1119.09  E(vib)   ...       0.01 
freq.    1122.46  E(vib)   ...       0.01 
freq.    1166.26  E(vib)   ...       0.01 
freq.    1180.06  E(vib)   ...       0.01 
freq.    1180.65  E(vib)   ...       0.01 
freq.    1182.54  E(vib)   ...       0.01 
freq.    1205.93  E(vib)   ...       0.01 
freq.    1224.92  E(vib)   ...       0.01 
freq.    1269.97  E(vib)   ...       0.01 
freq.    1272.96  E(vib)   ...       0.01 
freq.    1276.16  E(vib)   ...       0.01 
freq.    1282.63  E(vib)   ...       0.01 
freq.    1316.34  E(vib)   ...       0.01 
freq.    1345.97  E(vib)   ...       0.01 
freq.    1354.92  E(vib)   ...       0.01 
freq.    1367.93  E(vib)   ...       0.01 
freq.    1414.84  E(vib)   ...       0.00 
freq.    1434.41  E(vib)   ...       0.00 
freq.    1459.54  E(vib)   ...       0.00 
freq.    1466.29  E(vib)   ...       0.00 
freq.    1477.19  E(vib)   ...       0.00 
freq.    1484.84  E(vib)   ...       0.00 
freq.    1493.05  E(vib)   ...       0.00 
freq.    1501.00  E(vib)   ...       0.00 
freq.    1501.22  E(vib)   ...       0.00 
freq.    1513.69  E(vib)   ...       0.00 
freq.    1555.34  E(vib)   ...       0.00 
freq.    1589.17  E(vib)   ...       0.00 
freq.    1595.57  E(vib)   ...       0.00 
freq.    2733.65  E(vib)   ...       0.00 
freq.    2921.28  E(vib)   ...       0.00 
freq.    2960.09  E(vib)   ...       0.00 
freq.    2969.85  E(vib)   ...       0.00 
freq.    2974.68  E(vib)   ...       0.00 
freq.    2984.11  E(vib)   ...       0.00 
freq.    2992.08  E(vib)   ...       0.00 
freq.    3027.98  E(vib)   ...       0.00 
freq.    3031.11  E(vib)   ...       0.00 
freq.    3037.34  E(vib)   ...       0.00 
freq.    3038.93  E(vib)   ...       0.00 
freq.    3065.56  E(vib)   ...       0.00 
freq.    3073.26  E(vib)   ...       0.00 
freq.    3078.49  E(vib)   ...       0.00 
freq.    3087.82  E(vib)   ...       0.00 
freq.    3095.99  E(vib)   ...       0.00 
freq.    3280.78  E(vib)   ...       0.00 
freq.    3355.92  E(vib)   ...       0.00 
freq.    3643.56  E(vib)   ...       0.00 

------------
INNER ENERGY
------------

The inner energy is: U= E(el) + E(ZPE) + E(vib) + E(rot) + E(trans)
    E(el)   - is the total energy from the electronic structure calculation
              = E(kin-el) + E(nuc-el) + E(el-el) + E(nuc-nuc)
    E(ZPE)  - the the zero temperature vibrational energy from the frequency calculation
    E(vib)  - the the finite temperature correction to E(ZPE) due to population
              of excited vibrational states
    E(rot)  - is the rotational thermal energy
    E(trans)- is the translational thermal energy

Summary of contributions to the inner energy U:
Electronic energy                ...    -44.27203869 Eh
Zero point energy                ...      0.27889741 Eh     175.01 kcal/mol
Thermal vibrational correction   ...      0.01453305 Eh       9.12 kcal/mol
Thermal rotational correction    ...      0.00141627 Eh       0.89 kcal/mol
Thermal translational correction ...      0.00141627 Eh       0.89 kcal/mol
-----------------------------------------------------------------------
Total thermal energy                    -43.97577569 Eh


Summary of corrections to the electronic energy:
(perhaps to be used in another calculation)
Total thermal correction                  0.01736559 Eh      10.90 kcal/mol
Non-thermal (ZPE) correction              0.27889741 Eh     175.01 kcal/mol
-----------------------------------------------------------------------
Total correction                          0.29626300 Eh     185.91 kcal/mol


--------
ENTHALPY
--------

The enthalpy is H = U + kB*T
                kB is Boltzmann's constant
Total free energy                 ...    -43.97577569 Eh 
Thermal Enthalpy correction       ...      0.00094421 Eh       0.59 kcal/mol
-----------------------------------------------------------------------
Total Enthalpy                    ...    -43.97483148 Eh


Note: Only C1 symmetry has been detected, increase convergence thresholds 
      if your molecule has a higher symmetry. Symmetry factor of 1.0 is   
      used for the rotational entropy correction. 
 

Note: Rotational entropy computed according to Herzberg 
Infrared and Raman Spectra, Chapter V,1, Van Nostrand Reinhold, 1945 
Point Group:  C1, Symmetry Number:   1  
Rotational constants in cm-1:     0.031260     0.010817     0.008726 

Vibrational entropy computed according to the QRRHO of S. Grimme
Chem.Eur.J. 2012 18 9955


-------
ENTROPY
-------

The entropy contributions are T*S = T*(S(el)+S(vib)+S(rot)+S(trans))
     S(el)   - electronic entropy
     S(vib)  - vibrational entropy
     S(rot)  - rotational entropy
     S(trans)- translational entropy
The entropies will be listed as mutliplied by the temperature to get
units of energy

Electronic entropy                ...      0.00000000 Eh      0.00 kcal/mol
Vibrational entropy               ...      0.02682890 Eh     16.84 kcal/mol
Rotational entropy                ...      0.01552217 Eh      9.74 kcal/mol
Translational entropy             ...      0.01983352 Eh     12.45 kcal/mol
-----------------------------------------------------------------------
Final entropy term                ...      0.06218459 Eh     39.02 kcal/mol

In case the symmetry of your molecule has not been determined correctly
or in case you have a reason to use a different symmetry number we print 
out the resulting rotational entropy values for sn=1,12 :
 --------------------------------------------------------
|  sn= 1 | S(rot)=       0.01552217 Eh      9.74 kcal/mol|
|  sn= 2 | S(rot)=       0.01486771 Eh      9.33 kcal/mol|
|  sn= 3 | S(rot)=       0.01448488 Eh      9.09 kcal/mol|
|  sn= 4 | S(rot)=       0.01421326 Eh      8.92 kcal/mol|
|  sn= 5 | S(rot)=       0.01400257 Eh      8.79 kcal/mol|
|  sn= 6 | S(rot)=       0.01383043 Eh      8.68 kcal/mol|
|  sn= 7 | S(rot)=       0.01368488 Eh      8.59 kcal/mol|
|  sn= 8 | S(rot)=       0.01355880 Eh      8.51 kcal/mol|
|  sn= 9 | S(rot)=       0.01344759 Eh      8.44 kcal/mol|
|  sn=10 | S(rot)=       0.01334811 Eh      8.38 kcal/mol|
|  sn=11 | S(rot)=       0.01325812 Eh      8.32 kcal/mol|
|  sn=12 | S(rot)=       0.01317597 Eh      8.27 kcal/mol|
 --------------------------------------------------------


-------------------
GIBBS FREE ENERGY
-------------------

The Gibbs free energy is G = H - T*S

Total enthalpy                    ...    -43.97483148 Eh 
Total entropy correction          ...     -0.06218459 Eh    -39.02 kcal/mol
-----------------------------------------------------------------------
Final Gibbs free energy         ...    -44.03701607 Eh

For completeness - the Gibbs free energy minus the electronic energy
G-E(el)                           ...      0.23502261 Eh    147.48 kcal/mol


Total Time for Numerical Frequencies  :        87.599 sec

Timings for individual modules:

Sum of individual times         ...       19.004 sec (=   0.317 min)
Geometry relaxation             ...       11.889 sec (=   0.198 min)  62.6 %
XTB module                      ...        7.116 sec (=   0.119 min)  37.4 %
                             ****ORCA TERMINATED NORMALLY****
TOTAL RUN TIME: 0 days 0 hours 1 minutes 56 seconds 927 msec
