
                                 *****************
                                 * O   R   C   A *
                                 *****************

           --- An Ab Initio, DFT and Semiempirical electronic structure package ---

                  #######################################################
                  #                        -***-                        #
                  #          Department of theory and spectroscopy      #
                  #               Directorship: Frank Neese             #
                  #        Max Planck Institute fuer Kohlenforschung    #
                  #                Kaiser Wilhelm Platz 1               #
                  #                 D-45470 Muelheim/Ruhr               #
                  #                      Germany                        #
                  #                                                     #
                  #                  All rights reserved                #
                  #                        -***-                        #
                  #######################################################


                         Program Version 4.2.1 -  RELEASE  -


 With contributions from (in alphabetic order):
   Daniel Aravena         : Magnetic Suceptibility
   Michael Atanasov       : Ab Initio Ligand Field Theory (pilot matlab implementation)
   Alexander A. Auer      : GIAO ZORA, VPT2
   Ute Becker             : Parallelization
   Giovanni Bistoni       : ED, misc. LED, open-shell LED, HFLD
   Martin Brehm           : Molecular dynamics
   Dmytro Bykov           : SCF Hessian
   Vijay G. Chilkuri      : MRCI spin determinant printing, contributions to CSF-ICE
   Dipayan Datta          : RHF DLPNO-CCSD density
   Achintya Kumar Dutta   : EOM-CC, STEOM-CC
   Dmitry Ganyushin       : Spin-Orbit,Spin-Spin,Magnetic field MRCI
   Miquel Garcia          : C-PCM Hessian, Gaussian charge scheme
   Yang Guo               : DLPNO-NEVPT2, CIM, IAO-localization
   Andreas Hansen         : Spin unrestricted coupled pair/coupled cluster methods
   Benjamin Helmich-Paris : CASSCF linear response (MC-RPA)
   Lee Huntington         : MR-EOM, pCC
   Robert Izsak           : Overlap fitted RIJCOSX, COSX-SCS-MP3, EOM
   Christian Kollmar      : KDIIS, OOCD, Brueckner-CCSD(T), CCSD density
   Simone Kossmann        : Meta GGA functionals, TD-DFT gradient, OOMP2, MP2 Hessian
   Martin Krupicka        : AUTO-CI
   Lucas Lang             : DCDCAS
   Dagmar Lenk            : GEPOL surface, SMD
   Dimitrios Liakos       : Extrapolation schemes; Compound Job, initial MDCI parallelization
   Dimitrios Manganas     : Further ROCIS development; embedding schemes
   Dimitrios Pantazis     : SARC Basis sets
   Taras Petrenko         : DFT Hessian,TD-DFT gradient, ASA, ECA, R-Raman, ABS, FL, XAS/XES, NRVS
   Peter Pinski           : DLPNO-MP2, DLPNO-MP2 Gradient
   Christoph Reimann      : Effective Core Potentials
   Marius Retegan         : Local ZFS, SOC
   Christoph Riplinger    : Optimizer, TS searches, QM/MM, DLPNO-CCSD(T), (RO)-DLPNO pert. Triples
   Tobias Risthaus        : Range-separated hybrids, TD-DFT gradient, RPA, STAB
   Michael Roemelt        : Original ROCIS implementation
   Masaaki Saitow         : Open-shell DLPNO-CCSD energy and density
   Barbara Sandhoefer     : DKH picture change effects
   Avijit Sen             : IP-ROCIS
   Kantharuban Sivalingam : CASSCF convergence, NEVPT2, FIC-MRCI
   Bernardo de Souza      : ESD, SOC TD-DFT
   Georgi Stoychev        : AutoAux, RI-MP2 NMR
   Willem Van den Heuvel  : Paramagnetic NMR
   Boris Wezisla          : Elementary symmetry handling
   Frank Wennmohs         : Technical directorship


 We gratefully acknowledge several colleagues who have allowed us to
 interface, adapt or use parts of their codes:
   Stefan Grimme, W. Hujo, H. Kruse,             : VdW corrections, initial TS optimization,
                  C. Bannwarth                     DFT functionals, gCP, sTDA/sTD-DF
   Ed Valeev, F. Pavosevic, A. Kumar             : LibInt (2-el integral package), F12 methods
   Garnet Chan, S. Sharma, J. Yang, R. Olivares  : DMRG
   Ulf Ekstrom                                   : XCFun DFT Library
   Mihaly Kallay                                 : mrcc  (arbitrary order and MRCC methods)
   Andreas Klamt, Michael Diedenhofen            : otool_cosmo (COSMO solvation model)
   Jiri Pittner, Ondrej Demel                    : Mk-CCSD
   Frank Weinhold                                : gennbo (NPA and NBO analysis)
   Christopher J. Cramer and Donald G. Truhlar   : smd solvation model
   Lars Goerigk                                  : TD-DFT with DH, B97 family of functionals
   V. Asgeirsson, H. Jonsson                     : NEB implementation
   FAccTs GmbH                                   : IRC, NEB, NEB-TS, Multilevel, MM, QM/MM, CI optimization
   S Lehtola, MJT Oliveira, MAL Marques          : LibXC Library


 Your calculation uses the libint2 library for the computation of 2-el integrals
 For citations please refer to: http://libint.valeyev.net

 Your ORCA version has been built with support for libXC version: 4.2.3
 For citations please refer to: https://tddft.org/programs/libxc/

 This ORCA versions uses:
   CBLAS   interface :  Fast vector & matrix operations
   LAPACKE interface :  Fast linear algebra routines
   SCALAPACK package :  Parallel linear algebra routines




***************************************
The coordinates will be read from file: init.xyz
***************************************


Your calculation utilizes the SMD solvation module
Please cite in your paper:
A.V. Marenich, C.J. Cramer, D.G. Truhlar J. Phys. Chem. B, 113, (2009), 6378 

Your calculation utilizes the semiempirical GFN2-xTB method
Please cite in your paper:
C. Bannwarth, Ehlert S., S. Grimme,  J. Chem. Theory Comput., 15, (2019), 1652.
   

----- Orbital basis set information -----
Your calculation utilizes the basis: def2-SVP
   F. Weigend and R. Ahlrichs, Phys. Chem. Chem. Phys. 7, 3297 (2005).

================================================================================
                                        WARNINGS
                       Please study these warnings very carefully!
================================================================================


WARNING: The environment variable RSH_COMMAND is not set!
  ===> : All Displacements for the Numerical Hessian calculation
         will be started on localhost

WARNING: Geometry Optimization
  ===> : Switching off AutoStart
         For restart on a previous wavefunction, please use MOREAD

WARNING: Found dipole moment calculation with XTB calculation
  ===> : Switching off dipole moment calculation


INFO   : the flag for use of LIBINT has been found!

================================================================================
                                       INPUT FILE
================================================================================
NAME = opt+freq.inp
|  1> ! XTB2 Opt NumFreq
|  2> 
|  3> %cpcm
|  4>  smd true
|  5>  smdsolvent "ch2cl2"
|  6> end
|  7> 
|  8> %pal
|  9>  nprocs 12
| 10> end
| 11> 
| 12> *xyzfile 0 1 init.xyz
| 13> 
| 14>                          ****END OF INPUT****
================================================================================

                       *****************************
                       * Geometry Optimization Run *
                       *****************************

Geometry optimization settings:
Update method            Update   .... BFGS
Choice of coordinates    CoordSys .... Z-matrix Internals
Initial Hessian          InHess   .... Almoef's Model

Convergence Tolerances:
Energy Change            TolE     ....  5.0000e-06 Eh
Max. Gradient            TolMAXG  ....  3.0000e-04 Eh/bohr
RMS Gradient             TolRMSG  ....  1.0000e-04 Eh/bohr
Max. Displacement        TolMAXD  ....  4.0000e-03 bohr
RMS Displacement         TolRMSD  ....  2.0000e-03 bohr
Strict Convergence                ....  False
------------------------------------------------------------------------------
                        ORCA OPTIMIZATION COORDINATE SETUP
------------------------------------------------------------------------------

The optimization will be done in new redundant internal coordinates
Making redundant internal coordinates   ...  (new redundants) done
Evaluating the initial hessian          ...  (Almloef) done
Evaluating the coordinates              ...  done
Calculating the B-matrix                .... done
Calculating the G-matrix                .... done
Diagonalizing the G-matrix              .... done
Small eigenvalue found = 4.221e-03
Small eigenvalue found = 1.104e-02
Small eigenvalue found = 1.575e-02
Small eigenvalue found = 2.608e-02
The first mode is                       ....  120
The number of degrees of freedom        ....  102

    -----------------------------------------------------------------
                    Redundant Internal Coordinates


    -----------------------------------------------------------------
         Definition                    Initial Value    Approx d2E/dq
    -----------------------------------------------------------------
      1. B(C   1,C   0)                  1.3914         0.621679   
      2. B(C   2,C   1)                  1.3825         0.642169   
      3. B(C   3,C   2)                  1.3856         0.634971   
      4. B(C   4,C   3)                  1.3843         0.637945   
      5. B(C   5,C   4)                  1.3849         0.636525   
      6. B(C   5,C   0)                  1.3885         0.628251   
      7. B(C   6,C   0)                  1.5149         0.394955   
      8. B(H   7,C   1)                  1.0818         0.371152   
      9. B(H   8,C   5)                  1.0785         0.375648   
     10. B(H   9,C   3)                  1.0801         0.373465   
     11. B(N  10,C   6)                  1.6994         0.179575   
     12. B(C  11,N  10)                  1.4684         0.419623   
     13. B(H  12,N  10)                  1.0474         0.377156   
     14. B(C  13,C  11)                  1.5236         0.382519   
     15. B(H  14,C  11)                  1.0948         0.353794   
     16. B(H  15,C  11)                  1.0932         0.355872   
     17. B(H  16,C  13)                  1.0934         0.355583   
     18. B(H  17,C  13)                  1.0915         0.358155   
     19. B(O  18,C   6)                  1.2783         0.843388   
     20. B(H  20,O  19)                  1.0303         0.401683   
     21. B(H  20,O  18)                  1.5135         0.068059   
     22. B(H  21,O  19)                  0.9589         0.522128   
     23. B(O  22,H  12)                  1.6856         0.036170   
     24. B(H  23,O  22)                  0.9954         0.456599   
     25. B(H  23,O  19)                  1.6373         0.043194   
     26. B(H  23,H  12)                  1.9936         0.002494   
     27. B(H  23,H  20)                  2.0464         0.002054   
     28. B(H  24,O  22)                  0.9602         0.519654   
     29. B(H  25,C   6)                  1.1113         0.332954   
     30. B(H  26,N  10)                  1.0201         0.416919   
     31. B(H  27,C   2)                  1.0802         0.373326   
     32. B(H  28,C   4)                  1.0803         0.373175   
     33. B(C  29,C  13)                  1.5272         0.377410   
     34. B(H  30,C  29)                  1.0917         0.357822   
     35. B(H  31,C  29)                  1.0920         0.357471   
     36. B(C  32,C  29)                  1.5241         0.381745   
     37. B(H  33,C  32)                  1.0880         0.362713   
     38. B(H  34,C  32)                  1.0872         0.363801   
     39. B(H  35,C  32)                  1.0880         0.362741   
     40. A(C   1,C   0,C   5)          119.1142         0.435312   
     41. A(C   5,C   0,C   6)          121.9222         0.401518   
     42. A(C   1,C   0,C   6)          118.9394         0.400775   
     43. A(C   0,C   1,H   7)          119.5643         0.354883   
     44. A(C   2,C   1,H   7)          119.8475         0.356842   
     45. A(C   0,C   1,C   2)          120.5805         0.437034   
     46. A(C   1,C   2,C   3)          119.9820         0.438704   
     47. A(C   3,C   2,H  27)          120.1456         0.356513   
     48. A(C   1,C   2,H  27)          119.8705         0.357197   
     49. A(C   2,C   3,H   9)          120.0900         0.356536   
     50. A(C   2,C   3,C   4)          119.7744         0.438182   
     51. A(C   4,C   3,H   9)          120.1343         0.356819   
     52. A(C   3,C   4,C   5)          120.2641         0.438376   
     53. A(C   5,C   4,H  28)          119.5867         0.356637   
     54. A(C   3,C   4,H  28)          120.1481         0.356772   
     55. A(C   0,C   5,H   8)          119.6742         0.356244   
     56. A(C   4,C   5,H   8)          120.0366         0.357037   
     57. A(C   0,C   5,C   4)          120.2835         0.437167   
     58. A(C   0,C   6,N  10)          101.4172         0.322445   
     59. A(O  18,C   6,H  25)          114.2836         0.364682   
     60. A(C   0,C   6,H  25)          108.7689         0.323112   
     61. A(C   0,C   6,O  18)          121.0844         0.420309   
     62. A(N  10,C   6,O  18)          108.6616         0.363897   
     63. A(N  10,C   6,H  25)           99.6247         0.283249   
     64. A(C   6,N  10,H  26)          109.1655         0.291011   
     65. A(C   6,N  10,H  12)          105.7178         0.286479   
     66. A(H  12,N  10,H  26)          109.0191         0.294956   
     67. A(C  11,N  10,H  26)          111.5414         0.333796   
     68. A(C  11,N  10,H  12)          109.2546         0.328305   
     69. A(C   6,N  10,C  11)          111.9435         0.323721   
     70. A(H  14,C  11,H  15)          108.5117         0.289497   
     71. A(C  13,C  11,H  15)          110.1690         0.324951   
     72. A(N  10,C  11,H  15)          109.2674         0.327964   
     73. A(C  13,C  11,H  14)          110.7603         0.324638   
     74. A(N  10,C  11,H  14)          106.2644         0.327648   
     75. A(N  10,C  11,C  13)          111.7434         0.369847   
     76. A(O  22,H  12,H  23)           29.9231         0.119768   
     77. A(N  10,H  12,H  23)          149.2870         0.141306   
     78. A(H  16,C  13,H  17)          108.1590         0.290017   
     79. A(C  11,C  13,H  17)          109.5486         0.325293   
     80. A(C  11,C  13,H  16)          109.2446         0.324907   
     81. A(H  17,C  13,C  29)          109.1495         0.324575   
     82. A(H  16,C  13,C  29)          109.1626         0.324191   
     83. A(C  11,C  13,C  29)          111.5117         0.365463   
     84. A(C   6,O  18,H  20)          117.8103         0.279221   
     85. A(H  20,O  19,H  23)           97.5888         0.214057   
     86. A(H  20,O  19,H  21)          105.0847         0.308830   
     87. A(H  21,O  19,H  23)          112.1018         0.221705   
     88. A(O  18,H  20,H  23)          123.6755         0.122977   
     89. A(O  19,H  20,H  23)           52.4743         0.139779   
     90. A(H  23,O  22,H  24)          105.6186         0.315056   
     91. A(H  12,O  22,H  24)          114.0307         0.216343   
     92. A(H  12,O  22,H  23)           92.4324         0.212669   
     93. A(H  12,H  23,O  22)           57.6445         0.143619   
     94. A(O  19,H  23,H  20)           29.9369         0.119654   
     95. A(H  12,H  23,H  20)           80.7146         0.102005   
     96. A(H  20,H  23,O  22)          138.1234         0.141274   
     97. A(H  12,H  23,O  19)          110.5844         0.121029   
     98. A(O  19,H  23,O  22)          168.0008         0.217738   
     99. A(H  31,C  29,C  32)          109.5080         0.325082   
    100. A(H  30,C  29,C  32)          109.5926         0.325134   
    101. A(C  13,C  29,C  32)          111.4616         0.365336   
    102. A(H  30,C  29,H  31)          107.7715         0.290216   
    103. A(C  13,C  29,H  31)          109.2505         0.324473   
    104. A(C  13,C  29,H  30)          109.1794         0.324525   
    105. A(H  34,C  32,H  35)          108.3674         0.291642   
    106. A(H  33,C  32,H  35)          108.3896         0.291505   
    107. A(C  29,C  32,H  35)          110.5454         0.325865   
    108. A(H  33,C  32,H  34)          108.3995         0.291638   
    109. A(C  29,C  32,H  34)          110.4896         0.326022   
    110. A(C  29,C  32,H  33)          110.5738         0.325861   
    111. D(C   2,C   1,C   0,C   5)     -0.3071         0.026752   
    112. D(H   7,C   1,C   0,C   6)     -1.0593         0.026752   
    113. D(C   2,C   1,C   0,C   6)    177.9367         0.026752   
    114. D(H   7,C   1,C   0,C   5)   -179.3031         0.026752   
    115. D(H  27,C   2,C   1,C   0)   -179.4878         0.028665   
    116. D(C   3,C   2,C   1,C   0)      0.0069         0.028665   
    117. D(C   3,C   2,C   1,H   7)    179.0001         0.028665   
    118. D(H  27,C   2,C   1,H   7)     -0.4946         0.028665   
    119. D(H   9,C   3,C   2,H  27)      0.1797         0.027984   
    120. D(H   9,C   3,C   2,C   1)   -179.3136         0.027984   
    121. D(C   4,C   3,C   2,H  27)    179.7620         0.027984   
    122. D(C   4,C   3,C   2,C   1)      0.2687         0.027984   
    123. D(C   5,C   4,C   3,H   9)    179.3402         0.028264   
    124. D(H  28,C   4,C   3,C   2)   -179.8569         0.028264   
    125. D(H  28,C   4,C   3,H   9)     -0.2748         0.028264   
    126. D(C   5,C   4,C   3,C   2)     -0.2419         0.028264   
    127. D(H   8,C   5,C   4,H  28)      0.4316         0.028130   
    128. D(C   4,C   5,C   0,C   1)      0.3337         0.027357   
    129. D(H   8,C   5,C   4,C   3)   -179.1855         0.028130   
    130. D(C   0,C   5,C   4,C   3)     -0.0616         0.028130   
    131. D(H   8,C   5,C   0,C   1)    179.4608         0.027357   
    132. D(H   8,C   5,C   0,C   6)      1.2716         0.027357   
    133. D(C   0,C   5,C   4,H  28)    179.5555         0.028130   
    134. D(C   4,C   5,C   0,C   6)   -177.8555         0.027357   
    135. D(H  25,C   6,C   0,C   5)    153.6004         0.011590   
    136. D(O  18,C   6,C   0,C   5)     18.1988         0.011590   
    137. D(O  18,C   6,C   0,C   1)   -159.9935         0.011590   
    138. D(N  10,C   6,C   0,C   5)   -101.9945         0.011590   
    139. D(N  10,C   6,C   0,C   1)     79.8132         0.011590   
    140. D(H  25,C   6,C   0,C   1)    -24.5919         0.011590   
    141. D(C  11,N  10,C   6,C   0)   -174.9297         0.003842   
    142. D(H  26,N  10,C   6,O  18)   -179.5562         0.003842   
    143. D(H  12,N  10,C   6,H  25)    177.7494         0.003842   
    144. D(H  26,N  10,C   6,C   0)    -50.9358         0.003842   
    145. D(H  12,N  10,C   6,C   0)     66.2076         0.003842   
    146. D(C  11,N  10,C   6,H  25)    -63.3878         0.003842   
    147. D(H  12,N  10,C   6,O  18)    -62.4128         0.003842   
    148. D(H  26,N  10,C   6,H  25)     60.6060         0.003842   
    149. D(C  11,N  10,C   6,O  18)     56.4499         0.003842   
    150. D(H  15,C  11,N  10,H  26)     84.7891         0.016083   
    151. D(H  14,C  11,N  10,H  12)     81.0858         0.016083   
    152. D(H  14,C  11,N  10,C   6)    -35.6638         0.016083   
    153. D(C  13,C  11,N  10,H  26)    -37.3948         0.016083   
    154. D(C  13,C  11,N  10,H  12)   -157.9920         0.016083   
    155. D(H  14,C  11,N  10,H  26)   -158.3170         0.016083   
    156. D(C  13,C  11,N  10,C   6)     85.2585         0.016083   
    157. D(H  15,C  11,N  10,H  12)    -35.8081         0.016083   
    158. D(H  15,C  11,N  10,C   6)   -152.5577         0.016083   
    159. D(H  23,H  12,N  10,C  11)    -81.9379         0.185336   
    160. D(H  23,H  12,N  10,C   6)     38.6934         0.185336   
    161. D(H  23,H  12,N  10,H  26)    155.9355         0.185336   
    162. D(C  29,C  13,C  11,H  15)     56.4128         0.011654   
    163. D(C  29,C  13,C  11,N  10)    178.0780         0.011654   
    164. D(H  17,C  13,C  11,H  15)    177.3510         0.011654   
    165. D(H  17,C  13,C  11,H  14)     57.2872         0.011654   
    166. D(H  17,C  13,C  11,N  10)    -60.9838         0.011654   
    167. D(H  16,C  13,C  11,H  15)    -64.3384         0.011654   
    168. D(C  29,C  13,C  11,H  14)    -63.6510         0.011654   
    169. D(H  16,C  13,C  11,H  14)    175.5979         0.011654   
    170. D(H  16,C  13,C  11,N  10)     57.3268         0.011654   
    171. D(H  20,O  18,C   6,H  25)    173.2454         0.061459   
    172. D(H  20,O  18,C   6,N  10)     63.0039         0.061459   
    173. D(H  20,O  18,C   6,C   0)    -53.5846         0.061459   
    174. D(H  23,O  19,O  18,C   6)    -30.6664         0.001504   
    175. D(H  21,O  19,O  18,C   6)   -145.1445         0.001504   
    176. D(H  23,H  20,O  19,H  21)   -115.4063         0.198772   
    177. D(H  23,H  20,O  18,C   6)    -33.4358         0.004328   
    178. D(H  24,O  22,H  12,H  23)   -108.2997         0.002307   
    179. D(H  24,O  22,N  10,H  26)     42.3815         0.001501   
    180. D(H  24,O  22,N  10,C  11)    164.0193         0.001501   
    181. D(H  24,O  22,N  10,C   6)    -76.0162         0.001501   
    182. D(H  23,O  22,N  10,H  26)    150.8187         0.001501   
    183. D(H  23,O  22,N  10,C  11)    -87.5434         0.001501   
    184. D(H  23,O  22,N  10,C   6)     32.4211         0.001501   
    185. D(H  20,H  23,O  22,H  12)     -6.8778         0.299796   
    186. D(H  20,H  23,O  22,H  24)    108.9136         0.299796   
    187. D(O  19,H  23,O  22,H  12)    -11.8286         0.299796   
    188. D(H  12,H  23,O  22,H  24)    115.7914         0.299796   
    189. D(O  19,H  23,H  20,O  18)   -176.5156         0.001546   
    190. D(H  12,H  23,H  20,O  18)     -0.3385         0.001546   
    191. D(O  22,H  23,H  20,O  18)      5.5447         0.001546   
    192. D(O  22,H  23,H  20,O  19)   -177.9397         0.001546   
    193. D(H  20,H  23,O  19,H  21)    109.7230         0.002784   
    194. D(H  12,H  23,O  19,H  21)    105.6925         0.002784   
    195. D(H  12,H  23,O  19,H  20)     -4.0305         0.002784   
    196. D(H  12,H  23,H  20,O  19)    176.1770         0.001546   
    197. D(O  22,H  23,O  19,H  21)    116.3518         0.002784   
    198. D(O  22,H  23,O  19,H  20)      6.6288         0.002784   
    199. D(H  20,H  23,H  12,O  22)    175.3540         0.001567   
    200. D(O  19,H  23,O  22,H  24)    103.9628         0.299796   
    201. D(H  20,H  23,H  12,N  10)    -11.3109         0.001567   
    202. D(O  19,H  23,H  12,O  22)    177.3909         0.001567   
    203. D(O  19,H  23,H  12,N  10)     -9.2740         0.001567   
    204. D(O  22,H  23,H  12,N  10)    173.3351         0.001567   
    205. D(C  32,C  29,C  13,H  16)    -58.7057         0.011361   
    206. D(C  32,C  29,C  13,C  11)   -179.5049         0.011361   
    207. D(H  31,C  29,C  13,H  17)   -179.5203         0.011361   
    208. D(H  31,C  29,C  13,H  16)     62.4497         0.011361   
    209. D(H  31,C  29,C  13,C  11)    -58.3494         0.011361   
    210. D(H  30,C  29,C  13,H  17)    -61.8896         0.011361   
    211. D(H  30,C  29,C  13,H  16)   -179.9196         0.011361   
    212. D(C  32,C  29,C  13,H  17)     59.3242         0.011361   
    213. D(H  30,C  29,C  13,C  11)     59.2813         0.011361   
    214. D(H  35,C  32,C  29,H  31)    178.8527         0.011609   
    215. D(H  35,C  32,C  29,C  13)    -60.1421         0.011609   
    216. D(H  34,C  32,C  29,H  31)     58.8997         0.011609   
    217. D(H  34,C  32,C  29,H  30)    -59.1223         0.011609   
    218. D(H  34,C  32,C  29,C  13)    179.9049         0.011609   
    219. D(H  33,C  32,C  29,H  31)    -61.1118         0.011609   
    220. D(H  35,C  32,C  29,H  30)     60.8307         0.011609   
    221. D(H  33,C  32,C  29,H  30)   -179.1339         0.011609   
    222. D(H  33,C  32,C  29,C  13)     59.8934         0.011609   
    -----------------------------------------------------------------

Number of atoms                         .... 36
Number of degrees of freedom            .... 222

         *************************************************************
         *                GEOMETRY OPTIMIZATION CYCLE   1            *
         *************************************************************
      -----------------------------------------------------------      
     |                   =====================                   |     
     |                           x T B                           |     
     |                   =====================                   |     
     |                         S. Grimme                         |     
     |          Mulliken Center for Theoretical Chemistry        |     
     |                    University of Bonn                     |     
      -----------------------------------------------------------      

   * xtb version 6.3.0 (49875a8) compiled by 'schneider@apollo14' on 2020-05-23

   xtb is free software: you can redistribute it and/or modify it under
   the terms of the GNU Lesser General Public License as published by
   the Free Software Foundation, either version 3 of the License, or
   (at your option) any later version.
   
   xtb is distributed in the hope that it will be useful,
   but WITHOUT ANY WARRANTY; without even the implied warranty of
   MERCHANTABILITY or FITNESS FOR A PARTICULAR PURPOSE.  See the
   GNU Lesser General Public License for more details.
   
   Cite this work as:
   * S. Grimme, C. Bannwarth, P. Shushkov, J. Chem. Theory Comput., 2017,
     13, 1989-2009. DOI: 10.1021/acs.jctc.7b00118
   * C. Bannwarth, S. Ehlert and S. Grimme., J. Chem. Theory Comput., 2019,
     15, 1652-1671. DOI: 10.1021/acs.jctc.8b01176
   * P. Pracht, E. Caldeweyher, S. Ehlert, S. Grimme, ChemRxiv, 2019, preprint.
     DOI: 10.26434/chemrxiv.8326202.v1
   
   for GFN-FF:
   * S. Spicher and S. Grimme, Angew. Chem. Int. Ed., 2020,
     DOI: 10.1002/anie.202004239
   
   for DFT-D4:
   * E. Caldeweyher, C. Bannwarth and S. Grimme, J. Chem. Phys., 2017,
     147, 034112. DOI: 10.1063/1.4993215
   * E. Caldeweyher, S. Ehlert, A. Hansen, H. Neugebauer, S. Spicher,
     C. Bannwarth and S. Grimme, J. Chem. Phys., 2019, 150, 154122.
     DOI: 10.1063/1.5090222
   
   for sTDA-xTB:
   * S. Grimme and C. Bannwarth, J. Chem. Phys., 2016, 145, 054103.
     DOI: 10.1063/1.4959605
   
   in the mass-spec context:
   * V. Asgeirsson, C. Bauer and S. Grimme, Chem. Sci., 2017, 8, 4879.
     DOI: 10.1039/c7sc00601b
   * J. Koopman and S. Grimme, ACS Omega 2019, 4, 12, 15120-15133.
     DOI: 10.1021/acsomega.9b02011
   
   for metadynamics refer to:
   * S. Grimme, J. Chem. Theory Comput., 2019, 155, 2847-2862
     DOI: 10.1021/acs.jctc.9b00143
   
   with help from (in alphabetical order)
   C. Bannwarth, F. Bohle, G. Brandenburg, E. Caldeweyher, M. Checinski,
   S. Dohm, S. Ehlert, S. Ehrlich, F. März, H. Neugebauer, J. Pisarek,
   P. Pracht, P. Shushkov, and S. Spicher.
   
 * started run on 2020/06/24 at 15:19:15.469     

           -------------------------------------------------
          |                Calculation Setup                |
           -------------------------------------------------

          program call               : /opt/orca/otool_xtb opt+freq_XTB.xyz --grad -c 0 -u 0 -P 12 --namespace opt+freq --gbsa CH2Cl2
          calculation namespace      : opt+freq
          coordinate file            : opt+freq_XTB.xyz
          number of atoms            :                    36
          number of electrons        :                    88
          charge                     :                     0
          spin                       :                   0.0
          first test random number   :      0.38700482653770

   ID    Z sym.   atoms
    1    6 C      1-7, 12, 14, 30, 33
    2    1 H      8-10, 13, 15-18, 21, 22, 24-29, 31, 32, 34-36
    3    7 N      11
    4    8 O      19, 20, 23

molecular fragmentation (1/2 indicates fragments):
111111111111111111122222211111111111
# atoms in fragment 1/2:    30     6
 fragment masses (1/2) :      179.26       36.03
CMA distance (Bohr)    :   6.435
constraining FC (au)   :  0.0500
########################################################################
[WARNING] Please study the warnings concerning your input carefully
-1- prog_main_parseArguments: Process number higher than OMP_NUM_THREADS, I hope you know what you are doing.
########################################################################
 Solvent             : CH2Cl2
 Using internal parameter file: .param_gbsa2_CH2Cl2
 Gsolv ref. state (COSMO-RS): gsolv [1 M gas/solution]
 temperature (mdtemp)       :    298.14999999999998     
 dielectric constant        :    8.9299999999999997     
 rho                        :    1.3300000000000003     
 mass                       :    84.930000000000007     
 surface tension            :    15.568945408385856     
 probe radius               :   0.71987590000000001     
 Gshift (Eh)                :    4.4408291734517593E-003
 c1                         :    1.4917377599999999     
 soset                      :    0.0000000000000000     
 HB correction              :  F

           -------------------------------------------------
          |                 G F N 2 - x T B                 |
           -------------------------------------------------

        Reference                      10.1021/acs.jctc.8b01176
      * Hamiltonian:
        H0-scaling (s, p, d)           1.850000    2.230000    2.230000
        zeta-weighting                 0.500000
      * Dispersion:
        s8                             2.700000
        a1                             0.520000
        a2                             5.000000
        s9                             5.000000
      * Repulsion:
        kExp                           1.500000    1.000000
        rExp                           1.000000
      * Coulomb:
        alpha                          2.000000
        third order                    shell-resolved
        anisotropic                    true
        a3                             3.000000
        a5                             4.000000
        cn-shift                       1.200000
        cn-exp                         4.000000
        max-rad                        5.000000


          ...................................................
          :                      SETUP                      :
          :.................................................:
          :  # basis functions                  81          :
          :  # atomic orbitals                  81          :
          :  # shells                           51          :
          :  # electrons                        88          :
          :  max. iterations                   250          :
          :  Hamiltonian                  GFN2-xTB          :
          :  restarted?                      false          :
          :  GBSA solvation                   true          :
          :  PC potential                    false          :
          :  electronic temp.          300.0000000     K    :
          :  accuracy                    1.0000000          :
          :  -> integral cutoff          0.2500000E+02      :
          :  -> integral neglect         0.1000000E-07      :
          :  -> SCF convergence          0.1000000E-05 Eh   :
          :  -> wf. convergence          0.1000000E-03 e    :
          :  Broyden damping             0.4000000          :
          ...................................................

 iter      E             dE          RMSdq      gap      omega  full diag
   1    -49.8820441 -0.498820E+02  0.400E+00    4.45       0.0  T
   2    -49.9797267 -0.976826E-01  0.231E+00    3.72       1.0  T
   3    -49.9809791 -0.125239E-02  0.958E-01    3.41       1.0  T
   4    -49.9817769 -0.797764E-03  0.295E-01    3.41       1.0  T
   5    -49.9842989 -0.252202E-02  0.802E-02    3.48       1.0  T
   6    -49.9843345 -0.355621E-04  0.382E-02    3.50       1.0  T
   7    -49.9843413 -0.686127E-05  0.151E-02    3.50       1.1  T
   8    -49.9843428 -0.148672E-05  0.517E-03    3.50       3.2  T
   9    -49.9843431 -0.270286E-06  0.267E-03    3.50       6.2  T
  10    -49.9843431 -0.423729E-07  0.958E-04    3.50      17.4  T
  11    -49.9843431 -0.317485E-08  0.444E-04    3.50      37.5  T

   *** convergence criteria satisfied after 11 iterations ***

         #    Occupation            Energy/Eh            Energy/eV
      -------------------------------------------------------------
         1        2.0000           -0.6866043             -18.6835
       ...           ...                  ...                  ...
        38        2.0000           -0.4351221             -11.8403
        39        2.0000           -0.4300909             -11.7034
        40        2.0000           -0.4240429             -11.5388
        41        2.0000           -0.4092320             -11.1358
        42        2.0000           -0.4070535             -11.0765
        43        2.0000           -0.3886533             -10.5758
        44        2.0000           -0.3649787              -9.9316 (HOMO)
        45                         -0.2362931              -6.4299 (LUMO)
        46                         -0.2275894              -6.1930
        47                         -0.1308100              -3.5595
        48                         -0.0775169              -2.1093
        49                         -0.0070574              -0.1920
       ...                                ...                  ...
        81                          0.6605329              17.9740
      -------------------------------------------------------------
                  HL-Gap            0.1286857 Eh            3.5017 eV
             Fermi-level           -0.3006359 Eh           -8.1807 eV

 SCC (total)                   0 d,  0 h,  0 min,  0.112 sec
 SCC setup                      ...        0 min,  0.001 sec (  1.119%)
 Dispersion                     ...        0 min,  0.000 sec (  0.332%)
 classical contributions        ...        0 min,  0.000 sec (  0.152%)
 integral evaluation            ...        0 min,  0.017 sec ( 15.227%)
 iterations                     ...        0 min,  0.053 sec ( 47.172%)
 molecular gradient             ...        0 min,  0.038 sec ( 34.292%)
 printout                       ...        0 min,  0.002 sec (  1.685%)

         :::::::::::::::::::::::::::::::::::::::::::::::::::::
         ::                     SUMMARY                     ::
         :::::::::::::::::::::::::::::::::::::::::::::::::::::
         :: total energy             -49.364164622140 Eh    ::
         :: total w/o Gsasa/hb       -49.346510024802 Eh    ::
         :: gradient norm              0.002038047827 Eh/a0 ::
         :: HOMO-LUMO gap              3.501715107213 eV    ::
         ::.................................................::
         :: SCC energy               -50.001997742322 Eh    ::
         :: -> isotropic ES            0.140067707424 Eh    ::
         :: -> anisotropic ES         -0.008507928687 Eh    ::
         :: -> anisotropic XC          0.018206320979 Eh    ::
         :: -> dispersion             -0.029445955125 Eh    ::
         :: -> Gsolv                  -0.030737491896 Eh    ::
         ::    -> Gborn               -0.013082894558 Eh    ::
         ::    -> Gsasa               -0.022095426512 Eh    ::
         ::    -> Ghb                  0.000000000000 Eh    ::
         ::    -> Gshift               0.004440829173 Eh    ::
         :: repulsion energy           0.637632569689 Eh    ::
         :: add. restraining           0.000000000000 Eh    ::
         :::::::::::::::::::::::::::::::::::::::::::::::::::::

           -------------------------------------------------
          |                Property Printout                |
           -------------------------------------------------

    * Orbital Energies and Occupations

         #    Occupation            Energy/Eh            Energy/eV
      -------------------------------------------------------------
         1        2.0000           -0.6866043             -18.6835
       ...           ...                  ...                  ...
        32        2.0000           -0.4730199             -12.8715
        33        2.0000           -0.4584614             -12.4754
        34        2.0000           -0.4512919             -12.2803
        35        2.0000           -0.4442226             -12.0879
        36        2.0000           -0.4398043             -11.9677
        37        2.0000           -0.4360941             -11.8667
        38        2.0000           -0.4351221             -11.8403
        39        2.0000           -0.4300909             -11.7034
        40        2.0000           -0.4240429             -11.5388
        41        2.0000           -0.4092320             -11.1358
        42        2.0000           -0.4070535             -11.0765
        43        2.0000           -0.3886533             -10.5758
        44        2.0000           -0.3649787              -9.9316 (HOMO)
        45                         -0.2362931              -6.4299 (LUMO)
        46                         -0.2275894              -6.1930
        47                         -0.1308100              -3.5595
        48                         -0.0775169              -2.1093
        49                         -0.0070574              -0.1920
        50                          0.0380020               1.0341
        51                          0.0620809               1.6893
        52                          0.0852916               2.3209
        53                          0.0983408               2.6760
        54                          0.1082181               2.9448
        55                          0.1156157               3.1461
       ...                                ...                  ...
        81                          0.6605329              17.9740
      -------------------------------------------------------------
                  HL-Gap            0.1286857 Eh            3.5017 eV
             Fermi-level           -0.3006359 Eh           -8.1807 eV

     #   Z        covCN         q      C6AA      α(0)
     1   6 C      2.968    -0.029    28.725     8.791
     2   6 C      2.924    -0.044    29.082     8.844
     3   6 C      2.918    -0.031    28.764     8.795
     4   6 C      2.920    -0.030    28.761     8.794
     5   6 C      2.919    -0.031    28.781     8.798
     6   6 C      2.922    -0.034    28.852     8.809
     7   6 C      3.588     0.206    17.926     6.138
     8   1 H      0.925     0.031     2.567     2.505
     9   1 H      0.926     0.056     2.245     2.343
    10   1 H      0.926     0.038     2.473     2.459
    11   7 N      3.456    -0.170    24.668     7.377
    12   6 C      3.733    -0.008    20.809     6.511
    13   1 H      0.857     0.250     0.882     1.471
    14   6 C      3.803    -0.068    21.800     6.647
    15   1 H      0.924     0.081     1.968     2.194
    16   1 H      0.924     0.065     2.136     2.286
    17   1 H      0.924     0.047     2.356     2.400
    18   1 H      0.924     0.048     2.348     2.396
    19   8 O      0.871    -0.633    26.931     6.958
    20   8 O      1.596    -0.659    26.646     6.966
    21   1 H      0.806     0.337     0.620     1.237
    22   1 H      0.805     0.278     0.791     1.397
    23   8 O      1.606    -0.621    25.704     6.843
    24   1 H      0.801     0.330     0.637     1.254
    25   1 H      0.805     0.292     0.746     1.357
    26   1 H      0.921    -0.008     3.210     2.802
    27   1 H      0.860     0.198     1.115     1.654
    28   1 H      0.926     0.039     2.464     2.454
    29   1 H      0.926     0.037     2.485     2.465
    30   6 C      3.801    -0.057    21.595     6.616
    31   1 H      0.924     0.038     2.478     2.462
    32   1 H      0.924     0.040     2.449     2.447
    33   6 C      3.752    -0.106    22.595     6.779
    34   1 H      0.925     0.040     2.448     2.447
    35   1 H      0.925     0.040     2.453     2.449
    36   1 H      0.925     0.038     2.478     2.462

 Mol. C6AA /au·bohr⁶  :      10799.853609
 Mol. C8AA /au·bohr⁸  :     237641.523917
 Mol. α(0) /au        :        158.607009


Wiberg/Mayer (AO) data.
largest (>0.10) Wiberg bond orders for each atom
          total WBO             WBO to atom ...
     1  C   3.986        C    6 1.417    C    2 1.404    C    7 0.968    C    4 0.109
     2  C   3.992        C    3 1.452    C    1 1.404    H    8 0.967    C    5 0.111
     3  C   3.992        C    2 1.452    C    4 1.432    H   28 0.970    C    6 0.110
     4  C   3.991        C    5 1.443    C    3 1.432    H   10 0.971    C    1 0.109
     5  C   3.992        C    4 1.443    C    6 1.439    H   29 0.971    C    2 0.111
     6  C   3.990        C    5 1.439    C    1 1.417    H    9 0.961    C    3 0.110
     7  C   3.940        O   19 1.340    C    1 0.968    H   26 0.933    N   11 0.638
     8  H   0.999        C    2 0.967
     9  H   0.997        C    6 0.961
    10  H   0.998        C    4 0.971
    11  N   3.614        C   12 0.977    H   27 0.937    H   13 0.835    C    7 0.638    O   19 0.121
    12  C   3.948        C   14 1.009    N   11 0.977    H   16 0.968    H   15 0.963
    13  H   0.937        N   11 0.835
    14  C   3.993        C   12 1.009    C   30 1.005    H   17 0.974    H   18 0.973
    15  H   0.993        C   12 0.963
    16  H   0.995        C   12 0.968
    17  H   0.998        C   14 0.974
    18  H   0.998        C   14 0.973
    19  O   1.782        C    7 1.340    H   21 0.143    N   11 0.121
    20  O   1.852        H   22 0.918    H   21 0.733
    21  H   0.887        O   20 0.733    O   19 0.143
    22  H   0.923        O   20 0.918
    23  O   1.887        H   25 0.912    H   24 0.799
    24  H   0.891        O   23 0.799
    25  H   0.915        O   23 0.912
    26  H   1.000        C    7 0.933
    27  H   0.961        N   11 0.937
    28  H   0.998        C    3 0.970
    29  H   0.998        C    5 0.971
    30  C   3.996        C   33 1.020    C   14 1.005    H   31 0.978    H   32 0.978
    31  H   0.999        C   30 0.978
    32  H   0.998        C   30 0.978
    33  C   3.996        C   30 1.020    H   36 0.988    H   34 0.987    H   35 0.987
    34  H   0.998        C   33 0.987
    35  H   0.998        C   33 0.987
    36  H   0.999        C   33 0.988
Topologies differ in total number of bonds
Writing topology from bond orders to xtbtopo.mol

molecular dipole:
                 x           y           z       tot (Debye)
 q only:        0.187       1.789       1.416
   full:       -0.006       1.856       1.454       5.993
molecular quadrupole (traceless):
                xx          xy          yy          xz          yz          zz
 q only:        8.754       9.974       2.386       2.015      -1.265     -11.140
  q+dip:        7.985       7.891       4.968       0.480      -1.699     -12.952
   full:        7.618       8.188       3.618       1.236      -1.431     -11.236


           -------------------------------------------------
          | TOTAL ENERGY              -49.364164622140 Eh   |
          | GRADIENT NORM               0.002038047827 Eh/α |
          | HOMO-LUMO GAP               3.501715107213 eV   |
           -------------------------------------------------
########################################################################
[WARNING] Runtime exception occurred
-2- restart_readRestart: Dimension missmatch in restart file.
-1- restart_readRestart: Number of electron missmatch in restart file.
########################################################################

------------------------------------------------------------------------
 * finished run on 2020/06/24 at 15:19:15.641     
------------------------------------------------------------------------
 total:
 * wall-time:     0 d,  0 h,  0 min,  0.172 sec
 *  cpu-time:     0 d,  0 h,  0 min,  1.675 sec
 * ratio c/w:     9.714 speedup
 SCF:
 * wall-time:     0 d,  0 h,  0 min,  0.113 sec
 *  cpu-time:     0 d,  0 h,  0 min,  1.120 sec
 * ratio c/w:     9.924 speedup


-------------------------   --------------------
FINAL SINGLE POINT ENERGY       -49.364164622140
-------------------------   --------------------

------------------------------------------------------------------------------
                         ORCA GEOMETRY RELAXATION STEP
------------------------------------------------------------------------------

Reading the OPT-File                    .... done
Getting information on internals        .... done
Copying old internal coords+grads       .... done
Making the new internal coordinates     .... (new redundants).... done
Validating the new internal coordinates .... (new redundants).... done
Calculating the B-matrix                .... done
Calculating the G,G- and P matrices     .... done
Transforming gradient to internals      .... done
Projecting the internal gradient        .... done
Number of atoms                         ....  36
Number of internal coordinates          .... 222
Current Energy                          ....   -49.364164622 Eh
Current gradient norm                   ....     0.002038048 Eh/bohr
Maximum allowed component of the step   ....  0.300
Current trust radius                    ....  0.300
Evaluating the initial hessian          ....  (Almloef) done
Projecting the Hessian                  .... done
Forming the augmented Hessian           .... done
Diagonalizing the augmented Hessian     .... done
Last element of RFO vector              ....  0.996257357
Lowest eigenvalues of augmented Hessian:
 -0.000243214  0.003126647  0.011360734  0.011591834  0.011609157
Length of the computed step             ....  0.086761278
The final length of the internal step   ....  0.086761278
Converting the step to cartesian space:
 Initial RMS(Int)=    0.0058230357
Transforming coordinates:
 Iter   0:  RMS(Cart)=    0.0190133457 RMS(Int)=    0.0058264047
 Iter   1:  RMS(Cart)=    0.0001435763 RMS(Int)=    0.0000701429
 Iter   2:  RMS(Cart)=    0.0000023791 RMS(Int)=    0.0000008566
 Iter   3:  RMS(Cart)=    0.0000000410 RMS(Int)=    0.0000000204
done
Storing new coordinates                 .... done

                                .--------------------.
          ----------------------|Geometry convergence|-------------------------
          Item                value                   Tolerance       Converged
          ---------------------------------------------------------------------
          RMS gradient        0.0003394580            0.0001000000      NO
          MAX gradient        0.0018640915            0.0003000000      NO
          RMS step            0.0058230357            0.0020000000      NO
          MAX step            0.0400676600            0.0040000000      NO
          ........................................................
          Max(Bonds)      0.0212      Max(Angles)    0.58
          Max(Dihed)        1.02      Max(Improp)    0.00
          ---------------------------------------------------------------------

The optimization has not yet converged - more geometry cycles are needed


    ---------------------------------------------------------------------------
                         Redundant Internal Coordinates
                            (Angstroem and degrees)

        Definition                    Value    dE/dq     Step     New-Value
    ----------------------------------------------------------------------------
     1. B(C   1,C   0)                1.3914 -0.000599  0.0005    1.3919   
     2. B(C   2,C   1)                1.3825 -0.000221  0.0002    1.3827   
     3. B(C   3,C   2)                1.3856  0.000043 -0.0000    1.3856   
     4. B(C   4,C   3)                1.3843  0.000002 -0.0000    1.3843   
     5. B(C   5,C   4)                1.3849 -0.000129  0.0001    1.3850   
     6. B(C   5,C   0)                1.3885  0.000137 -0.0001    1.3884   
     7. B(C   6,C   0)                1.5149 -0.000646  0.0009    1.5157   
     8. B(H   7,C   1)                1.0818 -0.000060  0.0001    1.0819   
     9. B(H   8,C   5)                1.0785  0.000105 -0.0001    1.0783   
    10. B(H   9,C   3)                1.0801 -0.000054  0.0001    1.0802   
    11. B(N  10,C   6)                1.6994 -0.000826  0.0029    1.7023   
    12. B(C  11,N  10)                1.4684 -0.001086  0.0014    1.4697   
    13. B(H  12,N  10)                1.0474 -0.001583  0.0020    1.0494   
    14. B(C  13,C  11)                1.5236 -0.000936  0.0013    1.5249   
    15. B(H  14,C  11)                1.0948  0.000099 -0.0001    1.0947   
    16. B(H  15,C  11)                1.0932 -0.000006  0.0000    1.0932   
    17. B(H  16,C  13)                1.0934 -0.000040  0.0001    1.0935   
    18. B(H  17,C  13)                1.0915  0.000050 -0.0001    1.0914   
    19. B(O  18,C   6)                1.2783 -0.000806  0.0008    1.2792   
    20. B(H  20,O  19)                1.0303 -0.000295  0.0007    1.0310   
    21. B(H  20,O  18)                1.5135 -0.000859  0.0083    1.5218   
    22. B(H  21,O  19)                0.9589 -0.000731  0.0007    0.9596   
    23. B(O  22,H  12)                1.6856 -0.000888  0.0203    1.7059   
    24. B(H  23,O  22)                0.9954 -0.000168  0.0007    0.9961   
    25. B(H  23,O  19)                1.6373 -0.000716  0.0062    1.6434   
    26. B(H  23,H  12)                1.9936 -0.001124  0.0212    2.0148   
    27. B(H  23,H  20)                2.0464 -0.000179  0.0032    2.0496   
    28. B(H  24,O  22)                0.9602 -0.000482  0.0005    0.9606   
    29. B(H  25,C   6)                1.1113 -0.000137  0.0002    1.1116   
    30. B(H  26,N  10)                1.0201 -0.000227  0.0003    1.0204   
    31. B(H  27,C   2)                1.0802 -0.000101  0.0001    1.0803   
    32. B(H  28,C   4)                1.0803  0.000020 -0.0000    1.0803   
    33. B(C  29,C  13)                1.5272 -0.000783  0.0011    1.5283   
    34. B(H  30,C  29)                1.0917 -0.000007  0.0000    1.0917   
    35. B(H  31,C  29)                1.0920 -0.000026  0.0000    1.0920   
    36. B(C  32,C  29)                1.5241 -0.000346  0.0005    1.5246   
    37. B(H  33,C  32)                1.0880  0.000014 -0.0000    1.0880   
    38. B(H  34,C  32)                1.0872 -0.000110  0.0002    1.0874   
    39. B(H  35,C  32)                1.0880  0.000006 -0.0000    1.0880   
    40. A(C   1,C   0,C   5)          119.11  0.000309   -0.04    119.08   
    41. A(C   5,C   0,C   6)          121.92 -0.000093    0.02    121.94   
    42. A(C   1,C   0,C   6)          118.94 -0.000221    0.03    118.97   
    43. A(C   0,C   1,H   7)          119.56 -0.000113    0.02    119.58   
    44. A(C   2,C   1,H   7)          119.85  0.000236   -0.04    119.81   
    45. A(C   0,C   1,C   2)          120.58 -0.000125    0.02    120.60   
    46. A(C   1,C   2,C   3)          119.98  0.000034   -0.00    119.98   
    47. A(C   3,C   2,H  27)          120.15  0.000091   -0.01    120.13   
    48. A(C   1,C   2,H  27)          119.87 -0.000126    0.02    119.89   
    49. A(C   2,C   3,H   9)          120.09 -0.000028    0.00    120.09   
    50. A(C   2,C   3,C   4)          119.77  0.000068   -0.01    119.76   
    51. A(C   4,C   3,H   9)          120.13 -0.000040    0.01    120.14   
    52. A(C   3,C   4,C   5)          120.26 -0.000147    0.02    120.28   
    53. A(C   5,C   4,H  28)          119.59  0.000047   -0.00    119.58   
    54. A(C   3,C   4,H  28)          120.15  0.000099   -0.01    120.14   
    55. A(C   0,C   5,H   8)          119.67  0.000185   -0.03    119.65   
    56. A(C   4,C   5,H   8)          120.04 -0.000045    0.01    120.05   
    57. A(C   0,C   5,C   4)          120.28 -0.000141    0.02    120.30   
    58. A(C   0,C   6,N  10)          101.42  0.000389   -0.13    101.29   
    59. A(O  18,C   6,H  25)          114.28  0.000044   -0.08    114.20   
    60. A(C   0,C   6,H  25)          108.77  0.000348   -0.11    108.66   
    61. A(C   0,C   6,O  18)          121.08 -0.000702    0.22    121.30   
    62. A(N  10,C   6,O  18)          108.66  0.000332    0.04    108.70   
    63. A(N  10,C   6,H  25)           99.62 -0.000291    0.02     99.65   
    64. A(C   6,N  10,H  26)          109.17  0.000250    0.01    109.17   
    65. A(C   6,N  10,H  12)          105.72  0.000082   -0.09    105.63   
    66. A(H  12,N  10,H  26)          109.02 -0.000408    0.05    109.06   
    67. A(C  11,N  10,H  26)          111.54  0.000089   -0.00    111.54   
    68. A(C  11,N  10,H  12)          109.25  0.000546   -0.06    109.19   
    69. A(C   6,N  10,C  11)          111.94 -0.000563    0.10    112.04   
    70. A(H  14,C  11,H  15)          108.51 -0.000318   -0.04    108.47   
    71. A(C  13,C  11,H  15)          110.17  0.000682   -0.11    110.06   
    72. A(N  10,C  11,H  15)          109.27  0.000458   -0.04    109.22   
    73. A(C  13,C  11,H  14)          110.76  0.000385   -0.05    110.71   
    74. A(N  10,C  11,H  14)          106.26  0.000686   -0.10    106.17   
    75. A(N  10,C  11,C  13)          111.74 -0.001864    0.34    112.08   
    76. A(O  22,H  12,H  23)           29.92  0.000124   -0.33     29.59   
    77. A(N  10,H  12,H  23)          149.29  0.000278   -0.17    149.12   
    78. A(H  16,C  13,H  17)          108.16  0.000001    0.00    108.16   
    79. A(C  11,C  13,H  17)          109.55 -0.000085    0.02    109.57   
    80. A(C  11,C  13,H  16)          109.24 -0.000104    0.04    109.28   
    81. A(H  17,C  13,C  29)          109.15  0.000092   -0.04    109.11   
    82. A(H  16,C  13,C  29)          109.16  0.000077   -0.02    109.14   
    83. A(C  11,C  13,C  29)          111.51  0.000019   -0.00    111.51   
    84. A(C   6,O  18,H  20)          117.81 -0.000870    0.58    118.39   
    85. A(H  20,O  19,H  23)           97.59  0.000402   -0.18     97.41   
    86. A(H  20,O  19,H  21)          105.08 -0.000139    0.03    105.11   
    87. A(H  21,O  19,H  23)          112.10 -0.000465    0.15    112.25   
    88. A(O  18,H  20,H  23)          123.68  0.000256   -0.07    123.61   
    89. A(O  19,H  20,H  23)           52.47 -0.000311    0.20     52.67   
    90. A(H  23,O  22,H  24)          105.62 -0.000012   -0.04    105.58   
    91. A(H  12,O  22,H  24)          114.03 -0.000252    0.05    114.08   
    92. A(H  12,O  22,H  23)           92.43 -0.000166    0.22     92.65   
    93. A(H  12,H  23,O  22)           57.64  0.000042    0.11     57.76   
    94. A(O  19,H  23,H  20)           29.94 -0.000092   -0.02     29.92   
    95. A(H  12,H  23,H  20)           80.71 -0.000262   -0.08     80.64   
    96. A(H  20,H  23,O  22)          138.12 -0.000207    0.02    138.14   
    97. A(H  12,H  23,O  19)          110.58 -0.000345   -0.10    110.48   
    98. A(O  19,H  23,O  22)          168.00 -0.000302    0.01    168.01   
    99. A(H  31,C  29,C  32)          109.51  0.000259   -0.04    109.47   
   100. A(H  30,C  29,C  32)          109.59  0.000261   -0.06    109.54   
   101. A(C  13,C  29,C  32)          111.46 -0.000651    0.12    111.59   
   102. A(H  30,C  29,H  31)          107.77 -0.000088   -0.03    107.74   
   103. A(C  13,C  29,H  31)          109.25  0.000088    0.01    109.27   
   104. A(C  13,C  29,H  30)          109.18  0.000149   -0.02    109.16   
   105. A(H  34,C  32,H  35)          108.37  0.000095   -0.03    108.34   
   106. A(H  33,C  32,H  35)          108.39  0.000058    0.00    108.39   
   107. A(C  29,C  32,H  35)          110.55 -0.000088    0.02    110.56   
   108. A(H  33,C  32,H  34)          108.40  0.000101   -0.02    108.38   
   109. A(C  29,C  32,H  34)          110.49 -0.000027   -0.00    110.49   
   110. A(C  29,C  32,H  33)          110.57 -0.000131    0.03    110.60   
   111. D(C   2,C   1,C   0,C   5)     -0.31 -0.000285    0.54      0.24   
   112. D(H   7,C   1,C   0,C   6)     -1.06 -0.000299    0.69     -0.37   
   113. D(C   2,C   1,C   0,C   6)    177.94 -0.000461    1.02    178.96   
   114. D(H   7,C   1,C   0,C   5)   -179.30 -0.000123    0.22   -179.09   
   115. D(H  27,C   2,C   1,C   0)   -179.49  0.000186   -0.37   -179.85   
   116. D(C   3,C   2,C   1,C   0)      0.01  0.000078   -0.15     -0.14   
   117. D(C   3,C   2,C   1,H   7)    179.00 -0.000088    0.18    179.18   
   118. D(H  27,C   2,C   1,H   7)     -0.49  0.000020   -0.04     -0.53   
   119. D(H   9,C   3,C   2,H  27)      0.18  0.000030   -0.06      0.12   
   120. D(H   9,C   3,C   2,C   1)   -179.31  0.000139   -0.28   -179.59   
   121. D(C   4,C   3,C   2,H  27)    179.76  0.000035   -0.06    179.70   
   122. D(C   4,C   3,C   2,C   1)      0.27  0.000145   -0.28     -0.02   
   123. D(C   5,C   4,C   3,H   9)    179.34 -0.000153    0.31    179.65   
   124. D(H  28,C   4,C   3,C   2)   -179.86 -0.000049    0.09   -179.77   
   125. D(H  28,C   4,C   3,H   9)     -0.27 -0.000043    0.08     -0.19   
   126. D(C   5,C   4,C   3,C   2)     -0.24 -0.000159    0.31      0.07   
   127. D(H   8,C   5,C   4,H  28)      0.43 -0.000029    0.05      0.48   
   128. D(C   4,C   5,C   0,C   1)      0.33  0.000270   -0.51     -0.18   
   129. D(H   8,C   5,C   4,C   3)   -179.19  0.000080   -0.18   -179.36   
   130. D(C   0,C   5,C   4,C   3)     -0.06 -0.000049    0.09      0.03   
   131. D(H   8,C   5,C   0,C   1)    179.46  0.000139   -0.25    179.21   
   132. D(H   8,C   5,C   0,C   6)      1.27  0.000323   -0.74      0.53   
   133. D(C   0,C   5,C   4,H  28)    179.56 -0.000158    0.31    179.87   
   134. D(C   4,C   5,C   0,C   6)   -177.86  0.000454   -1.00   -178.86   
   135. D(H  25,C   6,C   0,C   5)    153.60 -0.000105   -0.01    153.59   
   136. D(O  18,C   6,C   0,C   5)     18.20  0.000175    0.01     18.20   
   137. D(O  18,C   6,C   0,C   1)   -159.99  0.000349   -0.48   -160.48   
   138. D(N  10,C   6,C   0,C   5)   -101.99 -0.000164   -0.07   -102.07   
   139. D(N  10,C   6,C   0,C   1)     79.81  0.000010   -0.56     79.25   
   140. D(H  25,C   6,C   0,C   1)    -24.59  0.000069   -0.50    -25.09   
   141. D(C  11,N  10,C   6,C   0)   -174.93 -0.000324    0.08   -174.85   
   142. D(H  26,N  10,C   6,O  18)   -179.56  0.000004   -0.05   -179.61   
   143. D(H  12,N  10,C   6,H  25)    177.75 -0.000342    0.02    177.77   
   144. D(H  26,N  10,C   6,C   0)    -50.94 -0.000419    0.15    -50.78   
   145. D(H  12,N  10,C   6,C   0)     66.21 -0.000727    0.16     66.37   
   146. D(C  11,N  10,C   6,H  25)    -63.39  0.000062   -0.06    -63.45   
   147. D(H  12,N  10,C   6,O  18)    -62.41 -0.000304   -0.05    -62.46   
   148. D(H  26,N  10,C   6,H  25)     60.61 -0.000033    0.01     60.62   
   149. D(C  11,N  10,C   6,O  18)     56.45  0.000099   -0.12     56.33   
   150. D(H  15,C  11,N  10,H  26)     84.79 -0.000193    0.30     85.09   
   151. D(H  14,C  11,N  10,H  12)     81.09  0.000125    0.16     81.25   
   152. D(H  14,C  11,N  10,C   6)    -35.66  0.000016    0.25    -35.41   
   153. D(C  13,C  11,N  10,H  26)    -37.39 -0.000134    0.24    -37.15   
   154. D(C  13,C  11,N  10,H  12)   -157.99 -0.000045    0.23   -157.76   
   155. D(H  14,C  11,N  10,H  26)   -158.32  0.000035    0.17   -158.14   
   156. D(C  13,C  11,N  10,C   6)     85.26 -0.000153    0.32     85.58   
   157. D(H  15,C  11,N  10,H  12)    -35.81 -0.000104    0.28    -35.53   
   158. D(H  15,C  11,N  10,C   6)   -152.56 -0.000212    0.37   -152.18   
   159. D(H  23,H  12,N  10,C  11)    -81.94 -0.000099    0.05    -81.89   
   160. D(H  23,H  12,N  10,C   6)     38.69 -0.000429    0.08     38.78   
   161. D(H  23,H  12,N  10,H  26)    155.94 -0.000295    0.06    156.00   
   162. D(C  29,C  13,C  11,H  15)     56.41  0.000110    0.15     56.56   
   163. D(C  29,C  13,C  11,N  10)    178.08 -0.000096    0.24    178.32   
   164. D(H  17,C  13,C  11,H  15)    177.35  0.000182    0.11    177.46   
   165. D(H  17,C  13,C  11,H  14)     57.29 -0.000113    0.27     57.56   
   166. D(H  17,C  13,C  11,N  10)    -60.98 -0.000024    0.21    -60.78   
   167. D(H  16,C  13,C  11,H  15)    -64.34  0.000071    0.15    -64.19   
   168. D(C  29,C  13,C  11,H  14)    -63.65 -0.000184    0.30    -63.35   
   169. D(H  16,C  13,C  11,H  14)    175.60 -0.000223    0.31    175.91   
   170. D(H  16,C  13,C  11,N  10)     57.33 -0.000135    0.25     57.57   
   171. D(H  20,O  18,C   6,H  25)    173.25  0.000072   -0.29    172.96   
   172. D(H  20,O  18,C   6,N  10)     63.00  0.000202   -0.30     62.71   
   173. D(H  20,O  18,C   6,C   0)    -53.58 -0.000126   -0.30    -53.89   
   174. D(H  23,O  19,O  18,C   6)    -30.67 -0.000325    0.61    -30.06   
   175. D(H  21,O  19,O  18,C   6)   -145.14  0.000082    0.43   -144.72   
   176. D(H  23,H  20,O  19,H  21)   -115.41  0.000391   -0.10   -115.51   
   177. D(H  23,H  20,O  18,C   6)    -33.44 -0.000352    1.01    -32.42   
   178. D(H  24,O  22,H  12,H  23)   -108.30  0.000142   -0.07   -108.37   
   179. D(H  24,O  22,N  10,H  26)     42.38 -0.000132    0.38     42.76   
   180. D(H  24,O  22,N  10,C  11)    164.02 -0.000025    0.55    164.57   
   181. D(H  24,O  22,N  10,C   6)    -76.02 -0.000240    0.47    -75.54   
   182. D(H  23,O  22,N  10,H  26)    150.82 -0.000218    0.35    151.17   
   183. D(H  23,O  22,N  10,C  11)    -87.54 -0.000111    0.52    -87.02   
   184. D(H  23,O  22,N  10,C   6)     32.42 -0.000326    0.44     32.86   
   185. D(H  20,H  23,O  22,H  12)     -6.88  0.000208   -0.20     -7.07   
   186. D(H  20,H  23,O  22,H  24)    108.91 -0.000115   -0.08    108.83   
   187. D(O  19,H  23,O  22,H  12)    -11.83  0.000185   -0.03    -11.86   
   188. D(H  12,H  23,O  22,H  24)    115.79 -0.000323    0.11    115.90   
   189. D(O  19,H  23,H  20,O  18)   -176.52  0.000075   -0.60   -177.11   
   190. D(H  12,H  23,H  20,O  18)     -0.34  0.000311   -0.84     -1.18   
   191. D(O  22,H  23,H  20,O  18)      5.54  0.000141   -0.67      4.88   
   192. D(O  22,H  23,H  20,O  19)   -177.94  0.000066   -0.07   -178.01   
   193. D(H  20,H  23,O  19,H  21)    109.72 -0.000096   -0.01    109.71   
   194. D(H  12,H  23,O  19,H  21)    105.69  0.000166   -0.27    105.42   
   195. D(H  12,H  23,O  19,H  20)     -4.03  0.000261   -0.26     -4.29   
   196. D(H  12,H  23,H  20,O  19)    176.18  0.000236   -0.25    175.93   
   197. D(O  22,H  23,O  19,H  21)    116.35 -0.000020   -0.24    116.11   
   198. D(O  22,H  23,O  19,H  20)      6.63  0.000076   -0.23      6.40   
   199. D(H  20,H  23,H  12,O  22)    175.35  0.000118   -0.13    175.22   
   200. D(O  19,H  23,O  22,H  24)    103.96 -0.000138    0.09    104.05   
   201. D(H  20,H  23,H  12,N  10)    -11.31  0.000200    0.30    -11.01   
   202. D(O  19,H  23,H  12,O  22)    177.39 -0.000018   -0.00    177.39   
   203. D(O  19,H  23,H  12,N  10)     -9.27  0.000064    0.43     -8.84   
   204. D(O  22,H  23,H  12,N  10)    173.34  0.000083    0.43    173.77   
   205. D(C  32,C  29,C  13,H  16)    -58.71 -0.000029   -0.06    -58.76   
   206. D(C  32,C  29,C  13,C  11)   -179.50  0.000039   -0.08   -179.59   
   207. D(H  31,C  29,C  13,H  17)   -179.52  0.000034   -0.05   -179.57   
   208. D(H  31,C  29,C  13,H  16)     62.45 -0.000065   -0.02     62.43   
   209. D(H  31,C  29,C  13,C  11)    -58.35  0.000002   -0.05    -58.40   
   210. D(H  30,C  29,C  13,H  17)    -61.89  0.000064   -0.09    -61.98   
   211. D(H  30,C  29,C  13,H  16)   -179.92 -0.000035   -0.05   -179.97   
   212. D(C  32,C  29,C  13,H  17)     59.32  0.000071   -0.09     59.24   
   213. D(H  30,C  29,C  13,C  11)     59.28  0.000032   -0.08     59.20   
   214. D(H  35,C  32,C  29,H  31)    178.85  0.000144   -0.04    178.81   
   215. D(H  35,C  32,C  29,C  13)    -60.14  0.000005    0.03    -60.11   
   216. D(H  34,C  32,C  29,H  31)     58.90  0.000099   -0.01     58.88   
   217. D(H  34,C  32,C  29,H  30)    -59.12 -0.000102    0.08    -59.04   
   218. D(H  34,C  32,C  29,C  13)    179.90 -0.000040    0.06    179.96   
   219. D(H  33,C  32,C  29,H  31)    -61.11  0.000074   -0.00    -61.11   
   220. D(H  35,C  32,C  29,H  30)     60.83 -0.000057    0.06     60.89   
   221. D(H  33,C  32,C  29,H  30)   -179.13 -0.000126    0.09   -179.04   
   222. D(H  33,C  32,C  29,C  13)     59.89 -0.000065    0.07     59.96   
    ----------------------------------------------------------------------------

         *************************************************************
         *                GEOMETRY OPTIMIZATION CYCLE   2            *
         *************************************************************
      -----------------------------------------------------------      
     |                   =====================                   |     
     |                           x T B                           |     
     |                   =====================                   |     
     |                         S. Grimme                         |     
     |          Mulliken Center for Theoretical Chemistry        |     
     |                    University of Bonn                     |     
      -----------------------------------------------------------      

   * xtb version 6.3.0 (49875a8) compiled by 'schneider@apollo14' on 2020-05-23

   xtb is free software: you can redistribute it and/or modify it under
   the terms of the GNU Lesser General Public License as published by
   the Free Software Foundation, either version 3 of the License, or
   (at your option) any later version.
   
   xtb is distributed in the hope that it will be useful,
   but WITHOUT ANY WARRANTY; without even the implied warranty of
   MERCHANTABILITY or FITNESS FOR A PARTICULAR PURPOSE.  See the
   GNU Lesser General Public License for more details.
   
   Cite this work as:
   * S. Grimme, C. Bannwarth, P. Shushkov, J. Chem. Theory Comput., 2017,
     13, 1989-2009. DOI: 10.1021/acs.jctc.7b00118
   * C. Bannwarth, S. Ehlert and S. Grimme., J. Chem. Theory Comput., 2019,
     15, 1652-1671. DOI: 10.1021/acs.jctc.8b01176
   * P. Pracht, E. Caldeweyher, S. Ehlert, S. Grimme, ChemRxiv, 2019, preprint.
     DOI: 10.26434/chemrxiv.8326202.v1
   
   for GFN-FF:
   * S. Spicher and S. Grimme, Angew. Chem. Int. Ed., 2020,
     DOI: 10.1002/anie.202004239
   
   for DFT-D4:
   * E. Caldeweyher, C. Bannwarth and S. Grimme, J. Chem. Phys., 2017,
     147, 034112. DOI: 10.1063/1.4993215
   * E. Caldeweyher, S. Ehlert, A. Hansen, H. Neugebauer, S. Spicher,
     C. Bannwarth and S. Grimme, J. Chem. Phys., 2019, 150, 154122.
     DOI: 10.1063/1.5090222
   
   for sTDA-xTB:
   * S. Grimme and C. Bannwarth, J. Chem. Phys., 2016, 145, 054103.
     DOI: 10.1063/1.4959605
   
   in the mass-spec context:
   * V. Asgeirsson, C. Bauer and S. Grimme, Chem. Sci., 2017, 8, 4879.
     DOI: 10.1039/c7sc00601b
   * J. Koopman and S. Grimme, ACS Omega 2019, 4, 12, 15120-15133.
     DOI: 10.1021/acsomega.9b02011
   
   for metadynamics refer to:
   * S. Grimme, J. Chem. Theory Comput., 2019, 155, 2847-2862
     DOI: 10.1021/acs.jctc.9b00143
   
   with help from (in alphabetical order)
   C. Bannwarth, F. Bohle, G. Brandenburg, E. Caldeweyher, M. Checinski,
   S. Dohm, S. Ehlert, S. Ehrlich, F. März, H. Neugebauer, J. Pisarek,
   P. Pracht, P. Shushkov, and S. Spicher.
   
 * started run on 2020/06/24 at 15:19:16.305     

           -------------------------------------------------
          |                Calculation Setup                |
           -------------------------------------------------

          program call               : /opt/orca/otool_xtb opt+freq_XTB.xyz --grad -c 0 -u 0 -P 12 --namespace opt+freq --gbsa CH2Cl2
          calculation namespace      : opt+freq
          coordinate file            : opt+freq_XTB.xyz
          number of atoms            :                    36
          number of electrons        :                    88
          charge                     :                     0
          spin                       :                   0.0
          first test random number   :      0.57742487866157

   ID    Z sym.   atoms
    1    6 C      1-7, 12, 14, 30, 33
    2    1 H      8-10, 13, 15-18, 21, 22, 24-29, 31, 32, 34-36
    3    7 N      11
    4    8 O      19, 20, 23

molecular fragmentation (1/2 indicates fragments):
111111111111111111122222211111111111
# atoms in fragment 1/2:    30     6
 fragment masses (1/2) :      179.26       36.03
CMA distance (Bohr)    :   6.464
constraining FC (au)   :  0.0500
########################################################################
[WARNING] Please study the warnings concerning your input carefully
-1- prog_main_parseArguments: Process number higher than OMP_NUM_THREADS, I hope you know what you are doing.
########################################################################
 Solvent             : CH2Cl2
 Using internal parameter file: .param_gbsa2_CH2Cl2
 Gsolv ref. state (COSMO-RS): gsolv [1 M gas/solution]
 temperature (mdtemp)       :    298.14999999999998     
 dielectric constant        :    8.9299999999999997     
 rho                        :    1.3300000000000003     
 mass                       :    84.930000000000007     
 surface tension            :    15.568945408385856     
 probe radius               :   0.71987590000000001     
 Gshift (Eh)                :    4.4408291734517593E-003
 c1                         :    1.4917377599999999     
 soset                      :    0.0000000000000000     
 HB correction              :  F

           -------------------------------------------------
          |                 G F N 2 - x T B                 |
           -------------------------------------------------

        Reference                      10.1021/acs.jctc.8b01176
      * Hamiltonian:
        H0-scaling (s, p, d)           1.850000    2.230000    2.230000
        zeta-weighting                 0.500000
      * Dispersion:
        s8                             2.700000
        a1                             0.520000
        a2                             5.000000
        s9                             5.000000
      * Repulsion:
        kExp                           1.500000    1.000000
        rExp                           1.000000
      * Coulomb:
        alpha                          2.000000
        third order                    shell-resolved
        anisotropic                    true
        a3                             3.000000
        a5                             4.000000
        cn-shift                       1.200000
        cn-exp                         4.000000
        max-rad                        5.000000


          ...................................................
          :                      SETUP                      :
          :.................................................:
          :  # basis functions                  81          :
          :  # atomic orbitals                  81          :
          :  # shells                           51          :
          :  # electrons                        88          :
          :  max. iterations                   250          :
          :  Hamiltonian                  GFN2-xTB          :
          :  restarted?                      false          :
          :  GBSA solvation                   true          :
          :  PC potential                    false          :
          :  electronic temp.          300.0000000     K    :
          :  accuracy                    1.0000000          :
          :  -> integral cutoff          0.2500000E+02      :
          :  -> integral neglect         0.1000000E-07      :
          :  -> SCF convergence          0.1000000E-05 Eh   :
          :  -> wf. convergence          0.1000000E-03 e    :
          :  Broyden damping             0.4000000          :
          ...................................................

 iter      E             dE          RMSdq      gap      omega  full diag
   1    -49.8801151 -0.498801E+02  0.400E+00    4.45       0.0  T
   2    -49.9783675 -0.982524E-01  0.230E+00    3.71       1.0  T
   3    -49.9796795 -0.131203E-02  0.960E-01    3.40       1.0  T
   4    -49.9804400 -0.760535E-03  0.295E-01    3.40       1.0  T
   5    -49.9829499 -0.250987E-02  0.806E-02    3.47       1.0  T
   6    -49.9829863 -0.364335E-04  0.384E-02    3.49       1.0  T
   7    -49.9829934 -0.702853E-05  0.153E-02    3.50       1.1  T
   8    -49.9829949 -0.152610E-05  0.525E-03    3.49       3.2  T
   9    -49.9829952 -0.280314E-06  0.270E-03    3.49       6.2  T
  10    -49.9829952 -0.430799E-07  0.971E-04    3.49      17.2  T
  11    -49.9829952 -0.319976E-08  0.449E-04    3.49      37.2  T

   *** convergence criteria satisfied after 11 iterations ***

         #    Occupation            Energy/Eh            Energy/eV
      -------------------------------------------------------------
         1        2.0000           -0.6857163             -18.6593
       ...           ...                  ...                  ...
        38        2.0000           -0.4351293             -11.8405
        39        2.0000           -0.4300748             -11.7029
        40        2.0000           -0.4242385             -11.5441
        41        2.0000           -0.4093063             -11.1378
        42        2.0000           -0.4072351             -11.0814
        43        2.0000           -0.3887564             -10.5786
        44        2.0000           -0.3648627              -9.9284 (HOMO)
        45                         -0.2365254              -6.4362 (LUMO)
        46                         -0.2277152              -6.1964
        47                         -0.1319106              -3.5895
        48                         -0.0780713              -2.1244
        49                         -0.0091537              -0.2491
       ...                                ...                  ...
        81                          0.6600133              17.9599
      -------------------------------------------------------------
                  HL-Gap            0.1283373 Eh            3.4922 eV
             Fermi-level           -0.3006941 Eh           -8.1823 eV

 SCC (total)                   0 d,  0 h,  0 min,  0.173 sec
 SCC setup                      ...        0 min,  0.002 sec (  1.113%)
 Dispersion                     ...        0 min,  0.001 sec (  0.301%)
 classical contributions        ...        0 min,  0.000 sec (  0.106%)
 integral evaluation            ...        0 min,  0.019 sec ( 11.018%)
 iterations                     ...        0 min,  0.084 sec ( 48.358%)
 molecular gradient             ...        0 min,  0.056 sec ( 32.447%)
 printout                       ...        0 min,  0.012 sec (  6.643%)

         :::::::::::::::::::::::::::::::::::::::::::::::::::::
         ::                     SUMMARY                     ::
         :::::::::::::::::::::::::::::::::::::::::::::::::::::
         :: total energy             -49.364323760982 Eh    ::
         :: total w/o Gsasa/hb       -49.346624258684 Eh    ::
         :: gradient norm              0.004539004523 Eh/a0 ::
         :: HOMO-LUMO gap              3.492236328978 eV    ::
         ::.................................................::
         :: SCC energy               -50.000694719936 Eh    ::
         :: -> isotropic ES            0.140324166558 Eh    ::
         :: -> anisotropic ES         -0.008384973620 Eh    ::
         :: -> anisotropic XC          0.018265779011 Eh    ::
         :: -> dispersion             -0.029374906888 Eh    ::
         :: -> Gsolv                  -0.030896910583 Eh    ::
         ::    -> Gborn               -0.013197408284 Eh    ::
         ::    -> Gsasa               -0.022140331472 Eh    ::
         ::    -> Ghb                  0.000000000000 Eh    ::
         ::    -> Gshift               0.004440829173 Eh    ::
         :: repulsion energy           0.636168570267 Eh    ::
         :: add. restraining           0.000000000000 Eh    ::
         :::::::::::::::::::::::::::::::::::::::::::::::::::::

           -------------------------------------------------
          |                Property Printout                |
           -------------------------------------------------

    * Orbital Energies and Occupations

         #    Occupation            Energy/Eh            Energy/eV
      -------------------------------------------------------------
         1        2.0000           -0.6857163             -18.6593
       ...           ...                  ...                  ...
        32        2.0000           -0.4730795             -12.8731
        33        2.0000           -0.4581218             -12.4661
        34        2.0000           -0.4513520             -12.2819
        35        2.0000           -0.4441528             -12.0860
        36        2.0000           -0.4400800             -11.9752
        37        2.0000           -0.4361359             -11.8679
        38        2.0000           -0.4351293             -11.8405
        39        2.0000           -0.4300748             -11.7029
        40        2.0000           -0.4242385             -11.5441
        41        2.0000           -0.4093063             -11.1378
        42        2.0000           -0.4072351             -11.0814
        43        2.0000           -0.3887564             -10.5786
        44        2.0000           -0.3648627              -9.9284 (HOMO)
        45                         -0.2365254              -6.4362 (LUMO)
        46                         -0.2277152              -6.1964
        47                         -0.1319106              -3.5895
        48                         -0.0780713              -2.1244
        49                         -0.0091537              -0.2491
        50                          0.0364693               0.9924
        51                          0.0612463               1.6666
        52                          0.0838632               2.2820
        53                          0.0979948               2.6666
        54                          0.1080934               2.9414
        55                          0.1149882               3.1290
       ...                                ...                  ...
        81                          0.6600133              17.9599
      -------------------------------------------------------------
                  HL-Gap            0.1283373 Eh            3.4922 eV
             Fermi-level           -0.3006941 Eh           -8.1823 eV

     #   Z        covCN         q      C6AA      α(0)
     1   6 C      2.968    -0.029    28.719     8.790
     2   6 C      2.924    -0.044    29.081     8.844
     3   6 C      2.918    -0.031    28.763     8.795
     4   6 C      2.920    -0.030    28.760     8.794
     5   6 C      2.919    -0.031    28.782     8.798
     6   6 C      2.922    -0.034    28.839     8.807
     7   6 C      3.585     0.206    17.947     6.144
     8   1 H      0.925     0.032     2.565     2.504
     9   1 H      0.926     0.055     2.256     2.349
    10   1 H      0.926     0.038     2.471     2.458
    11   7 N      3.453    -0.169    24.640     7.373
    12   6 C      3.732    -0.008    20.812     6.511
    13   1 H      0.857     0.249     0.888     1.477
    14   6 C      3.803    -0.068    21.801     6.647
    15   1 H      0.924     0.081     1.967     2.193
    16   1 H      0.924     0.066     2.135     2.285
[...]
     74      -0.000070  -0.000880  -0.001193   0.000693  -0.357472  -0.034008
     75      -0.000346   0.001079  -0.000318  -0.000754   0.000390   0.000017
     76      -0.000152   0.002899  -0.000686   0.000036   0.000279   0.000058
     77       0.000327  -0.001898   0.000541  -0.000853  -0.000061   0.000090
     78      -0.000627  -0.001351   0.001106   0.497904   0.000664   0.000461
     79       0.000298   0.002062  -0.000693  -0.797137  -0.001935  -0.000955
     80      -0.000400   0.000889  -0.000671  -0.333307  -0.000234  -0.000415
     81       0.405227  -0.307221   0.018001  -0.001469   0.000043  -0.000173
     82      -0.554269   0.422389  -0.025021   0.001407  -0.000003   0.000240
     83      -0.073598   0.055574  -0.003198   0.000329  -0.000036   0.000019
     84      -0.242174  -0.155877   0.065436  -0.000856  -0.000043   0.000108
     85      -0.617672  -0.400774   0.169887  -0.001708  -0.000016   0.000386
     86       0.128942   0.083218  -0.035018   0.000455  -0.000081  -0.000087
     87       0.000034  -0.000015   0.000034  -0.000019  -0.000005  -0.000014
     88      -0.000027   0.000027  -0.000034   0.000109   0.000015   0.000014
     89      -0.000003  -0.000002  -0.000011  -0.000027  -0.000007  -0.000001
     90      -0.000179   0.000056  -0.000228   0.000559   0.000068   0.000098
     91       0.000296  -0.000199   0.000392  -0.000167  -0.000120  -0.000081
     92       0.000297  -0.000180   0.000454  -0.000640  -0.000120  -0.000105
     93      -0.000173   0.000083  -0.000164   0.000589   0.000099   0.000091
     94       0.000068  -0.000064   0.000039  -0.000076  -0.000042  -0.000014
     95      -0.000281   0.000221  -0.000336   0.000762   0.000180   0.000091
     96       0.000025  -0.000016   0.000005  -0.000030  -0.000001  -0.000003
     97      -0.000008   0.000019   0.000026  -0.000006   0.000012   0.000002
     98      -0.000001   0.000007  -0.000023   0.000014  -0.000004   0.000000
     99      -0.000060   0.000048   0.000140   0.000066   0.000015   0.000006
    100       0.000081  -0.000171  -0.000194  -0.000097  -0.000077  -0.000033
    101       0.000076  -0.000153  -0.000228  -0.000069  -0.000029  -0.000007
    102      -0.000177   0.000148  -0.000470   0.000827  -0.000057   0.000035
    103      -0.000035   0.000003  -0.000060   0.000309  -0.000058   0.000008
    104       0.000026  -0.000010   0.000054  -0.000141   0.000023  -0.000006
    105      -0.000061  -0.000002   0.000264  -0.000080   0.000021   0.000007
    106       0.000023  -0.000036  -0.000082   0.000013  -0.000052  -0.000016
    107      -0.000069   0.000076   0.000438  -0.000105   0.000066   0.000017


-----------
IR SPECTRUM  
-----------

 Mode    freq (cm**-1)   T**2         TX         TY         TZ
-------------------------------------------------------------------
   6:        17.16    0.000000  (  0.000000   0.000000   0.000000)
   7:        29.93    0.000000  (  0.000000   0.000000   0.000000)
   8:        41.69    0.000000  (  0.000000   0.000000   0.000000)
   9:        45.12    0.000000  (  0.000000   0.000000   0.000000)
  10:        50.59    0.000000  (  0.000000   0.000000   0.000000)
  11:        68.13    0.000000  (  0.000000   0.000000   0.000000)
  12:        91.53    0.000000  (  0.000000   0.000000   0.000000)
  13:        99.44    0.000000  (  0.000000   0.000000   0.000000)
  14:       120.98    0.000000  (  0.000000   0.000000   0.000000)
  15:       151.20    0.000000  (  0.000000   0.000000   0.000000)
  16:       177.46    0.000000  (  0.000000   0.000000   0.000000)
  17:       197.84    0.000000  (  0.000000   0.000000   0.000000)
  18:       212.86    0.000000  (  0.000000   0.000000   0.000000)
  19:       230.38    0.000000  (  0.000000   0.000000   0.000000)
  20:       237.07    0.000000  (  0.000000   0.000000   0.000000)
  21:       245.77    0.000000  (  0.000000   0.000000   0.000000)
  22:       282.00    0.000000  (  0.000000   0.000000   0.000000)
  23:       297.60    0.000000  (  0.000000   0.000000   0.000000)
  24:       337.24    0.000000  (  0.000000   0.000000   0.000000)
  25:       348.35    0.000000  (  0.000000   0.000000   0.000000)
  26:       366.62    0.000000  (  0.000000   0.000000   0.000000)
  27:       401.02    0.000000  (  0.000000   0.000000   0.000000)
  28:       414.79    0.000000  (  0.000000   0.000000   0.000000)
  29:       438.31    0.000000  (  0.000000   0.000000   0.000000)
  30:       485.97    0.000000  (  0.000000   0.000000   0.000000)
  31:       501.05    0.000000  (  0.000000   0.000000   0.000000)
  32:       549.57    0.000000  (  0.000000   0.000000   0.000000)
  33:       571.93    0.000000  (  0.000000   0.000000   0.000000)
  34:       588.61    0.000000  (  0.000000   0.000000   0.000000)
  35:       634.88    0.000000  (  0.000000   0.000000   0.000000)
  36:       669.76    0.000000  (  0.000000   0.000000   0.000000)
  37:       747.76    0.000000  (  0.000000   0.000000   0.000000)
  38:       772.98    0.000000  (  0.000000   0.000000   0.000000)
  39:       778.69    0.000000  (  0.000000   0.000000   0.000000)
  40:       802.04    0.000000  (  0.000000   0.000000   0.000000)
  41:       832.83    0.000000  (  0.000000   0.000000   0.000000)
  42:       839.40    0.000000  (  0.000000   0.000000   0.000000)
  43:       881.84    0.000000  (  0.000000   0.000000   0.000000)
  44:       905.28    0.000000  (  0.000000   0.000000   0.000000)
  45:       928.37    0.000000  (  0.000000   0.000000   0.000000)
  46:       933.37    0.000000  (  0.000000   0.000000   0.000000)
  47:       941.54    0.000000  (  0.000000   0.000000   0.000000)
  48:       949.20    0.000000  (  0.000000   0.000000   0.000000)
  49:       953.29    0.000000  (  0.000000   0.000000   0.000000)
  50:       984.50    0.000000  (  0.000000   0.000000   0.000000)
  51:      1013.06    0.000000  (  0.000000   0.000000   0.000000)
  52:      1055.90    0.000000  (  0.000000   0.000000   0.000000)
  53:      1081.92    0.000000  (  0.000000   0.000000   0.000000)
  54:      1099.44    0.000000  (  0.000000   0.000000   0.000000)
  55:      1100.65    0.000000  (  0.000000   0.000000   0.000000)
  56:      1119.81    0.000000  (  0.000000   0.000000   0.000000)
  57:      1121.22    0.000000  (  0.000000   0.000000   0.000000)
  58:      1158.29    0.000000  (  0.000000   0.000000   0.000000)
  59:      1178.71    0.000000  (  0.000000   0.000000   0.000000)
  60:      1180.76    0.000000  (  0.000000   0.000000   0.000000)
  61:      1183.93    0.000000  (  0.000000   0.000000   0.000000)
  62:      1202.46    0.000000  (  0.000000   0.000000   0.000000)
  63:      1217.14    0.000000  (  0.000000   0.000000   0.000000)
  64:      1228.93    0.000000  (  0.000000   0.000000   0.000000)
  65:      1270.91    0.000000  (  0.000000   0.000000   0.000000)
  66:      1275.73    0.000000  (  0.000000   0.000000   0.000000)
  67:      1278.98    0.000000  (  0.000000   0.000000   0.000000)
  68:      1284.30    0.000000  (  0.000000   0.000000   0.000000)
  69:      1315.82    0.000000  (  0.000000   0.000000   0.000000)
  70:      1344.19    0.000000  (  0.000000   0.000000   0.000000)
  71:      1357.65    0.000000  (  0.000000   0.000000   0.000000)
  72:      1366.50    0.000000  (  0.000000   0.000000   0.000000)
  73:      1410.81    0.000000  (  0.000000   0.000000   0.000000)
  74:      1414.20    0.000000  (  0.000000   0.000000   0.000000)
  75:      1442.69    0.000000  (  0.000000   0.000000   0.000000)
  76:      1456.92    0.000000  (  0.000000   0.000000   0.000000)
  77:      1468.55    0.000000  (  0.000000   0.000000   0.000000)
  78:      1469.65    0.000000  (  0.000000   0.000000   0.000000)
  79:      1483.96    0.000000  (  0.000000   0.000000   0.000000)
  80:      1492.57    0.000000  (  0.000000   0.000000   0.000000)
  81:      1500.85    0.000000  (  0.000000   0.000000   0.000000)
  82:      1502.33    0.000000  (  0.000000   0.000000   0.000000)
  83:      1529.37    0.000000  (  0.000000   0.000000   0.000000)
  84:      1548.84    0.000000  (  0.000000   0.000000   0.000000)
  85:      1590.46    0.000000  (  0.000000   0.000000   0.000000)
  86:      1597.35    0.000000  (  0.000000   0.000000   0.000000)
  87:      2581.49    0.000000  (  0.000000   0.000000   0.000000)
  88:      2691.23    0.000000  (  0.000000   0.000000   0.000000)
  89:      2938.17    0.000000  (  0.000000   0.000000   0.000000)
  90:      2948.10    0.000000  (  0.000000   0.000000   0.000000)
  91:      2961.84    0.000000  (  0.000000   0.000000   0.000000)
  92:      2965.82    0.000000  (  0.000000   0.000000   0.000000)
  93:      2973.19    0.000000  (  0.000000   0.000000   0.000000)
  94:      2985.48    0.000000  (  0.000000   0.000000   0.000000)
  95:      2990.38    0.000000  (  0.000000   0.000000   0.000000)
  96:      3026.91    0.000000  (  0.000000   0.000000   0.000000)
  97:      3030.93    0.000000  (  0.000000   0.000000   0.000000)
  98:      3039.46    0.000000  (  0.000000   0.000000   0.000000)
  99:      3057.02    0.000000  (  0.000000   0.000000   0.000000)
 100:      3071.98    0.000000  (  0.000000   0.000000   0.000000)
 101:      3072.68    0.000000  (  0.000000   0.000000   0.000000)
 102:      3077.62    0.000000  (  0.000000   0.000000   0.000000)
 103:      3088.44    0.000000  (  0.000000   0.000000   0.000000)
 104:      3107.16    0.000000  (  0.000000   0.000000   0.000000)
 105:      3326.88    0.000000  (  0.000000   0.000000   0.000000)
 106:      3632.49    0.000000  (  0.000000   0.000000   0.000000)
 107:      3647.90    0.000000  (  0.000000   0.000000   0.000000)

The first frequency considered to be a vibration is 6
The total number of vibrations considered is 102


--------------------------
THERMOCHEMISTRY AT 298.15K
--------------------------

Temperature         ... 298.15 K
Pressure            ... 1.00 atm
Total Mass          ... 215.29 AMU

Throughout the following assumptions are being made:
  (1) The electronic state is orbitally nondegenerate
  (2) There are no thermally accessible electronically excited states
  (3) Hindered rotations indicated by low frequency modes are not
      treated as such but are treated as vibrations and this may
      cause some error
  (4) All equations used are the standard statistical mechanics
      equations for an ideal gas
  (5) All vibrations are strictly harmonic

freq.      17.16  E(vib)   ...       0.57 
freq.      29.93  E(vib)   ...       0.55 
freq.      41.69  E(vib)   ...       0.53 
freq.      45.12  E(vib)   ...       0.53 
freq.      50.59  E(vib)   ...       0.52 
freq.      68.13  E(vib)   ...       0.50 
freq.      91.53  E(vib)   ...       0.47 
freq.      99.44  E(vib)   ...       0.46 
freq.     120.98  E(vib)   ...       0.44 
freq.     151.20  E(vib)   ...       0.40 
freq.     177.46  E(vib)   ...       0.37 
freq.     197.84  E(vib)   ...       0.35 
freq.     212.86  E(vib)   ...       0.34 
freq.     230.38  E(vib)   ...       0.32 
freq.     237.07  E(vib)   ...       0.32 
freq.     245.77  E(vib)   ...       0.31 
freq.     282.00  E(vib)   ...       0.28 
freq.     297.60  E(vib)   ...       0.27 
freq.     337.24  E(vib)   ...       0.24 
freq.     348.35  E(vib)   ...       0.23 
freq.     366.62  E(vib)   ...       0.22 
freq.     401.02  E(vib)   ...       0.19 
freq.     414.79  E(vib)   ...       0.19 
freq.     438.31  E(vib)   ...       0.17 
freq.     485.97  E(vib)   ...       0.15 
freq.     501.05  E(vib)   ...       0.14 
freq.     549.57  E(vib)   ...       0.12 
freq.     571.93  E(vib)   ...       0.11 
freq.     588.61  E(vib)   ...       0.10 
freq.     634.88  E(vib)   ...       0.09 
freq.     669.76  E(vib)   ...       0.08 
freq.     747.76  E(vib)   ...       0.06 
freq.     772.98  E(vib)   ...       0.05 
freq.     778.69  E(vib)   ...       0.05 
freq.     802.04  E(vib)   ...       0.05 
freq.     832.83  E(vib)   ...       0.04 
freq.     839.40  E(vib)   ...       0.04 
freq.     881.84  E(vib)   ...       0.04 
freq.     905.28  E(vib)   ...       0.03 
freq.     928.37  E(vib)   ...       0.03 
freq.     933.37  E(vib)   ...       0.03 
freq.     941.54  E(vib)   ...       0.03 
freq.     949.20  E(vib)   ...       0.03 
freq.     953.29  E(vib)   ...       0.03 
freq.     984.50  E(vib)   ...       0.02 
freq.    1013.06  E(vib)   ...       0.02 
freq.    1055.90  E(vib)   ...       0.02 
freq.    1081.92  E(vib)   ...       0.02 
freq.    1099.44  E(vib)   ...       0.02 
freq.    1100.65  E(vib)   ...       0.02 
freq.    1119.81  E(vib)   ...       0.01 
freq.    1121.22  E(vib)   ...       0.01 
freq.    1158.29  E(vib)   ...       0.01 
freq.    1178.71  E(vib)   ...       0.01 
freq.    1180.76  E(vib)   ...       0.01 
freq.    1183.93  E(vib)   ...       0.01 
freq.    1202.46  E(vib)   ...       0.01 
freq.    1217.14  E(vib)   ...       0.01 
freq.    1228.93  E(vib)   ...       0.01 
freq.    1270.91  E(vib)   ...       0.01 
freq.    1275.73  E(vib)   ...       0.01 
freq.    1278.98  E(vib)   ...       0.01 
freq.    1284.30  E(vib)   ...       0.01 
freq.    1315.82  E(vib)   ...       0.01 
freq.    1344.19  E(vib)   ...       0.01 
freq.    1357.65  E(vib)   ...       0.01 
freq.    1366.50  E(vib)   ...       0.01 
freq.    1410.81  E(vib)   ...       0.00 
freq.    1414.20  E(vib)   ...       0.00 
freq.    1442.69  E(vib)   ...       0.00 
freq.    1456.92  E(vib)   ...       0.00 
freq.    1468.55  E(vib)   ...       0.00 
freq.    1469.65  E(vib)   ...       0.00 
freq.    1483.96  E(vib)   ...       0.00 
freq.    1492.57  E(vib)   ...       0.00 
freq.    1500.85  E(vib)   ...       0.00 
freq.    1502.33  E(vib)   ...       0.00 
freq.    1529.37  E(vib)   ...       0.00 
freq.    1548.84  E(vib)   ...       0.00 
freq.    1590.46  E(vib)   ...       0.00 
freq.    1597.35  E(vib)   ...       0.00 
freq.    2581.49  E(vib)   ...       0.00 
freq.    2691.23  E(vib)   ...       0.00 
freq.    2938.17  E(vib)   ...       0.00 
freq.    2948.10  E(vib)   ...       0.00 
freq.    2961.84  E(vib)   ...       0.00 
freq.    2965.82  E(vib)   ...       0.00 
freq.    2973.19  E(vib)   ...       0.00 
freq.    2985.48  E(vib)   ...       0.00 
freq.    2990.38  E(vib)   ...       0.00 
freq.    3026.91  E(vib)   ...       0.00 
freq.    3030.93  E(vib)   ...       0.00 
freq.    3039.46  E(vib)   ...       0.00 
freq.    3057.02  E(vib)   ...       0.00 
freq.    3071.98  E(vib)   ...       0.00 
freq.    3072.68  E(vib)   ...       0.00 
freq.    3077.62  E(vib)   ...       0.00 
freq.    3088.44  E(vib)   ...       0.00 
freq.    3107.16  E(vib)   ...       0.00 
freq.    3326.88  E(vib)   ...       0.00 
freq.    3632.49  E(vib)   ...       0.00 
freq.    3647.90  E(vib)   ...       0.00 

------------
INNER ENERGY
------------

The inner energy is: U= E(el) + E(ZPE) + E(vib) + E(rot) + E(trans)
    E(el)   - is the total energy from the electronic structure calculation
              = E(kin-el) + E(nuc-el) + E(el-el) + E(nuc-nuc)
    E(ZPE)  - the the zero temperature vibrational energy from the frequency calculation
    E(vib)  - the the finite temperature correction to E(ZPE) due to population
              of excited vibrational states
    E(rot)  - is the rotational thermal energy
    E(trans)- is the translational thermal energy

Summary of contributions to the inner energy U:
Electronic energy                ...    -49.36472795 Eh
Zero point energy                ...      0.30234917 Eh     189.73 kcal/mol
Thermal vibrational correction   ...      0.01656263 Eh      10.39 kcal/mol
Thermal rotational correction    ...      0.00141627 Eh       0.89 kcal/mol
Thermal translational correction ...      0.00141627 Eh       0.89 kcal/mol
-----------------------------------------------------------------------
Total thermal energy                    -49.04298361 Eh


Summary of corrections to the electronic energy:
(perhaps to be used in another calculation)
Total thermal correction                  0.01939517 Eh      12.17 kcal/mol
Non-thermal (ZPE) correction              0.30234917 Eh     189.73 kcal/mol
-----------------------------------------------------------------------
Total correction                          0.32174434 Eh     201.90 kcal/mol


--------
ENTHALPY
--------

The enthalpy is H = U + kB*T
                kB is Boltzmann's constant
Total free energy                 ...    -49.04298361 Eh 
Thermal Enthalpy correction       ...      0.00094421 Eh       0.59 kcal/mol
-----------------------------------------------------------------------
Total Enthalpy                    ...    -49.04203940 Eh


Note: Only C1 symmetry has been detected, increase convergence thresholds 
      if your molecule has a higher symmetry. Symmetry factor of 1.0 is   
      used for the rotational entropy correction. 
 

Note: Rotational entropy computed according to Herzberg 
Infrared and Raman Spectra, Chapter V,1, Van Nostrand Reinhold, 1945 
Point Group:  C1, Symmetry Number:   1  
Rotational constants in cm-1:     0.026086     0.009557     0.007969 

Vibrational entropy computed according to the QRRHO of S. Grimme
Chem.Eur.J. 2012 18 9955


-------
ENTROPY
-------

The entropy contributions are T*S = T*(S(el)+S(vib)+S(rot)+S(trans))
     S(el)   - electronic entropy
     S(vib)  - vibrational entropy
     S(rot)  - rotational entropy
     S(trans)- translational entropy
The entropies will be listed as mutliplied by the temperature to get
units of energy

Electronic entropy                ...      0.00000000 Eh      0.00 kcal/mol
Vibrational entropy               ...      0.03008137 Eh     18.88 kcal/mol
Rotational entropy                ...      0.01570890 Eh      9.86 kcal/mol
Translational entropy             ...      0.01995728 Eh     12.52 kcal/mol
-----------------------------------------------------------------------
Final entropy term                ...      0.06574755 Eh     41.26 kcal/mol

In case the symmetry of your molecule has not been determined correctly
or in case you have a reason to use a different symmetry number we print 
out the resulting rotational entropy values for sn=1,12 :
 --------------------------------------------------------
|  sn= 1 | S(rot)=       0.01570890 Eh      9.86 kcal/mol|
|  sn= 2 | S(rot)=       0.01505444 Eh      9.45 kcal/mol|
|  sn= 3 | S(rot)=       0.01467161 Eh      9.21 kcal/mol|
|  sn= 4 | S(rot)=       0.01439999 Eh      9.04 kcal/mol|
|  sn= 5 | S(rot)=       0.01418930 Eh      8.90 kcal/mol|
|  sn= 6 | S(rot)=       0.01401715 Eh      8.80 kcal/mol|
|  sn= 7 | S(rot)=       0.01387161 Eh      8.70 kcal/mol|
|  sn= 8 | S(rot)=       0.01374553 Eh      8.63 kcal/mol|
|  sn= 9 | S(rot)=       0.01363432 Eh      8.56 kcal/mol|
|  sn=10 | S(rot)=       0.01353484 Eh      8.49 kcal/mol|
|  sn=11 | S(rot)=       0.01344485 Eh      8.44 kcal/mol|
|  sn=12 | S(rot)=       0.01336270 Eh      8.39 kcal/mol|
 --------------------------------------------------------


-------------------
GIBBS FREE ENERGY
-------------------

The Gibbs free energy is G = H - T*S

Total enthalpy                    ...    -49.04203940 Eh 
Total entropy correction          ...     -0.06574755 Eh    -41.26 kcal/mol
-----------------------------------------------------------------------
Final Gibbs free energy         ...    -49.10778695 Eh

For completeness - the Gibbs free energy minus the electronic energy
G-E(el)                           ...      0.25694100 Eh    161.23 kcal/mol


Total Time for Numerical Frequencies  :       109.334 sec

Timings for individual modules:

Sum of individual times         ...        9.988 sec (=   0.166 min)
Geometry relaxation             ...        5.783 sec (=   0.096 min)  57.9 %
XTB module                      ...        4.204 sec (=   0.070 min)  42.1 %
                             ****ORCA TERMINATED NORMALLY****
TOTAL RUN TIME: 0 days 0 hours 2 minutes 4 seconds 680 msec
