
                                 *****************
                                 * O   R   C   A *
                                 *****************

           --- An Ab Initio, DFT and Semiempirical electronic structure package ---

                  #######################################################
                  #                        -***-                        #
                  #          Department of theory and spectroscopy      #
                  #               Directorship: Frank Neese             #
                  #        Max Planck Institute fuer Kohlenforschung    #
                  #                Kaiser Wilhelm Platz 1               #
                  #                 D-45470 Muelheim/Ruhr               #
                  #                      Germany                        #
                  #                                                     #
                  #                  All rights reserved                #
                  #                        -***-                        #
                  #######################################################


                         Program Version 4.2.1 -  RELEASE  -


 With contributions from (in alphabetic order):
   Daniel Aravena         : Magnetic Suceptibility
   Michael Atanasov       : Ab Initio Ligand Field Theory (pilot matlab implementation)
   Alexander A. Auer      : GIAO ZORA, VPT2
   Ute Becker             : Parallelization
   Giovanni Bistoni       : ED, misc. LED, open-shell LED, HFLD
   Martin Brehm           : Molecular dynamics
   Dmytro Bykov           : SCF Hessian
   Vijay G. Chilkuri      : MRCI spin determinant printing, contributions to CSF-ICE
   Dipayan Datta          : RHF DLPNO-CCSD density
   Achintya Kumar Dutta   : EOM-CC, STEOM-CC
   Dmitry Ganyushin       : Spin-Orbit,Spin-Spin,Magnetic field MRCI
   Miquel Garcia          : C-PCM Hessian, Gaussian charge scheme
   Yang Guo               : DLPNO-NEVPT2, CIM, IAO-localization
   Andreas Hansen         : Spin unrestricted coupled pair/coupled cluster methods
   Benjamin Helmich-Paris : CASSCF linear response (MC-RPA)
   Lee Huntington         : MR-EOM, pCC
   Robert Izsak           : Overlap fitted RIJCOSX, COSX-SCS-MP3, EOM
   Christian Kollmar      : KDIIS, OOCD, Brueckner-CCSD(T), CCSD density
   Simone Kossmann        : Meta GGA functionals, TD-DFT gradient, OOMP2, MP2 Hessian
   Martin Krupicka        : AUTO-CI
   Lucas Lang             : DCDCAS
   Dagmar Lenk            : GEPOL surface, SMD
   Dimitrios Liakos       : Extrapolation schemes; Compound Job, initial MDCI parallelization
   Dimitrios Manganas     : Further ROCIS development; embedding schemes
   Dimitrios Pantazis     : SARC Basis sets
   Taras Petrenko         : DFT Hessian,TD-DFT gradient, ASA, ECA, R-Raman, ABS, FL, XAS/XES, NRVS
   Peter Pinski           : DLPNO-MP2, DLPNO-MP2 Gradient
   Christoph Reimann      : Effective Core Potentials
   Marius Retegan         : Local ZFS, SOC
   Christoph Riplinger    : Optimizer, TS searches, QM/MM, DLPNO-CCSD(T), (RO)-DLPNO pert. Triples
   Tobias Risthaus        : Range-separated hybrids, TD-DFT gradient, RPA, STAB
   Michael Roemelt        : Original ROCIS implementation
   Masaaki Saitow         : Open-shell DLPNO-CCSD energy and density
   Barbara Sandhoefer     : DKH picture change effects
   Avijit Sen             : IP-ROCIS
   Kantharuban Sivalingam : CASSCF convergence, NEVPT2, FIC-MRCI
   Bernardo de Souza      : ESD, SOC TD-DFT
   Georgi Stoychev        : AutoAux, RI-MP2 NMR
   Willem Van den Heuvel  : Paramagnetic NMR
   Boris Wezisla          : Elementary symmetry handling
   Frank Wennmohs         : Technical directorship


 We gratefully acknowledge several colleagues who have allowed us to
 interface, adapt or use parts of their codes:
   Stefan Grimme, W. Hujo, H. Kruse,             : VdW corrections, initial TS optimization,
                  C. Bannwarth                     DFT functionals, gCP, sTDA/sTD-DF
   Ed Valeev, F. Pavosevic, A. Kumar             : LibInt (2-el integral package), F12 methods
   Garnet Chan, S. Sharma, J. Yang, R. Olivares  : DMRG
   Ulf Ekstrom                                   : XCFun DFT Library
   Mihaly Kallay                                 : mrcc  (arbitrary order and MRCC methods)
   Andreas Klamt, Michael Diedenhofen            : otool_cosmo (COSMO solvation model)
   Jiri Pittner, Ondrej Demel                    : Mk-CCSD
   Frank Weinhold                                : gennbo (NPA and NBO analysis)
   Christopher J. Cramer and Donald G. Truhlar   : smd solvation model
   Lars Goerigk                                  : TD-DFT with DH, B97 family of functionals
   V. Asgeirsson, H. Jonsson                     : NEB implementation
   FAccTs GmbH                                   : IRC, NEB, NEB-TS, Multilevel, MM, QM/MM, CI optimization
   S Lehtola, MJT Oliveira, MAL Marques          : LibXC Library


 Your calculation uses the libint2 library for the computation of 2-el integrals
 For citations please refer to: http://libint.valeyev.net

 Your ORCA version has been built with support for libXC version: 4.2.3
 For citations please refer to: https://tddft.org/programs/libxc/

 This ORCA versions uses:
   CBLAS   interface :  Fast vector & matrix operations
   LAPACKE interface :  Fast linear algebra routines
   SCALAPACK package :  Parallel linear algebra routines




***************************************
The coordinates will be read from file: init.xyz
***************************************


Your calculation utilizes the SMD solvation module
Please cite in your paper:
A.V. Marenich, C.J. Cramer, D.G. Truhlar J. Phys. Chem. B, 113, (2009), 6378 

Your calculation utilizes the semiempirical GFN2-xTB method
Please cite in your paper:
C. Bannwarth, Ehlert S., S. Grimme,  J. Chem. Theory Comput., 15, (2019), 1652.
   

----- Orbital basis set information -----
Your calculation utilizes the basis: def2-SVP
   F. Weigend and R. Ahlrichs, Phys. Chem. Chem. Phys. 7, 3297 (2005).

================================================================================
                                        WARNINGS
                       Please study these warnings very carefully!
================================================================================


WARNING: The environment variable RSH_COMMAND is not set!
  ===> : All Displacements for the Numerical Hessian calculation
         will be started on localhost

WARNING: Geometry Optimization
  ===> : Switching off AutoStart
         For restart on a previous wavefunction, please use MOREAD

WARNING: Found dipole moment calculation with XTB calculation
  ===> : Switching off dipole moment calculation


INFO   : the flag for use of LIBINT has been found!

================================================================================
                                       INPUT FILE
================================================================================
NAME = opt+freq.inp
|  1> ! XTB2 Opt NumFreq
|  2> 
|  3> %cpcm
|  4>  smd true
|  5>  smdsolvent "ch2cl2"
|  6> end
|  7> 
|  8> %pal
|  9>  nprocs 12
| 10> end
| 11> 
| 12> *xyzfile 0 1 init.xyz
| 13> 
| 14>                          ****END OF INPUT****
================================================================================

                       *****************************
                       * Geometry Optimization Run *
                       *****************************

Geometry optimization settings:
Update method            Update   .... BFGS
Choice of coordinates    CoordSys .... Z-matrix Internals
Initial Hessian          InHess   .... Almoef's Model

Convergence Tolerances:
Energy Change            TolE     ....  5.0000e-06 Eh
Max. Gradient            TolMAXG  ....  3.0000e-04 Eh/bohr
RMS Gradient             TolRMSG  ....  1.0000e-04 Eh/bohr
Max. Displacement        TolMAXD  ....  4.0000e-03 bohr
RMS Displacement         TolRMSD  ....  2.0000e-03 bohr
Strict Convergence                ....  False
------------------------------------------------------------------------------
                        ORCA OPTIMIZATION COORDINATE SETUP
------------------------------------------------------------------------------

The optimization will be done in new redundant internal coordinates
Making redundant internal coordinates   ...  (new redundants) done
Evaluating the initial hessian          ...  (Almloef) done
Evaluating the coordinates              ...  done
Calculating the B-matrix                .... done
Calculating the G-matrix                .... done
Diagonalizing the G-matrix              .... done
Small eigenvalue found = 3.623e-03
Small eigenvalue found = 4.173e-03
Small eigenvalue found = 7.303e-03
Small eigenvalue found = 1.336e-02
Small eigenvalue found = 1.955e-02
Small eigenvalue found = 2.972e-02
The first mode is                       ....  148
The number of degrees of freedom        ....  141

    -----------------------------------------------------------------
                    Redundant Internal Coordinates


    -----------------------------------------------------------------
         Definition                    Initial Value    Approx d2E/dq
    -----------------------------------------------------------------
      1. B(C   1,C   0)                  1.3913         0.621732   
      2. B(C   2,C   1)                  1.3830         0.641109   
      3. B(C   3,C   2)                  1.3858         0.634410   
      4. B(C   4,C   3)                  1.3845         0.637560   
      5. B(C   5,C   0)                  1.3879         0.629542   
      6. B(C   5,C   4)                  1.3849         0.636513   
      7. B(C   6,C   0)                  1.5180         0.390342   
      8. B(H   7,C   1)                  1.0823         0.370387   
      9. B(H   8,C   5)                  1.0794         0.374376   
     10. B(H   9,C   3)                  1.0800         0.373606   
     11. B(N  10,C   6)                  1.7088         0.173458   
     12. B(C  11,N  10)                  1.4684         0.419600   
     13. B(H  12,N  10)                  1.0721         0.344457   
     14. B(C  13,C  11)                  1.5243         0.381462   
     15. B(H  14,C  11)                  1.0954         0.353011   
     16. B(H  15,C  11)                  1.0944         0.354289   
     17. B(H  16,C  13)                  1.0906         0.359305   
     18. B(H  17,C  13)                  1.0916         0.357947   
     19. B(O  18,C   6)                  1.2726         0.861402   
     20. B(H  20,O  18)                  1.5859         0.052157   
     21. B(H  20,O  19)                  1.0080         0.435825   
     22. B(H  21,O  19)                  0.9599         0.520095   
     23. B(H  22,O  19)                  1.8807         0.017663   
     24. B(H  22,H  12)                  2.0389         0.002111   
     25. B(H  23,C   6)                  1.1160         0.327300   
     26. B(H  24,N  10)                  1.0190         0.418598   
     27. B(H  25,C   2)                  1.0802         0.373261   
     28. B(H  26,C   4)                  1.0803         0.373121   
     29. B(C  27,C  13)                  1.5273         0.377245   
     30. B(H  28,C  27)                  1.0926         0.356692   
     31. B(H  29,C  27)                  1.0919         0.357561   
     32. B(C  30,C  27)                  1.5240         0.381893   
     33. B(H  31,C  30)                  1.0879         0.362916   
     34. B(H  32,C  30)                  1.0876         0.363338   
     35. B(H  33,C  30)                  1.0879         0.362891   
     36. B(H  36,C  35)                  1.0932         0.355914   
     37. B(H  37,C  35)                  1.0987         0.348817   
     38. B(C  38,C  35)                  1.5275         0.376983   
     39. B(H  39,C  38)                  1.0918         0.357765   
     40. B(H  40,C  38)                  1.0928         0.356407   
     41. B(C  41,C  38)                  1.5271         0.377630   
     42. B(H  42,C   3)                  4.0052         0.000008   
     43. B(H  42,C  41)                  1.0922         0.357228   
     44. B(H  43,C  41)                  1.0921         0.357272   
     45. B(C  44,C  41)                  1.5246         0.381108   
     46. B(H  45,C  44)                  1.0878         0.362961   
     47. B(H  46,C  44)                  1.0874         0.363510   
     48. B(H  47,C  44)                  1.0880         0.362765   
     49. B(N  48,H  12)                  1.6297         0.044408   
     50. B(N  48,C  35)                  1.4644         0.425713   
     51. B(N  48,H  34)                  1.0160         0.423229   
     52. B(N  48,H  22)                  1.0216         0.414602   
     53. A(C   1,C   0,C   5)          119.1205         0.435480   
     54. A(C   5,C   0,C   6)          120.8426         0.400833   
     55. A(C   1,C   0,C   6)          120.0205         0.399953   
     56. A(C   0,C   1,H   7)          119.7523         0.354765   
     57. A(C   0,C   1,C   2)          120.4975         0.436910   
     58. A(C   2,C   1,H   7)          119.7430         0.356617   
     59. A(C   1,C   2,H  25)          119.8943         0.357086   
     60. A(C   1,C   2,C   3)          120.0289         0.438504   
     61. A(C   3,C   2,H  25)          120.0755         0.356449   
     62. A(C   2,C   3,H   9)          120.0708         0.356505   
     63. A(C   4,C   3,H   9)          120.1260         0.356805   
     64. A(C   2,C   3,C   4)          119.8023         0.438065   
     65. A(C   5,C   4,H  26)          119.6350         0.356627   
     66. A(C   3,C   4,C   5)          120.1428         0.438326   
     67. A(C   3,C   4,H  26)          120.2222         0.356726   
     68. A(C   0,C   5,C   4)          120.4050         0.437327   
     69. A(C   4,C   5,H   8)          120.6259         0.356830   
     70. A(C   0,C   5,H   8)          118.9665         0.356163   
     71. A(C   0,C   6,N  10)          100.3999         0.320006   
     72. A(C   0,C   6,O  18)          119.9647         0.421014   
     73. A(N  10,C   6,H  23)           98.5932         0.280986   
     74. A(N  10,C   6,O  18)          110.7681         0.363057   
     75. A(C   0,C   6,H  23)          109.0787         0.321586   
     76. A(O  18,C   6,H  23)          114.9303         0.364932   
     77. A(C  11,N  10,H  12)          110.4344         0.323440   
     78. A(C   6,N  10,C  11)          115.2297         0.321884   
     79. A(C  11,N  10,H  24)          110.2794         0.334016   
     80. A(H  12,N  10,H  24)          108.8863         0.290955   
     81. A(C   6,N  10,H  12)          106.4992         0.280955   
     82. A(C   6,N  10,H  24)          105.2123         0.289615   
     83. A(H  14,C  11,H  15)          108.3936         0.289195   
     84. A(N  10,C  11,H  14)          108.9877         0.327525   
     85. A(N  10,C  11,C  13)          111.3344         0.369668   
     86. A(N  10,C  11,H  15)          108.5896         0.327720   
     87. A(C  13,C  11,H  15)          109.6592         0.324565   
     88. A(C  13,C  11,H  14)          109.8159         0.324373   
     89. A(H  22,H  12,N  48)           29.7565         0.120038   
     90. A(N  10,H  12,H  22)          152.9894         0.138347   
     91. A(H  16,C  13,H  17)          107.7174         0.290465   
     92. A(C  11,C  13,H  17)          109.0645         0.325114   
     93. A(C  11,C  13,H  16)          108.5076         0.325316   
     94. A(H  17,C  13,C  27)          109.6220         0.324520   
     95. A(C  11,C  13,C  27)          111.7512         0.365263   
     96. A(H  16,C  13,C  27)          110.0813         0.324722   
     97. A(C   6,O  18,H  20)          123.7572         0.268961   
     98. A(H  20,O  19,H  21)          104.7504         0.312729   
     99. A(H  20,O  19,H  22)           90.4015         0.193047   
    100. A(H  21,O  19,H  22)          133.5445         0.197294   
    101. L(O  18,H  20,O  19,H  22, 2) 183.9563         0.221943   
    102. L(O  18,H  20,O  19,H  22, 1) 179.0349         0.221943   
    103. A(H  12,H  22,O  19)          109.7097         0.114193   
    104. A(O  19,H  22,N  48)          162.0500         0.191878   
    105. A(H  12,H  22,N  48)           52.3473         0.140462   
    106. A(H  29,C  27,C  30)          109.3255         0.325116   
    107. A(H  28,C  27,C  30)          109.4458         0.324986   
    108. A(C  13,C  27,C  30)          111.4675         0.365333   
    109. A(H  28,C  27,H  29)          107.8132         0.290083   
    110. A(C  13,C  27,H  29)          109.3186         0.324463   
    111. A(C  13,C  27,H  28)          109.3952         0.324333   
    112. A(H  32,C  30,H  33)          108.4600         0.291602   
    113. A(H  31,C  30,H  33)          108.2734         0.291549   
    114. A(C  27,C  30,H  33)          110.5957         0.325908   
    115. A(H  31,C  30,H  32)          108.4865         0.291606   
    116. A(C  27,C  30,H  32)          110.5820         0.325974   
    117. A(C  27,C  30,H  31)          110.3696         0.325912   
    118. A(H  37,C  35,C  38)          109.4098         0.323110   
    119. A(H  36,C  35,C  38)          109.9159         0.324180   
    120. A(H  36,C  35,H  37)          107.7564         0.288861   
    121. A(C  38,C  35,N  48)          110.7038         0.369837   
    122. A(H  37,C  35,N  48)          111.8579         0.327661   
    123. A(H  36,C  35,N  48)          107.1202         0.328751   
    124. A(H  39,C  38,C  41)          109.3239         0.324547   
    125. A(C  35,C  38,C  41)          111.8428         0.364589   
    126. A(H  39,C  38,H  40)          107.7896         0.290073   
    127. A(C  35,C  38,H  40)          109.2266         0.324254   
    128. A(C  35,C  38,H  39)          109.1017         0.324456   
    129. A(H  40,C  38,C  41)          109.4673         0.324345   
    130. A(H  43,C  41,C  44)          109.4735         0.324963   
    131. A(H  42,C  41,C  44)          109.5560         0.324956   
    132. A(C  38,C  41,C  44)          111.7687         0.365268   
    133. A(H  42,C  41,H  43)          107.6401         0.290115   
    134. A(C  38,C  41,H  43)          109.2479         0.324474   
    135. A(C  38,C  41,H  42)          109.0617         0.324467   
    136. A(H  46,C  44,H  47)          108.3800         0.291608   
    137. A(H  45,C  44,H  47)          108.4161         0.291539   
    138. A(C  41,C  44,H  47)          110.5998         0.325779   
    139. A(H  45,C  44,H  46)          108.3722         0.291633   
    140. A(C  41,C  44,H  46)          110.4497         0.325889   
    141. A(C  41,C  44,H  45)          110.5478         0.325808   
    142. A(H  12,N  48,C  35)          111.6970         0.236941   
    143. A(H  12,N  48,H  34)          118.8623         0.216342   
    144. A(H  12,N  48,H  22)           97.8962         0.215750   
    145. A(H  34,N  48,C  35)          109.8440         0.335432   
    146. A(H  22,N  48,C  35)          109.9035         0.334286   
    147. A(H  22,N  48,H  34)          107.7348         0.300133   
    148. D(H   7,C   1,C   0,C   6)      0.0922         0.026757   
    149. D(C   2,C   1,C   0,C   5)      0.5721         0.026757   
    150. D(H   7,C   1,C   0,C   5)   -178.4477         0.026757   
    151. D(C   2,C   1,C   0,C   6)    179.1119         0.026757   
    152. D(H  25,C   2,C   1,H   7)     -0.9714         0.028564   
    153. D(C   3,C   2,C   1,C   0)     -0.3888         0.028564   
    154. D(C   3,C   2,C   1,H   7)    178.6310         0.028564   
    155. D(H  25,C   2,C   1,C   0)   -179.9913         0.028564   
    156. D(C   4,C   3,C   2,H  25)    179.4946         0.030359   
    157. D(H   9,C   3,C   2,H  25)     -0.1497         0.030359   
    158. D(C   4,C   3,C   2,C   1)     -0.1071         0.030359   
    159. D(H   9,C   3,C   2,C   1)   -179.7514         0.030359   
    160. D(H  26,C   4,C   3,H   9)      0.0393         0.030682   
    161. D(C   5,C   4,C   3,H   9)   -179.9425         0.030682   
    162. D(C   5,C   4,C   3,C   2)      0.4134         0.030682   
    163. D(H  26,C   4,C   3,C   2)   -179.6048         0.030682   
    164. D(C   0,C   5,C   4,H  26)    179.7920         0.028129   
    165. D(H   8,C   5,C   0,C   1)    179.1537         0.027477   
    166. D(C   4,C   5,C   0,C   6)   -178.7919         0.027477   
    167. D(H   8,C   5,C   0,C   6)      0.6262         0.027477   
    168. D(H   8,C   5,C   4,C   3)   -179.6345         0.028129   
    169. D(C   0,C   5,C   4,C   3)     -0.2261         0.028129   
    170. D(C   4,C   5,C   0,C   1)     -0.2644         0.027477   
    171. D(H   8,C   5,C   4,H  26)      0.3836         0.028129   
    172. D(H  23,C   6,C   0,C   5)    149.5284         0.011335   
    173. D(O  18,C   6,C   0,C   5)     13.9482         0.011335   
    174. D(N  10,C   6,C   0,C   5)   -107.5145         0.011335   
    175. D(H  23,C   6,C   0,C   1)    -28.9859         0.011335   
    176. D(O  18,C   6,C   0,C   1)   -164.5661         0.011335   
    177. D(N  10,C   6,C   0,C   1)     73.9712         0.011335   
    178. D(C  11,N  10,C   6,C   0)   -161.6946         0.003677   
    179. D(H  24,N  10,C   6,O  18)   -167.7983         0.003677   
    180. D(H  24,N  10,C   6,C   0)    -40.0135         0.003677   
    181. D(H  12,N  10,C   6,H  23)   -173.1851         0.003677   
    182. D(C  11,N  10,C   6,H  23)    -50.3587         0.003677   
    183. D(H  12,N  10,C   6,C   0)     75.4791         0.003677   
    184. D(H  12,N  10,C   6,O  18)    -52.3058         0.003677   
    185. D(H  24,N  10,C   6,H  23)     71.3224         0.003677   
    186. D(C  11,N  10,C   6,O  18)     70.5206         0.003677   
    187. D(H  15,C  11,N  10,H  24)    -69.5639         0.016082   
    188. D(H  15,C  11,N  10,C   6)     49.3401         0.016082   
    189. D(H  14,C  11,N  10,H  24)     48.3275         0.016082   
    190. D(H  14,C  11,N  10,H  12)    -72.0652         0.016082   
    191. D(H  14,C  11,N  10,C   6)    167.2315         0.016082   
    192. D(C  13,C  11,N  10,H  24)    169.6110         0.016082   
    193. D(H  15,C  11,N  10,H  12)    170.0434         0.016082   
    194. D(C  13,C  11,N  10,H  12)     49.2183         0.016082   
    195. D(C  13,C  11,N  10,C   6)    -71.4851         0.016082   
    196. D(H  22,H  12,N  10,H  24)    134.6068         0.148128   
    197. D(H  22,H  12,N  10,C  11)   -104.1694         0.148128   
    198. D(H  22,H  12,N  10,C   6)     21.6169         0.148128   
    199. D(C  27,C  13,C  11,H  15)     56.8003         0.011593   
    200. D(H  17,C  13,C  11,H  15)    178.1608         0.011593   
    201. D(C  27,C  13,C  11,N  10)    176.9961         0.011593   
    202. D(H  17,C  13,C  11,H  14)     59.1554         0.011593   
    203. D(H  17,C  13,C  11,N  10)    -61.6434         0.011593   
    204. D(H  16,C  13,C  11,H  15)    -64.7598         0.011593   
    205. D(C  27,C  13,C  11,H  14)    -62.2051         0.011593   
    206. D(H  16,C  13,C  11,H  14)    176.2348         0.011593   
    207. D(H  16,C  13,C  11,N  10)     55.4360         0.011593   
    208. D(H  20,O  18,C   6,N  10)     61.4370         0.064472   
    209. D(H  20,O  18,C   6,C   0)    -54.7617         0.064472   
    210. D(H  20,O  18,C   6,H  23)    172.0771         0.064472   
    211. D(H  22,O  19,O  18,C   6)    -29.6262         0.001502   
    212. D(H  21,O  19,O  18,C   6)   -164.7194         0.001502   
    213. D(H  12,H  22,O  19,H  21)    103.8971         0.001682   
    214. D(H  12,H  22,O  19,H  20)     -7.0761         0.001682   
    215. D(O  19,H  22,H  12,N  48)    179.4243         0.001544   
    216. D(O  19,H  22,H  12,N  10)      5.6190         0.001544   
    217. D(N  48,H  22,H  12,N  10)   -173.8053         0.001544   
    218. D(N  48,H  22,O  19,H  21)    105.3763         0.001682   
    219. D(N  48,H  22,O  19,H  20)     -5.5969         0.001682   
    220. D(C  30,C  27,C  13,H  17)     57.9639         0.011351   
    221. D(C  30,C  27,C  13,H  16)    -60.3519         0.011351   
    222. D(C  30,C  27,C  13,C  11)    179.0012         0.011351   
    223. D(H  29,C  27,C  13,H  17)    178.9401         0.011351   
    224. D(H  29,C  27,C  13,H  16)     60.6242         0.011351   
    225. D(H  29,C  27,C  13,C  11)    -60.0226         0.011351   
    226. D(H  28,C  27,C  13,H  17)    -63.2145         0.011351   
    227. D(H  28,C  27,C  13,H  16)    178.4697         0.011351   
    228. D(H  28,C  27,C  13,C  11)     57.8228         0.011351   
    229. D(H  33,C  30,C  27,H  29)    178.1724         0.011618   
    230. D(H  33,C  30,C  27,H  28)     60.2934         0.011618   
    231. D(H  33,C  30,C  27,C  13)    -60.8555         0.011618   
    232. D(H  32,C  30,C  27,H  29)     58.0107         0.011618   
    233. D(H  32,C  30,C  27,H  28)    -59.8683         0.011618   
    234. D(H  32,C  30,C  27,C  13)    178.9828         0.011618   
    235. D(H  31,C  30,C  27,H  29)    -62.0370         0.011618   
    236. D(H  31,C  30,C  27,H  28)   -179.9160         0.011618   
    237. D(H  31,C  30,C  27,C  13)     58.9352         0.011618   
    238. D(C  41,C  38,C  35,N  48)    177.9669         0.011336   
    239. D(C  41,C  38,C  35,H  37)    -58.3113         0.011336   
    240. D(C  41,C  38,C  35,H  36)     59.8253         0.011336   
    241. D(H  40,C  38,C  35,N  48)    -60.6975         0.011336   
    242. D(H  40,C  38,C  35,H  37)     63.0243         0.011336   
    243. D(H  40,C  38,C  35,H  36)   -178.8391         0.011336   
    244. D(H  39,C  38,C  35,N  48)     56.8965         0.011336   
    245. D(H  39,C  38,C  35,H  37)   -179.3817         0.011336   
    246. D(H  39,C  38,C  35,H  36)    -61.2450         0.011336   
    247. D(C  44,C  41,C  38,H  40)     59.9433         0.011373   
    248. D(C  44,C  41,C  38,C  35)   -178.8603         0.011373   
    249. D(H  43,C  41,C  38,H  40)    -61.3664         0.011373   
    250. D(H  43,C  41,C  38,H  39)   -179.2285         0.011373   
    251. D(H  43,C  41,C  38,C  35)     59.8300         0.011373   
    252. D(H  42,C  41,C  38,H  40)   -178.7698         0.011373   
    253. D(C  44,C  41,C  38,H  39)    -57.9188         0.011373   
    254. D(H  42,C  41,C  38,H  39)     63.3682         0.011373   
    255. D(H  42,C  41,C  38,C  35)    -57.5733         0.011373   
    256. D(H  47,C  44,C  41,H  43)     61.7157         0.011572   
    257. D(H  47,C  44,C  41,H  42)    179.5364         0.011572   
    258. D(H  47,C  44,C  41,C  38)    -59.4633         0.011572   
    259. D(H  46,C  44,C  41,H  43)    -58.2624         0.011572   
    260. D(H  46,C  44,C  41,H  42)     59.5582         0.011572   
    261. D(H  46,C  44,C  41,C  38)   -179.4414         0.011572   
    262. D(H  45,C  44,C  41,H  43)   -178.1972         0.011572   
    263. D(H  45,C  44,C  41,H  42)    -60.3766         0.011572   
    264. D(H  45,C  44,C  41,C  38)     60.6238         0.011572   
    265. D(C  35,N  48,N  10,H  24)     24.6315         0.001502   
    266. D(C  35,N  48,N  10,C  11)    145.1472         0.001502   
    267. D(C  35,N  48,N  10,C   6)    -87.6005         0.001502   
    268. D(H  34,N  48,N  10,H  24)   -103.8414         0.001502   
    269. D(H  34,N  48,N  10,C  11)     16.6743         0.001502   
    270. D(H  34,N  48,N  10,C   6)    143.9267         0.001502   
    271. D(H  22,N  48,N  10,H  24)    139.8348         0.001502   
    272. D(H  22,N  48,N  10,C  11)    -99.6495         0.001502   
    273. D(H  34,N  48,H  12,H  22)    115.3147         0.002863   
    274. D(H  22,N  48,N  10,C   6)     27.6029         0.001502   
    275. D(H  12,N  48,C  35,C  38)    -69.7471         0.016555   
    276. D(H  12,N  48,C  35,H  37)    167.9501         0.016555   
    277. D(H  12,N  48,C  35,H  36)     50.0849         0.016555   
    278. D(H  34,N  48,C  35,H  37)    -57.9507         0.016555   
    279. D(H  34,N  48,C  35,H  36)   -175.8158         0.016555   
    280. D(H  22,N  48,C  35,C  38)   -177.2833         0.016555   
    281. D(H  22,N  48,C  35,H  37)     60.4139         0.016555   
    282. D(H  22,N  48,C  35,H  36)    -57.4513         0.016555   
    283. D(H  12,N  48,H  22,O  19)     -1.7590         0.234830   
    284. D(C  35,N  48,H  22,O  19)    114.8030         0.234830   
    285. D(H  34,N  48,C  35,C  38)     64.3522         0.016555   
    286. D(C  35,N  48,H  22,H  12)    116.5619         0.234830   
    287. D(H  34,N  48,H  22,O  19)   -125.5384         0.234830   
    288. D(H  34,N  48,H  22,H  12)   -123.7795         0.234830   
    289. D(C  35,N  48,H  12,H  22)   -115.1562         0.002863   
    -----------------------------------------------------------------

Number of atoms                         .... 49
Number of degrees of freedom            .... 289

         *************************************************************
         *                GEOMETRY OPTIMIZATION CYCLE   1            *
         *************************************************************
      -----------------------------------------------------------      
     |                   =====================                   |     
     |                           x T B                           |     
     |                   =====================                   |     
     |                         S. Grimme                         |     
     |          Mulliken Center for Theoretical Chemistry        |     
     |                    University of Bonn                     |     
      -----------------------------------------------------------      

   * xtb version 6.3.0 (49875a8) compiled by 'schneider@apollo14' on 2020-05-23

   xtb is free software: you can redistribute it and/or modify it under
   the terms of the GNU Lesser General Public License as published by
   the Free Software Foundation, either version 3 of the License, or
   (at your option) any later version.
   
   xtb is distributed in the hope that it will be useful,
   but WITHOUT ANY WARRANTY; without even the implied warranty of
   MERCHANTABILITY or FITNESS FOR A PARTICULAR PURPOSE.  See the
   GNU Lesser General Public License for more details.
   
   Cite this work as:
   * S. Grimme, C. Bannwarth, P. Shushkov, J. Chem. Theory Comput., 2017,
     13, 1989-2009. DOI: 10.1021/acs.jctc.7b00118
   * C. Bannwarth, S. Ehlert and S. Grimme., J. Chem. Theory Comput., 2019,
     15, 1652-1671. DOI: 10.1021/acs.jctc.8b01176
   * P. Pracht, E. Caldeweyher, S. Ehlert, S. Grimme, ChemRxiv, 2019, preprint.
     DOI: 10.26434/chemrxiv.8326202.v1
   
   for GFN-FF:
   * S. Spicher and S. Grimme, Angew. Chem. Int. Ed., 2020,
     DOI: 10.1002/anie.202004239
   
   for DFT-D4:
   * E. Caldeweyher, C. Bannwarth and S. Grimme, J. Chem. Phys., 2017,
     147, 034112. DOI: 10.1063/1.4993215
   * E. Caldeweyher, S. Ehlert, A. Hansen, H. Neugebauer, S. Spicher,
     C. Bannwarth and S. Grimme, J. Chem. Phys., 2019, 150, 154122.
     DOI: 10.1063/1.5090222
   
   for sTDA-xTB:
   * S. Grimme and C. Bannwarth, J. Chem. Phys., 2016, 145, 054103.
     DOI: 10.1063/1.4959605
   
   in the mass-spec context:
   * V. Asgeirsson, C. Bauer and S. Grimme, Chem. Sci., 2017, 8, 4879.
     DOI: 10.1039/c7sc00601b
   * J. Koopman and S. Grimme, ACS Omega 2019, 4, 12, 15120-15133.
     DOI: 10.1021/acsomega.9b02011
   
   for metadynamics refer to:
   * S. Grimme, J. Chem. Theory Comput., 2019, 155, 2847-2862
     DOI: 10.1021/acs.jctc.9b00143
   
   with help from (in alphabetical order)
   C. Bannwarth, F. Bohle, G. Brandenburg, E. Caldeweyher, M. Checinski,
   S. Dohm, S. Ehlert, S. Ehrlich, F. März, H. Neugebauer, J. Pisarek,
   P. Pracht, P. Shushkov, and S. Spicher.
   
 * started run on 2020/06/24 at 12:31:39.864     

           -------------------------------------------------
          |                Calculation Setup                |
           -------------------------------------------------

          program call               : /opt/orca/otool_xtb opt+freq_XTB.xyz --grad -c 0 -u 0 -P 12 --namespace opt+freq --gbsa CH2Cl2
          calculation namespace      : opt+freq
          coordinate file            : opt+freq_XTB.xyz
          number of atoms            :                    49
          number of electrons        :                   112
          charge                     :                     0
          spin                       :                   0.0
          first test random number   :      0.84358642075436

   ID    Z sym.   atoms
    1    6 C      1-7, 12, 14, 28, 31, 36, 39, 42, 45
    2    1 H      8-10, 13, 15-18, 21-27, 29, 30, 32-35, 37, 38, 40, 41, 43,
                  44, 46-48
    3    7 N      11, 49
    4    8 O      19, 20

molecular fragmentation (1/2 indicates fragments):
1111111111111111111222211111111111222222222222222
# atoms in fragment 1/2:    30    19
 fragment masses (1/2) :      179.26       91.15
CMA distance (Bohr)    :   6.767
constraining FC (au)   :  0.0500
########################################################################
[WARNING] Please study the warnings concerning your input carefully
-1- prog_main_parseArguments: Process number higher than OMP_NUM_THREADS, I hope you know what you are doing.
########################################################################
 Solvent             : CH2Cl2
 Using internal parameter file: .param_gbsa2_CH2Cl2
 Gsolv ref. state (COSMO-RS): gsolv [1 M gas/solution]
 temperature (mdtemp)       :    298.14999999999998     
 dielectric constant        :    8.9299999999999997     
 rho                        :    1.3300000000000003     
 mass                       :    84.930000000000007     
 surface tension            :    15.568945408385856     
 probe radius               :   0.71987590000000001     
 Gshift (Eh)                :    4.4408291734517593E-003
 c1                         :    1.4917377599999999     
 soset                      :    0.0000000000000000     
 HB correction              :  F

           -------------------------------------------------
          |                 G F N 2 - x T B                 |
           -------------------------------------------------

        Reference                      10.1021/acs.jctc.8b01176
      * Hamiltonian:
        H0-scaling (s, p, d)           1.850000    2.230000    2.230000
        zeta-weighting                 0.500000
      * Dispersion:
        s8                             2.700000
        a1                             0.520000
        a2                             5.000000
        s9                             5.000000
      * Repulsion:
        kExp                           1.500000    1.000000
        rExp                           1.000000
      * Coulomb:
        alpha                          2.000000
        third order                    shell-resolved
        anisotropic                    true
        a3                             3.000000
        a5                             4.000000
        cn-shift                       1.200000
        cn-exp                         4.000000
        max-rad                        5.000000

q/qsh data taken from xtbrestart
CAMM data taken from xtbrestart

          ...................................................
          :                      SETUP                      :
          :.................................................:
          :  # basis functions                 106          :
          :  # atomic orbitals                 106          :
          :  # shells                           68          :
          :  # electrons                       112          :
          :  max. iterations                   250          :
          :  Hamiltonian                  GFN2-xTB          :
          :  restarted?                       true          :
          :  GBSA solvation                   true          :
          :  PC potential                    false          :
          :  electronic temp.          300.0000000     K    :
          :  accuracy                    1.0000000          :
          :  -> integral cutoff          0.2500000E+02      :
          :  -> integral neglect         0.1000000E-07      :
          :  -> SCF convergence          0.1000000E-05 Eh   :
          :  -> wf. convergence          0.1000000E-03 e    :
          :  Broyden damping             0.4000000          :
          ...................................................

 iter      E             dE          RMSdq      gap      omega  full diag
   1    -62.2033434 -0.622033E+02  0.642E-07    3.37       0.0  T
   2    -62.2033434 -0.191847E-12  0.402E-07    3.37   35530.5  T
   3    -62.2033434 -0.568434E-13  0.245E-07    3.37   58345.8  T

   *** convergence criteria satisfied after 3 iterations ***

         #    Occupation            Energy/Eh            Energy/eV
      -------------------------------------------------------------
         1        2.0000           -0.6725157             -18.3001
       ...           ...                  ...                  ...
        50        2.0000           -0.4274607             -11.6318
        51        2.0000           -0.4239521             -11.5363
        52        2.0000           -0.4099755             -11.1560
        53        2.0000           -0.4072247             -11.0811
        54        2.0000           -0.3974702             -10.8157
        55        2.0000           -0.3812010             -10.3730
        56        2.0000           -0.3605106              -9.8100 (HOMO)
        57                         -0.2367110              -6.4412 (LUMO)
        58                         -0.2285851              -6.2201
        59                         -0.1322477              -3.5986
        60                         -0.0788613              -2.1459
        61                         -0.0128170              -0.3488
       ...                                ...                  ...
       106                          0.6583177              17.9137
      -------------------------------------------------------------
                  HL-Gap            0.1237996 Eh            3.3688 eV
             Fermi-level           -0.2986108 Eh           -8.1256 eV

 SCC (total)                   0 d,  0 h,  0 min,  0.123 sec
 SCC setup                      ...        0 min,  0.002 sec (  1.935%)
 Dispersion                     ...        0 min,  0.001 sec (  0.733%)
 classical contributions        ...        0 min,  0.000 sec (  0.248%)
 integral evaluation            ...        0 min,  0.035 sec ( 28.580%)
 iterations                     ...        0 min,  0.018 sec ( 14.290%)
 molecular gradient             ...        0 min,  0.061 sec ( 49.256%)
 printout                       ...        0 min,  0.006 sec (  4.937%)

         :::::::::::::::::::::::::::::::::::::::::::::::::::::
         ::                     SUMMARY                     ::
         :::::::::::::::::::::::::::::::::::::::::::::::::::::
         :: total energy             -61.381378017126 Eh    ::
         :: total w/o Gsasa/hb       -61.358195624192 Eh    ::
         :: gradient norm              0.000641142923 Eh/a0 ::
         :: HOMO-LUMO gap              3.368757410597 eV    ::
         ::.................................................::
         :: SCC energy               -62.226525799843 Eh    ::
         :: -> isotropic ES            0.126773342797 Eh    ::
         :: -> anisotropic ES         -0.004304818110 Eh    ::
         :: -> anisotropic XC          0.031242115363 Eh    ::
         :: -> dispersion             -0.042341185695 Eh    ::
         :: -> Gsolv                  -0.038524021800 Eh    ::
         ::    -> Gborn               -0.015341628865 Eh    ::
         ::    -> Gsasa               -0.027623222108 Eh    ::
         ::    -> Ghb                  0.000000000000 Eh    ::
         ::    -> Gshift               0.004440829173 Eh    ::
         :: repulsion energy           0.843983047449 Eh    ::
         :: add. restraining           0.000000000000 Eh    ::
         :::::::::::::::::::::::::::::::::::::::::::::::::::::

           -------------------------------------------------
          |                Property Printout                |
           -------------------------------------------------

    * Orbital Energies and Occupations

         #    Occupation            Energy/Eh            Energy/eV
      -------------------------------------------------------------
         1        2.0000           -0.6725157             -18.3001
       ...           ...                  ...                  ...
        44        2.0000           -0.4462712             -12.1437
        45        2.0000           -0.4412007             -12.0057
        46        2.0000           -0.4396174             -11.9626
        47        2.0000           -0.4363184             -11.8728
        48        2.0000           -0.4306089             -11.7175
        49        2.0000           -0.4288962             -11.6709
        50        2.0000           -0.4274607             -11.6318
        51        2.0000           -0.4239521             -11.5363
        52        2.0000           -0.4099755             -11.1560
        53        2.0000           -0.4072247             -11.0811
        54        2.0000           -0.3974702             -10.8157
        55        2.0000           -0.3812010             -10.3730
        56        2.0000           -0.3605106              -9.8100 (HOMO)
        57                         -0.2367110              -6.4412 (LUMO)
        58                         -0.2285851              -6.2201
        59                         -0.1322477              -3.5986
        60                         -0.0788613              -2.1459
        61                         -0.0128170              -0.3488
        62                          0.0124722               0.3394
        63                          0.0683216               1.8591
        64                          0.0733528               1.9960
        65                          0.0798007               2.1715
        66                          0.0889369               2.4201
        67                          0.0988445               2.6897
       ...                                ...                  ...
       106                          0.6583177              17.9137
      -------------------------------------------------------------
                  HL-Gap            0.1237996 Eh            3.3688 eV
             Fermi-level           -0.2986108 Eh           -8.1256 eV

     #   Z        covCN         q      C6AA      α(0)
     1   6 C      2.968    -0.030    28.744     8.794
     2   6 C      2.923    -0.045    29.127     8.850
     3   6 C      2.918    -0.031    28.772     8.796
     4   6 C      2.920    -0.031    28.772     8.796
     5   6 C      2.919    -0.032    28.788     8.799
     6   6 C      2.923    -0.031    28.774     8.797
     7   6 C      3.579     0.211    17.911     6.147
     8   1 H      0.925     0.030     2.585     2.514
     9   1 H      0.926     0.047     2.351     2.398
    10   1 H      0.926     0.041     2.437     2.441
    11   7 N      3.445    -0.197    25.274     7.467
    12   6 C      3.732    -0.002    20.701     6.494
    13   1 H      0.874     0.247     0.893     1.480
    14   6 C      3.804    -0.074    21.917     6.665
    15   1 H      0.924     0.059     2.217     2.328
    16   1 H      0.924     0.061     2.185     2.312
    17   1 H      0.924     0.065     2.142     2.289
    18   1 H      0.924     0.043     2.409     2.427
    19   8 O      0.859    -0.640    27.128     6.983
    20   8 O      1.603    -0.657    26.596     6.960
    21   1 H      0.800     0.326     0.648     1.264
    22   1 H      0.805     0.274     0.804     1.408
    23   1 H      0.860     0.195     1.134     1.668
    24   1 H      0.921    -0.019     3.409     2.888
    25   1 H      0.860     0.193     1.145     1.676
    26   1 H      0.926     0.041     2.430     2.438
    27   1 H      0.926     0.038     2.481     2.463
    28   6 C      3.801    -0.057    21.608     6.618
    29   1 H      0.924     0.039     2.457     2.451
    30   1 H      0.924     0.037     2.485     2.465
    31   6 C      3.752    -0.107    22.611     6.781
    32   1 H      0.925     0.037     2.484     2.465
    33   1 H      0.925     0.041     2.433     2.439
    34   1 H      0.925     0.039     2.467     2.456
    35   1 H      0.860     0.152     1.385     1.844
    36   6 C      3.731     0.009    20.510     6.464
    37   1 H      0.924     0.036     2.499     2.472
    38   1 H      0.923     0.022     2.709     2.574
    39   6 C      3.803    -0.070    21.842     6.654
    40   1 H      0.924     0.037     2.488     2.467
    41   1 H      0.924     0.043     2.412     2.429
    42   6 C      3.801    -0.057    21.594     6.616
    43   1 H      0.924     0.033     2.537     2.491
    44   1 H      0.924     0.035     2.516     2.480
    45   6 C      3.752    -0.107    22.599     6.779
    46   1 H      0.925     0.039     2.467     2.456
    47   1 H      0.925     0.040     2.455     2.450
    48   1 H      0.925     0.039     2.456     2.451
    49   7 N      2.649    -0.363    29.367     8.048

 Mol. C6AA /au·bohr⁶  :      19022.587568
 Mol. C8AA /au·bohr⁸  :     412931.304842
 Mol. α(0) /au        :        209.893429


Wiberg/Mayer (AO) data.
largest (>0.10) Wiberg bond orders for each atom
          total WBO             WBO to atom ...
     1  C   3.986        C    6 1.416    C    2 1.404    C    7 0.964    C    4 0.109
     2  C   3.991        C    3 1.452    C    1 1.404    H    8 0.967    C    5 0.111
     3  C   3.992        C    2 1.452    C    4 1.432    H   26 0.970    C    6 0.110
     4  C   3.991        C    5 1.444    C    3 1.432    H   10 0.971    C    1 0.109
     5  C   3.992        C    4 1.444    C    6 1.438    H   27 0.970    C    2 0.111
     6  C   3.991        C    5 1.438    C    1 1.416    H    9 0.963    C    3 0.110
     7  C   3.942        O   19 1.360    C    1 0.964    H   24 0.930    N   11 0.628
     8  H   0.999        C    2 0.967
     9  H   0.998        C    6 0.963
    10  H   0.998        C    4 0.971
    11  N   3.589        C   12 0.981    H   25 0.939    H   13 0.782    C    7 0.628    O   19 0.127
    12  C   3.955        C   14 1.007    N   11 0.981    H   16 0.970    H   15 0.968
    13  H   0.939        N   11 0.782    N   49 0.136
    14  C   3.990        C   12 1.007    C   28 1.006    H   18 0.974    H   17 0.969
    15  H   0.996        C   12 0.968
    16  H   0.996        C   12 0.970
    17  H   0.996        C   14 0.969
    18  H   0.998        C   14 0.974
    19  O   1.762        C    7 1.360    N   11 0.127    H   21 0.104
    20  O   1.806        H   22 0.919    H   21 0.780
    21  H   0.893        O   20 0.780    O   19 0.104
    22  H   0.925        O   20 0.919
    23  H   0.962        N   49 0.916
    24  H   0.999        C    7 0.930
    25  H   0.963        N   11 0.939
    26  H   0.998        C    3 0.970
    27  H   0.998        C    5 0.970
    28  C   3.996        C   31 1.019    C   14 1.006    H   30 0.978    H   29 0.978
    29  H   0.998        C   28 0.978
    30  H   0.999        C   28 0.978
    31  C   3.996        C   28 1.019    H   32 0.988    H   34 0.988    H   33 0.987
    32  H   0.999        C   31 0.988
    33  H   0.998        C   31 0.987
    34  H   0.999        C   31 0.988
    35  H   0.977        N   49 0.962
    36  C   3.979        N   49 1.009    C   39 1.005    H   38 0.973    H   37 0.972
    37  H   0.999        C   36 0.972
    38  H   0.999        C   36 0.973
    39  C   3.996        C   42 1.007    C   36 1.005    H   40 0.976    H   41 0.976
    40  H   0.999        C   39 0.976
    41  H   0.998        C   39 0.976
    42  C   3.997        C   45 1.019    C   39 1.007    H   43 0.978    H   44 0.978
    43  H   0.999        C   42 0.978
    44  H   0.999        C   42 0.978
    45  C   3.996        C   42 1.019    H   46 0.988    H   48 0.988    H   47 0.987
    46  H   0.999        C   45 0.988
    47  H   0.998        C   45 0.987
    48  H   0.998        C   45 0.988
    49  N   3.152        C   36 1.009    H   35 0.962    H   23 0.916    H   13 0.136
Topologies differ in total number of bonds
Writing topology from bond orders to xtbtopo.mol

molecular dipole:
                 x           y           z       tot (Debye)
 q only:        0.259       1.766       2.139
   full:        0.214       1.726       2.207       7.143
molecular quadrupole (traceless):
                xx          xy          yy          xz          yz          zz
 q only:       10.176       6.033      -6.159       7.127      -0.662      -4.017
  q+dip:        7.197       4.951      -2.154       8.736      -4.367      -5.043
   full:        7.217       4.532      -3.838       8.841      -3.278      -3.378


           -------------------------------------------------
          | TOTAL ENERGY              -61.381378017126 Eh   |
          | GRADIENT NORM               0.000641142923 Eh/α |
          | HOMO-LUMO GAP               3.368757410597 eV   |
           -------------------------------------------------

------------------------------------------------------------------------
 * finished run on 2020/06/24 at 12:31:40.105     
------------------------------------------------------------------------
 total:
 * wall-time:     0 d,  0 h,  0 min,  0.241 sec
 *  cpu-time:     0 d,  0 h,  0 min,  2.365 sec
 * ratio c/w:     9.809 speedup
 SCF:
 * wall-time:     0 d,  0 h,  0 min,  0.136 sec
 *  cpu-time:     0 d,  0 h,  0 min,  1.353 sec
 * ratio c/w:     9.936 speedup


-------------------------   --------------------
FINAL SINGLE POINT ENERGY       -61.381378017130
-------------------------   --------------------

------------------------------------------------------------------------------
                         ORCA GEOMETRY RELAXATION STEP
------------------------------------------------------------------------------

Reading the OPT-File                    .... done
Getting information on internals        .... done
Copying old internal coords+grads       .... done
Making the new internal coordinates     .... (new redundants).... done
Validating the new internal coordinates .... (new redundants).... done
Calculating the B-matrix                .... done
Calculating the G,G- and P matrices     .... done
Transforming gradient to internals      .... done
Projecting the internal gradient        .... done
Number of atoms                         ....  49
Number of internal coordinates          .... 289
Current Energy                          ....   -61.381378017 Eh
Current gradient norm                   ....     0.000641143 Eh/bohr
Maximum allowed component of the step   ....  0.300
Current trust radius                    ....  0.300
Evaluating the initial hessian          ....  (Almloef) done
Projecting the Hessian                  .... done
Forming the augmented Hessian           .... done
Diagonalizing the augmented Hessian     .... done
Last element of RFO vector              ....  0.998987641
Lowest eigenvalues of augmented Hessian:
 -0.000012644  0.000280981  0.008201015  0.011339865  0.011351845
Length of the computed step             ....  0.045031055
The final length of the internal step   ....  0.045031055
Converting the step to cartesian space:
 Initial RMS(Int)=    0.0026488856
Transforming coordinates:
 Iter   0:  RMS(Cart)=    0.0122054962 RMS(Int)=    0.0026488323
 Iter   1:  RMS(Cart)=    0.0000526363 RMS(Int)=    0.0000222047
 Iter   2:  RMS(Cart)=    0.0000016174 RMS(Int)=    0.0000005767
 Iter   3:  RMS(Cart)=    0.0000006206 RMS(Int)=    0.0000002411
 Iter   4:  RMS(Cart)=    0.0000002631 RMS(Int)=    0.0000001022
 Iter   5:  RMS(Cart)=    0.0000001116 RMS(Int)=    0.0000000433
 Iter   6:  RMS(Cart)=    0.0000000473 RMS(Int)=    0.0000000184
done
Storing new coordinates                 .... done

                                .--------------------.
          ----------------------|Geometry convergence|-------------------------
          Item                value                   Tolerance       Converged
          ---------------------------------------------------------------------
          RMS gradient        0.0000508053            0.0001000000      YES
          MAX gradient        0.0003069219            0.0003000000      NO
          RMS step            0.0026488856            0.0020000000      NO
          MAX step            0.0328526613            0.0040000000      NO
          ........................................................
          Max(Bonds)      0.0174      Max(Angles)    0.04
          Max(Dihed)        0.56      Max(Improp)    0.00
          ---------------------------------------------------------------------

The optimization has not yet converged - more geometry cycles are needed


    ---------------------------------------------------------------------------
                         Redundant Internal Coordinates
                            (Angstroem and degrees)

        Definition                    Value    dE/dq     Step     New-Value
    ----------------------------------------------------------------------------
     1. B(C   1,C   0)                1.3913  0.000020 -0.0000    1.3913   
     2. B(C   2,C   1)                1.3830  0.000015 -0.0000    1.3830   
     3. B(C   3,C   2)                1.3858  0.000044 -0.0000    1.3858   
     4. B(C   4,C   3)                1.3845 -0.000014  0.0000    1.3845   
     5. B(C   5,C   0)                1.3879  0.000068 -0.0001    1.3879   
     6. B(C   5,C   4)                1.3849 -0.000014  0.0000    1.3850   
     7. B(C   6,C   0)                1.5180  0.000008 -0.0000    1.5180   
     8. B(H   7,C   1)                1.0823  0.000010 -0.0000    1.0823   
     9. B(H   8,C   5)                1.0794  0.000010 -0.0000    1.0794   
    10. B(H   9,C   3)                1.0800 -0.000020  0.0000    1.0800   
    11. B(N  10,C   6)                1.7088  0.000132 -0.0005    1.7083   
    12. B(C  11,N  10)                1.4684  0.000098 -0.0001    1.4683   
    13. B(H  12,N  10)                1.0721 -0.000160  0.0002    1.0723   
    14. B(C  13,C  11)                1.5243  0.000033 -0.0000    1.5243   
    15. B(H  14,C  11)                1.0954 -0.000003  0.0000    1.0954   
    16. B(H  15,C  11)                1.0944 -0.000020  0.0000    1.0945   
    17. B(H  16,C  13)                1.0906  0.000014 -0.0000    1.0906   
    18. B(H  17,C  13)                1.0916  0.000028 -0.0000    1.0916   
    19. B(O  18,C   6)                1.2726 -0.000085  0.0001    1.2726   
    20. B(H  20,O  18)                1.5859  0.000013 -0.0001    1.5859   
    21. B(H  20,O  19)                1.0080 -0.000011  0.0000    1.0081   
    22. B(H  21,O  19)                0.9599  0.000307 -0.0003    0.9596   
    23. B(H  22,O  19)                1.8807  0.000086 -0.0024    1.8783   
    24. B(H  22,H  12)                2.0389 -0.000050  0.0015    2.0405   
    25. B(H  23,C   6)                1.1160 -0.000044  0.0001    1.1161   
    26. B(H  24,N  10)                1.0190 -0.000025  0.0000    1.0191   
    27. B(H  25,C   2)                1.0802  0.000006 -0.0000    1.0802   
    28. B(H  26,C   4)                1.0803  0.000035 -0.0000    1.0803   
    29. B(C  27,C  13)                1.5273  0.000068 -0.0001    1.5272   
    30. B(H  28,C  27)                1.0926  0.000016 -0.0000    1.0926   
    31. B(H  29,C  27)                1.0919  0.000016 -0.0000    1.0919   
    32. B(C  30,C  27)                1.5240  0.000020 -0.0000    1.5240   
    33. B(H  31,C  30)                1.0879  0.000017 -0.0000    1.0879   
    34. B(H  32,C  30)                1.0876  0.000018 -0.0000    1.0875   
    35. B(H  33,C  30)                1.0879  0.000024 -0.0000    1.0879   
    36. B(H  36,C  35)                1.0932 -0.000010  0.0000    1.0932   
    37. B(H  37,C  35)                1.0987 -0.000038  0.0001    1.0987   
    38. B(C  38,C  35)                1.5275 -0.000002 -0.0000    1.5275   
    39. B(H  39,C  38)                1.0918 -0.000003  0.0000    1.0918   
    40. B(H  40,C  38)                1.0928 -0.000011  0.0000    1.0928   
    41. B(C  41,C  38)                1.5271 -0.000013  0.0000    1.5271   
    42. B(H  42,C   3)                4.0052  0.000018 -0.0174    3.9878   
    43. B(H  42,C  41)                1.0922  0.000017 -0.0000    1.0922   
    44. B(H  43,C  41)                1.0921 -0.000002  0.0000    1.0921   
    45. B(C  44,C  41)                1.5246  0.000019 -0.0000    1.5245   
    46. B(H  45,C  44)                1.0878  0.000010 -0.0000    1.0878   
    47. B(H  46,C  44)                1.0874 -0.000001  0.0000    1.0874   
    48. B(H  47,C  44)                1.0880  0.000008 -0.0000    1.0880   
    49. B(N  48,H  12)                1.6297 -0.000130  0.0017    1.6315   
    50. B(N  48,C  35)                1.4644  0.000070 -0.0001    1.4643   
    51. B(N  48,H  34)                1.0160 -0.000050  0.0001    1.0161   
    52. B(N  48,H  22)                1.0216  0.000017  0.0000    1.0217   
    53. A(C   1,C   0,C   5)          119.12 -0.000042    0.01    119.13   
    54. A(C   5,C   0,C   6)          120.84 -0.000111    0.02    120.86   
    55. A(C   1,C   0,C   6)          120.02  0.000153   -0.02    120.00   
    56. A(C   0,C   1,H   7)          119.75  0.000048   -0.01    119.74   
    57. A(C   0,C   1,C   2)          120.50 -0.000016    0.00    120.50   
    58. A(C   2,C   1,H   7)          119.74 -0.000031    0.01    119.75   
    59. A(C   1,C   2,H  25)          119.89 -0.000006    0.00    119.89   
    60. A(C   1,C   2,C   3)          120.03  0.000035   -0.00    120.02   
    61. A(C   3,C   2,H  25)          120.08 -0.000029    0.00    120.08   
    62. A(C   2,C   3,H   9)          120.07  0.000013   -0.00    120.07   
    63. A(C   4,C   3,H   9)          120.13 -0.000002    0.00    120.13   
    64. A(C   2,C   3,C   4)          119.80 -0.000011    0.00    119.80   
    65. A(C   5,C   4,H  26)          119.63  0.000002   -0.00    119.63   
    66. A(C   3,C   4,C   5)          120.14 -0.000021    0.00    120.15   
    67. A(C   3,C   4,H  26)          120.22  0.000019   -0.00    120.22   
    68. A(C   0,C   5,C   4)          120.40  0.000055   -0.01    120.40   
    69. A(C   4,C   5,H   8)          120.63 -0.000034    0.01    120.63   
    70. A(C   0,C   5,H   8)          118.97 -0.000021    0.00    118.97   
    71. A(C   0,C   6,N  10)          100.40  0.000060   -0.03    100.37   
    72. A(C   0,C   6,O  18)          119.96 -0.000085    0.03    119.99   
    73. A(N  10,C   6,H  23)           98.59 -0.000103    0.04     98.64   
    74. A(N  10,C   6,O  18)          110.77  0.000033   -0.02    110.75   
    75. A(C   0,C   6,H  23)          109.08  0.000049   -0.01    109.07   
    76. A(O  18,C   6,H  23)          114.93  0.000044   -0.02    114.91   
    77. A(C  11,N  10,H  12)          110.43  0.000121   -0.03    110.40   
    78. A(C   6,N  10,C  11)          115.23 -0.000034    0.01    115.24   
    79. A(C  11,N  10,H  24)          110.28 -0.000035    0.02    110.30   
    80. A(H  12,N  10,H  24)          108.89 -0.000031    0.00    108.89   
    81. A(C   6,N  10,H  12)          106.50 -0.000033   -0.03    106.47   
    82. A(C   6,N  10,H  24)          105.21  0.000006    0.03    105.24   
    83. A(H  14,C  11,H  15)          108.39  0.000043    0.00    108.40   
    84. A(N  10,C  11,H  14)          108.99 -0.000038    0.00    108.99   
    85. A(N  10,C  11,C  13)          111.33  0.000227   -0.04    111.29   
    86. A(N  10,C  11,H  15)          108.59 -0.000117    0.02    108.61   
    87. A(C  13,C  11,H  15)          109.66 -0.000014   -0.00    109.65   
    88. A(C  13,C  11,H  14)          109.82 -0.000105    0.02    109.83   
    89. A(H  22,H  12,N  48)           29.76  0.000010   -0.02     29.73   
    90. A(N  10,H  12,H  22)          152.99  0.000042   -0.03    152.96   
    91. A(H  16,C  13,H  17)          107.72 -0.000001   -0.00    107.71   
    92. A(C  11,C  13,H  17)          109.06 -0.000007    0.00    109.07   
    93. A(C  11,C  13,H  16)          108.51  0.000050   -0.01    108.49   
    94. A(H  17,C  13,C  27)          109.62  0.000018    0.00    109.62   
    95. A(C  11,C  13,C  27)          111.75 -0.000035    0.01    111.76   
    96. A(H  16,C  13,C  27)          110.08 -0.000023    0.01    110.09   
    97. A(C   6,O  18,H  20)          123.76 -0.000065    0.04    123.80   
    98. A(H  20,O  19,H  21)          104.75  0.000004   -0.01    104.75   
    99. A(H  20,O  19,H  22)           90.40  0.000025    0.00     90.40   
   100. A(H  21,O  19,H  22)          133.54  0.000016   -0.01    133.53   
   101. L(O  18,H  20,O  19,H  22, 2) 183.96  0.000002    0.00    183.96   
   102. L(O  18,H  20,O  19,H  22, 1) 179.03 -0.000023    0.02    179.05   
   103. A(H  12,H  22,O  19)          109.71 -0.000018    0.01    109.72   
   104. A(O  19,H  22,N  48)          162.05 -0.000062    0.03    162.08   
   105. A(H  12,H  22,N  48)           52.35 -0.000044    0.02     52.37   
   106. A(H  29,C  27,C  30)          109.33  0.000010   -0.00    109.32   
   107. A(H  28,C  27,C  30)          109.45 -0.000032    0.01    109.45   
   108. A(C  13,C  27,C  30)          111.47  0.000017   -0.00    111.46   
   109. A(H  28,C  27,H  29)          107.81 -0.000002    0.00    107.82   
   110. A(C  13,C  27,H  29)          109.32 -0.000019    0.00    109.32   
   111. A(C  13,C  27,H  28)          109.40  0.000025   -0.01    109.39   
   112. A(H  32,C  30,H  33)          108.46 -0.000002    0.00    108.46   
   113. A(H  31,C  30,H  33)          108.27  0.000004   -0.00    108.27   
   114. A(C  27,C  30,H  33)          110.60 -0.000026    0.01    110.60   
   115. A(H  31,C  30,H  32)          108.49 -0.000008   -0.00    108.49   
   116. A(C  27,C  30,H  32)          110.58  0.000012   -0.00    110.58   
   117. A(C  27,C  30,H  31)          110.37  0.000019   -0.00    110.37   
   118. A(H  37,C  35,C  38)          109.41  0.000120   -0.03    109.38   
   119. A(H  36,C  35,C  38)          109.92  0.000009    0.00    109.92   
   120. A(H  36,C  35,H  37)          107.76 -0.000028   -0.01    107.75   
   121. A(C  38,C  35,N  48)          110.70 -0.000194    0.04    110.74   
   122. A(H  37,C  35,N  48)          111.86  0.000032   -0.00    111.85   
   123. A(H  36,C  35,N  48)          107.12  0.000063   -0.01    107.11   
   124. A(H  39,C  38,C  41)          109.32 -0.000053    0.01    109.34   
   125. A(C  35,C  38,C  41)          111.84  0.000166   -0.04    111.81   
   126. A(H  39,C  38,H  40)          107.79  0.000029    0.00    107.79   
   127. A(C  35,C  38,H  40)          109.23 -0.000028   -0.00    109.22   
   128. A(C  35,C  38,H  39)          109.10 -0.000072    0.02    109.12   
   129. A(H  40,C  38,C  41)          109.47 -0.000047    0.00    109.47   
   130. A(H  43,C  41,C  44)          109.47  0.000049   -0.01    109.46   
   131. A(H  42,C  41,C  44)          109.56  0.000012    0.00    109.56   
   132. A(C  38,C  41,C  44)          111.77 -0.000115    0.02    111.79   
   133. A(H  42,C  41,H  43)          107.64 -0.000017   -0.00    107.64   
   134. A(C  38,C  41,H  43)          109.25  0.000028   -0.01    109.24   
   135. A(C  38,C  41,H  42)          109.06  0.000046   -0.01    109.05   
   136. A(H  46,C  44,H  47)          108.38 -0.000005   -0.00    108.38   
   137. A(H  45,C  44,H  47)          108.42  0.000001    0.00    108.42   
   138. A(C  41,C  44,H  47)          110.60  0.000009   -0.00    110.60   
   139. A(H  45,C  44,H  46)          108.37  0.000000    0.00    108.37   
   140. A(C  41,C  44,H  46)          110.45  0.000028   -0.01    110.44   
   141. A(C  41,C  44,H  45)          110.55 -0.000032    0.01    110.56   
   142. A(H  12,N  48,C  35)          111.70 -0.000099    0.02    111.72   
   143. A(H  12,N  48,H  34)          118.86  0.000017   -0.00    118.86   
   144. A(H  12,N  48,H  22)           97.90  0.000034    0.00     97.90   
   145. A(H  34,N  48,C  35)          109.84  0.000040    0.01    109.85   
   146. A(H  22,N  48,C  35)          109.90  0.000037   -0.04    109.87   
   147. A(H  22,N  48,H  34)          107.73 -0.000024    0.00    107.74   
   148. D(H   7,C   1,C   0,C   6)      0.09 -0.000016    0.06      0.15   
   149. D(C   2,C   1,C   0,C   5)      0.57  0.000027   -0.05      0.52   
   150. D(H   7,C   1,C   0,C   5)   -178.45 -0.000009    0.01   -178.44   
   151. D(C   2,C   1,C   0,C   6)    179.11  0.000020   -0.00    179.11   
   152. D(H  25,C   2,C   1,H   7)     -0.97  0.000009   -0.01     -0.98   
   153. D(C   3,C   2,C   1,C   0)     -0.39 -0.000033    0.07     -0.32   
   154. D(C   3,C   2,C   1,H   7)    178.63  0.000004    0.00    178.64   
   155. D(H  25,C   2,C   1,C   0)   -179.99 -0.000028    0.05   -179.94   
   156. D(C   4,C   3,C   2,H  25)    179.49 -0.000002    0.00    179.50   
   157. D(H   9,C   3,C   2,H  25)     -0.15  0.000007   -0.01     -0.16   
   158. D(C   4,C   3,C   2,C   1)     -0.11  0.000004   -0.02     -0.12   
   159. D(H   9,C   3,C   2,C   1)   -179.75  0.000012   -0.03   -179.78   
   160. D(H  26,C   4,C   3,H   9)      0.04  0.000017   -0.04      0.00   
   161. D(C   5,C   4,C   3,H   9)   -179.94  0.000022   -0.04   -179.98   
   162. D(C   5,C   4,C   3,C   2)      0.41  0.000030   -0.05      0.36   
   163. D(H  26,C   4,C   3,C   2)   -179.60  0.000025   -0.05   -179.65   
   164. D(C   0,C   5,C   4,H  26)    179.79 -0.000030    0.06    179.86   
   165. D(H   8,C   5,C   0,C   1)    179.15 -0.000026    0.06    179.22   
   166. D(C   4,C   5,C   0,C   6)   -178.79  0.000009   -0.06   -178.86   
   167. D(H   8,C   5,C   0,C   6)      0.63 -0.000023    0.01      0.64   
   168. D(H   8,C   5,C   4,C   3)   -179.63 -0.000003   -0.01   -179.65   
   169. D(C   0,C   5,C   4,C   3)     -0.23 -0.000035    0.07     -0.16   
   170. D(C   4,C   5,C   0,C   1)     -0.26  0.000006   -0.02     -0.28   
   171. D(H   8,C   5,C   4,H  26)      0.38  0.000002   -0.01      0.37   
   172. D(H  23,C   6,C   0,C   5)    149.53 -0.000068    0.52    150.05   
   173. D(O  18,C   6,C   0,C   5)     13.95 -0.000103    0.53     14.48   
   174. D(N  10,C   6,C   0,C   5)   -107.51 -0.000143    0.56   -106.96   
   175. D(H  23,C   6,C   0,C   1)    -28.99 -0.000062    0.47    -28.51   
   176. D(O  18,C   6,C   0,C   1)   -164.57 -0.000097    0.48   -164.08   
   177. D(N  10,C   6,C   0,C   1)     73.97 -0.000137    0.51     74.48   
   178. D(C  11,N  10,C   6,C   0)   -161.69  0.000000   -0.08   -161.78   
   179. D(H  24,N  10,C   6,O  18)   -167.80 -0.000013   -0.04   -167.83   
   180. D(H  24,N  10,C   6,C   0)    -40.01 -0.000061   -0.03    -40.04   
   181. D(H  12,N  10,C   6,H  23)   -173.19 -0.000069   -0.03   -173.22   
   182. D(C  11,N  10,C   6,H  23)    -50.36  0.000039   -0.09    -50.45   
   183. D(H  12,N  10,C   6,C   0)     75.48 -0.000108   -0.03     75.45   
   184. D(H  12,N  10,C   6,O  18)    -52.31 -0.000061   -0.03    -52.34   
   185. D(H  24,N  10,C   6,H  23)     71.32 -0.000022   -0.03     71.29   
   186. D(C  11,N  10,C   6,O  18)     70.52  0.000047   -0.09     70.43   
   187. D(H  15,C  11,N  10,H  24)    -69.56  0.000021    0.06    -69.50   
   188. D(H  15,C  11,N  10,C   6)     49.34 -0.000020    0.12     49.46   
   189. D(H  14,C  11,N  10,H  24)     48.33 -0.000015    0.08     48.41   
   190. D(H  14,C  11,N  10,H  12)    -72.07 -0.000032    0.08    -71.99   
   191. D(H  14,C  11,N  10,C   6)    167.23 -0.000057    0.14    167.37   
   192. D(C  13,C  11,N  10,H  24)    169.61 -0.000027    0.08    169.69   
   193. D(H  15,C  11,N  10,H  12)    170.04  0.000005    0.06    170.11   
   194. D(C  13,C  11,N  10,H  12)     49.22 -0.000043    0.08     49.30   
   195. D(C  13,C  11,N  10,C   6)    -71.49 -0.000068    0.14    -71.35   
   196. D(H  22,H  12,N  10,H  24)    134.61 -0.000043    0.01    134.62   
   197. D(H  22,H  12,N  10,C  11)   -104.17 -0.000030    0.02   -104.15   
   198. D(H  22,H  12,N  10,C   6)     21.62 -0.000018   -0.01     21.61   
   199. D(C  27,C  13,C  11,H  15)     56.80 -0.000038    0.16     56.96   
   200. D(H  17,C  13,C  11,H  15)    178.16 -0.000044    0.16    178.33   
   201. D(C  27,C  13,C  11,N  10)    177.00 -0.000048    0.15    177.15   
   202. D(H  17,C  13,C  11,H  14)     59.16 -0.000024    0.15     59.31   
   203. D(H  17,C  13,C  11,N  10)    -61.64 -0.000054    0.16    -61.48   
   204. D(H  16,C  13,C  11,H  15)    -64.76 -0.000021    0.15    -64.61   
   205. D(C  27,C  13,C  11,H  14)    -62.21 -0.000018    0.14    -62.06   
   206. D(H  16,C  13,C  11,H  14)    176.23 -0.000001    0.14    176.38   
   207. D(H  16,C  13,C  11,N  10)     55.44 -0.000031    0.15     55.59   
   208. D(H  20,O  18,C   6,N  10)     61.44  0.000026   -0.04     61.40   
   209. D(H  20,O  18,C   6,C   0)    -54.76 -0.000022   -0.01    -54.77   
   210. D(H  20,O  18,C   6,H  23)    172.08 -0.000057   -0.01    172.07   
   211. D(H  22,O  19,O  18,C   6)    -29.63  0.000008    0.17    -29.45   
   212. D(H  21,O  19,O  18,C   6)   -164.72 -0.000016    0.18   -164.54   
   213. D(H  12,H  22,O  19,H  21)    103.90  0.000018   -0.17    103.73   
   214. D(H  12,H  22,O  19,H  20)     -7.08 -0.000019   -0.16     -7.24   
   215. D(O  19,H  22,H  12,N  48)    179.42  0.000002   -0.00    179.42   
   216. D(O  19,H  22,H  12,N  10)      5.62  0.000025    0.18      5.80   
   217. D(N  48,H  22,H  12,N  10)   -173.81  0.000023    0.19   -173.62   
   218. D(N  48,H  22,O  19,H  21)    105.38  0.000007   -0.16    105.22   
   219. D(N  48,H  22,O  19,H  20)     -5.60 -0.000030   -0.15     -5.75   
   220. D(C  30,C  27,C  13,H  17)     57.96 -0.000026    0.12     58.08   
   221. D(C  30,C  27,C  13,H  16)    -60.35 -0.000022    0.12    -60.23   
   222. D(C  30,C  27,C  13,C  11)    179.00 -0.000046    0.13    179.13   
   223. D(H  29,C  27,C  13,H  17)    178.94 -0.000015    0.12    179.06   
   224. D(H  29,C  27,C  13,H  16)     60.62 -0.000011    0.12     60.74   
   225. D(H  29,C  27,C  13,C  11)    -60.02 -0.000036    0.13    -59.90   
   226. D(H  28,C  27,C  13,H  17)    -63.21 -0.000014    0.12    -63.10   
   227. D(H  28,C  27,C  13,H  16)    178.47 -0.000010    0.12    178.59   
   228. D(H  28,C  27,C  13,C  11)     57.82 -0.000034    0.13     57.95   
   229. D(H  33,C  30,C  27,H  29)    178.17 -0.000019    0.07    178.24   
   230. D(H  33,C  30,C  27,H  28)     60.29 -0.000005    0.06     60.35   
   231. D(H  33,C  30,C  27,C  13)    -60.86 -0.000026    0.07    -60.79   
   232. D(H  32,C  30,C  27,H  29)     58.01 -0.000008    0.06     58.07   
   233. D(H  32,C  30,C  27,H  28)    -59.87  0.000007    0.05    -59.82   
   234. D(H  32,C  30,C  27,C  13)    178.98 -0.000014    0.06    179.04   
   235. D(H  31,C  30,C  27,H  29)    -62.04 -0.000018    0.06    -61.97   
   236. D(H  31,C  30,C  27,H  28)   -179.92 -0.000004    0.06   -179.86   
   237. D(H  31,C  30,C  27,C  13)     58.94 -0.000025    0.07     59.00   
   238. D(C  41,C  38,C  35,N  48)    177.97 -0.000018   -0.04    177.93   
   239. D(C  41,C  38,C  35,H  37)    -58.31 -0.000025   -0.04    -58.35   
   240. D(C  41,C  38,C  35,H  36)     59.83  0.000018   -0.06     59.77   
   241. D(H  40,C  38,C  35,N  48)    -60.70  0.000013   -0.06    -60.75   
   242. D(H  40,C  38,C  35,H  37)     63.02  0.000005   -0.05     62.97   
   243. D(H  40,C  38,C  35,H  36)   -178.84  0.000048   -0.08   -178.92   
   244. D(H  39,C  38,C  35,N  48)     56.90 -0.000010   -0.04     56.85   
   245. D(H  39,C  38,C  35,H  37)   -179.38 -0.000017   -0.04   -179.42   
   246. D(H  39,C  38,C  35,H  36)    -61.25  0.000026   -0.06    -61.31   
   247. D(C  44,C  41,C  38,H  40)     59.94  0.000014   -0.11     59.83   
   248. D(C  44,C  41,C  38,C  35)   -178.86  0.000056   -0.14   -179.00   
   249. D(H  43,C  41,C  38,H  40)    -61.37  0.000008   -0.11    -61.48   
   250. D(H  43,C  41,C  38,H  39)   -179.23  0.000031   -0.13   -179.36   
   251. D(H  43,C  41,C  38,C  35)     59.83  0.000050   -0.14     59.69   
   252. D(H  42,C  41,C  38,H  40)   -178.77 -0.000014   -0.10   -178.87   
   253. D(C  44,C  41,C  38,H  39)    -57.92  0.000037   -0.13    -58.05   
   254. D(H  42,C  41,C  38,H  39)     63.37  0.000009   -0.12     63.25   
   255. D(H  42,C  41,C  38,C  35)    -57.57  0.000027   -0.12    -57.70   
   256. D(H  47,C  44,C  41,H  43)     61.72  0.000009   -0.03     61.68   
   257. D(H  47,C  44,C  41,H  42)    179.54  0.000025   -0.04    179.49   
   258. D(H  47,C  44,C  41,C  38)    -59.46  0.000016   -0.03    -59.50   
   259. D(H  46,C  44,C  41,H  43)    -58.26 -0.000008   -0.02    -58.29   
   260. D(H  46,C  44,C  41,H  42)     59.56  0.000008   -0.03     59.52   
   261. D(H  46,C  44,C  41,C  38)   -179.44 -0.000001   -0.03   -179.47   
   262. D(H  45,C  44,C  41,H  43)   -178.20 -0.000005   -0.03   -178.22   
   263. D(H  45,C  44,C  41,H  42)    -60.38  0.000011   -0.03    -60.41   
   264. D(H  45,C  44,C  41,C  38)     60.62  0.000002   -0.03     60.60   
   265. D(C  35,N  48,N  10,H  24)     24.63 -0.000046    0.20     24.83   
   266. D(C  35,N  48,N  10,C  11)    145.15 -0.000057    0.24    145.39   
   267. D(C  35,N  48,N  10,C   6)    -87.60 -0.000023    0.21    -87.39   
   268. D(H  34,N  48,N  10,H  24)   -103.84 -0.000002    0.16   -103.68   
   269. D(H  34,N  48,N  10,C  11)     16.67 -0.000013    0.20     16.87   
   270. D(H  34,N  48,N  10,C   6)    143.93  0.000021    0.17    144.09   
   271. D(H  22,N  48,N  10,H  24)    139.83 -0.000016    0.15    139.98   
   272. D(H  22,N  48,N  10,C  11)    -99.65 -0.000028    0.19    -99.46   
   273. D(H  34,N  48,H  12,H  22)    115.31  0.000002    0.00    115.32   
   274. D(H  22,N  48,N  10,C   6)     27.60  0.000007    0.16     27.76   
   275. D(H  12,N  48,C  35,C  38)    -69.75  0.000083   -0.13    -69.88   
   276. D(H  12,N  48,C  35,H  37)    167.95  0.000044   -0.12    167.83   
   277. D(H  12,N  48,C  35,H  36)     50.08  0.000022   -0.11     49.98   
   278. D(H  34,N  48,C  35,H  37)    -57.95  0.000016   -0.10    -58.05   
   279. D(H  34,N  48,C  35,H  36)   -175.82 -0.000007   -0.09   -175.90   
   280. D(H  22,N  48,C  35,C  38)   -177.28  0.000073   -0.13   -177.41   
   281. D(H  22,N  48,C  35,H  37)     60.41  0.000034   -0.12     60.30   
   282. D(H  22,N  48,C  35,H  36)    -57.45  0.000011   -0.10    -57.55   
   283. D(H  12,N  48,H  22,O  19)     -1.76  0.000011   -0.01     -1.77   
   284. D(C  35,N  48,H  22,O  19)    114.80 -0.000070    0.01    114.81   
   285. D(H  34,N  48,C  35,C  38)     64.35  0.000055   -0.11     64.24   
   286. D(C  35,N  48,H  22,H  12)    116.56 -0.000081    0.01    116.58   
   287. D(H  34,N  48,H  22,O  19)   -125.54 -0.000015   -0.01   -125.54   
   288. D(H  34,N  48,H  22,H  12)   -123.78 -0.000027    0.00   -123.78   
   289. D(C  35,N  48,H  12,H  22)   -115.16 -0.000025    0.03   -115.12   
    ----------------------------------------------------------------------------

         *************************************************************
         *                GEOMETRY OPTIMIZATION CYCLE   2            *
         *************************************************************
      -----------------------------------------------------------      
     |                   =====================                   |     
     |                           x T B                           |     
     |                   =====================                   |     
     |                         S. Grimme                         |     
     |          Mulliken Center for Theoretical Chemistry        |     
     |                    University of Bonn                     |     
      -----------------------------------------------------------      

   * xtb version 6.3.0 (49875a8) compiled by 'schneider@apollo14' on 2020-05-23

   xtb is free software: you can redistribute it and/or modify it under
   the terms of the GNU Lesser General Public License as published by
   the Free Software Foundation, either version 3 of the License, or
   (at your option) any later version.
   
   xtb is distributed in the hope that it will be useful,
   but WITHOUT ANY WARRANTY; without even the implied warranty of
   MERCHANTABILITY or FITNESS FOR A PARTICULAR PURPOSE.  See the
   GNU Lesser General Public License for more details.
   
   Cite this work as:
   * S. Grimme, C. Bannwarth, P. Shushkov, J. Chem. Theory Comput., 2017,
     13, 1989-2009. DOI: 10.1021/acs.jctc.7b00118
   * C. Bannwarth, S. Ehlert and S. Grimme., J. Chem. Theory Comput., 2019,
     15, 1652-1671. DOI: 10.1021/acs.jctc.8b01176
   * P. Pracht, E. Caldeweyher, S. Ehlert, S. Grimme, ChemRxiv, 2019, preprint.
     DOI: 10.26434/chemrxiv.8326202.v1
   
   for GFN-FF:
   * S. Spicher and S. Grimme, Angew. Chem. Int. Ed., 2020,
     DOI: 10.1002/anie.202004239
   
   for DFT-D4:
   * E. Caldeweyher, C. Bannwarth and S. Grimme, J. Chem. Phys., 2017,
     147, 034112. DOI: 10.1063/1.4993215
   * E. Caldeweyher, S. Ehlert, A. Hansen, H. Neugebauer, S. Spicher,
     C. Bannwarth and S. Grimme, J. Chem. Phys., 2019, 150, 154122.
     DOI: 10.1063/1.5090222
   
   for sTDA-xTB:
   * S. Grimme and C. Bannwarth, J. Chem. Phys., 2016, 145, 054103.
     DOI: 10.1063/1.4959605
   
   in the mass-spec context:
   * V. Asgeirsson, C. Bauer and S. Grimme, Chem. Sci., 2017, 8, 4879.
     DOI: 10.1039/c7sc00601b
   * J. Koopman and S. Grimme, ACS Omega 2019, 4, 12, 15120-15133.
     DOI: 10.1021/acsomega.9b02011
   
   for metadynamics refer to:
   * S. Grimme, J. Chem. Theory Comput., 2019, 155, 2847-2862
     DOI: 10.1021/acs.jctc.9b00143
   
   with help from (in alphabetical order)
   C. Bannwarth, F. Bohle, G. Brandenburg, E. Caldeweyher, M. Checinski,
   S. Dohm, S. Ehlert, S. Ehrlich, F. März, H. Neugebauer, J. Pisarek,
   P. Pracht, P. Shushkov, and S. Spicher.
   
 * started run on 2020/06/24 at 12:31:41.273     

           -------------------------------------------------
          |                Calculation Setup                |
           -------------------------------------------------

          program call               : /opt/orca/otool_xtb opt+freq_XTB.xyz --grad -c 0 -u 0 -P 12 --namespace opt+freq --gbsa CH2Cl2
          calculation namespace      : opt+freq
          coordinate file            : opt+freq_XTB.xyz
          number of atoms            :                    49
          number of electrons        :                   112
          charge                     :                     0
          spin                       :                   0.0
          first test random number   :      0.32842689309518

   ID    Z sym.   atoms
    1    6 C      1-7, 12, 14, 28, 31, 36, 39, 42, 45
    2    1 H      8-10, 13, 15-18, 21-27, 29, 30, 32-35, 37, 38, 40, 41, 43,
                  44, 46-48
    3    7 N      11, 49
    4    8 O      19, 20

molecular fragmentation (1/2 indicates fragments):
1111111111111111111222211111111111222222222222222
# atoms in fragment 1/2:    30    19
 fragment masses (1/2) :      179.26       91.15
CMA distance (Bohr)    :   6.768
constraining FC (au)   :  0.0500
########################################################################
[WARNING] Please study the warnings concerning your input carefully
[...]
  28:       242.86    0.000000  (  0.000000   0.000000   0.000000)
  29:       284.17    0.000000  (  0.000000   0.000000   0.000000)
  30:       335.42    0.000000  (  0.000000   0.000000   0.000000)
  31:       361.13    0.000000  (  0.000000   0.000000   0.000000)
  32:       367.93    0.000000  (  0.000000   0.000000   0.000000)
  33:       398.06    0.000000  (  0.000000   0.000000   0.000000)
  34:       402.29    0.000000  (  0.000000   0.000000   0.000000)
  35:       419.08    0.000000  (  0.000000   0.000000   0.000000)
  36:       438.91    0.000000  (  0.000000   0.000000   0.000000)
  37:       445.68    0.000000  (  0.000000   0.000000   0.000000)
  38:       489.95    0.000000  (  0.000000   0.000000   0.000000)
  39:       539.50    0.000000  (  0.000000   0.000000   0.000000)
  40:       569.84    0.000000  (  0.000000   0.000000   0.000000)
  41:       588.75    0.000000  (  0.000000   0.000000   0.000000)
  42:       603.32    0.000000  (  0.000000   0.000000   0.000000)
  43:       645.26    0.000000  (  0.000000   0.000000   0.000000)
  44:       676.93    0.000000  (  0.000000   0.000000   0.000000)
  45:       758.53    0.000000  (  0.000000   0.000000   0.000000)
  46:       775.48    0.000000  (  0.000000   0.000000   0.000000)
  47:       786.55    0.000000  (  0.000000   0.000000   0.000000)
  48:       823.27    0.000000  (  0.000000   0.000000   0.000000)
  49:       826.94    0.000000  (  0.000000   0.000000   0.000000)
  50:       831.83    0.000000  (  0.000000   0.000000   0.000000)
  51:       850.06    0.000000  (  0.000000   0.000000   0.000000)
  52:       882.73    0.000000  (  0.000000   0.000000   0.000000)
  53:       904.44    0.000000  (  0.000000   0.000000   0.000000)
  54:       909.75    0.000000  (  0.000000   0.000000   0.000000)
  55:       932.17    0.000000  (  0.000000   0.000000   0.000000)
  56:       932.96    0.000000  (  0.000000   0.000000   0.000000)
  57:       935.81    0.000000  (  0.000000   0.000000   0.000000)
  58:       941.75    0.000000  (  0.000000   0.000000   0.000000)
  59:       944.16    0.000000  (  0.000000   0.000000   0.000000)
  60:       952.68    0.000000  (  0.000000   0.000000   0.000000)
  61:       983.62    0.000000  (  0.000000   0.000000   0.000000)
  62:      1007.87    0.000000  (  0.000000   0.000000   0.000000)
  63:      1024.55    0.000000  (  0.000000   0.000000   0.000000)
  64:      1036.79    0.000000  (  0.000000   0.000000   0.000000)
  65:      1079.53    0.000000  (  0.000000   0.000000   0.000000)
  66:      1081.65    0.000000  (  0.000000   0.000000   0.000000)
  67:      1083.85    0.000000  (  0.000000   0.000000   0.000000)
  68:      1100.36    0.000000  (  0.000000   0.000000   0.000000)
  69:      1107.39    0.000000  (  0.000000   0.000000   0.000000)
  70:      1114.99    0.000000  (  0.000000   0.000000   0.000000)
  71:      1120.57    0.000000  (  0.000000   0.000000   0.000000)
  72:      1123.05    0.000000  (  0.000000   0.000000   0.000000)
  73:      1123.61    0.000000  (  0.000000   0.000000   0.000000)
  74:      1165.64    0.000000  (  0.000000   0.000000   0.000000)
  75:      1176.33    0.000000  (  0.000000   0.000000   0.000000)
  76:      1181.69    0.000000  (  0.000000   0.000000   0.000000)
  77:      1182.63    0.000000  (  0.000000   0.000000   0.000000)
  78:      1191.84    0.000000  (  0.000000   0.000000   0.000000)
  79:      1201.57    0.000000  (  0.000000   0.000000   0.000000)
  80:      1203.57    0.000000  (  0.000000   0.000000   0.000000)
  81:      1219.12    0.000000  (  0.000000   0.000000   0.000000)
  82:      1240.76    0.000000  (  0.000000   0.000000   0.000000)
  83:      1269.00    0.000000  (  0.000000   0.000000   0.000000)
  84:      1274.50    0.000000  (  0.000000   0.000000   0.000000)
  85:      1276.08    0.000000  (  0.000000   0.000000   0.000000)
  86:      1278.68    0.000000  (  0.000000   0.000000   0.000000)
  87:      1279.00    0.000000  (  0.000000   0.000000   0.000000)
  88:      1280.58    0.000000  (  0.000000   0.000000   0.000000)
  89:      1290.84    0.000000  (  0.000000   0.000000   0.000000)
  90:      1297.84    0.000000  (  0.000000   0.000000   0.000000)
  91:      1316.23    0.000000  (  0.000000   0.000000   0.000000)
  92:      1346.89    0.000000  (  0.000000   0.000000   0.000000)
  93:      1352.18    0.000000  (  0.000000   0.000000   0.000000)
  94:      1356.61    0.000000  (  0.000000   0.000000   0.000000)
  95:      1370.78    0.000000  (  0.000000   0.000000   0.000000)
  96:      1374.23    0.000000  (  0.000000   0.000000   0.000000)
  97:      1394.30    0.000000  (  0.000000   0.000000   0.000000)
  98:      1412.18    0.000000  (  0.000000   0.000000   0.000000)
  99:      1414.58    0.000000  (  0.000000   0.000000   0.000000)
 100:      1439.18    0.000000  (  0.000000   0.000000   0.000000)
 101:      1465.07    0.000000  (  0.000000   0.000000   0.000000)
 102:      1468.40    0.000000  (  0.000000   0.000000   0.000000)
 103:      1474.28    0.000000  (  0.000000   0.000000   0.000000)
 104:      1489.93    0.000000  (  0.000000   0.000000   0.000000)
 105:      1491.60    0.000000  (  0.000000   0.000000   0.000000)
 106:      1494.54    0.000000  (  0.000000   0.000000   0.000000)
 107:      1497.03    0.000000  (  0.000000   0.000000   0.000000)
 108:      1497.57    0.000000  (  0.000000   0.000000   0.000000)
 109:      1498.50    0.000000  (  0.000000   0.000000   0.000000)
 110:      1500.23    0.000000  (  0.000000   0.000000   0.000000)
 111:      1501.02    0.000000  (  0.000000   0.000000   0.000000)
 112:      1505.17    0.000000  (  0.000000   0.000000   0.000000)
 113:      1529.03    0.000000  (  0.000000   0.000000   0.000000)
 114:      1569.07    0.000000  (  0.000000   0.000000   0.000000)
 115:      1590.70    0.000000  (  0.000000   0.000000   0.000000)
 116:      1596.93    0.000000  (  0.000000   0.000000   0.000000)
 117:      2412.89    0.000000  (  0.000000   0.000000   0.000000)
 118:      2615.07    0.000000  (  0.000000   0.000000   0.000000)
 119:      2696.00    0.000000  (  0.000000   0.000000   0.000000)
 120:      2885.25    0.000000  (  0.000000   0.000000   0.000000)
 121:      2930.25    0.000000  (  0.000000   0.000000   0.000000)
 122:      2957.90    0.000000  (  0.000000   0.000000   0.000000)
 123:      2960.17    0.000000  (  0.000000   0.000000   0.000000)
 124:      2964.50    0.000000  (  0.000000   0.000000   0.000000)
 125:      2969.93    0.000000  (  0.000000   0.000000   0.000000)
 126:      2976.38    0.000000  (  0.000000   0.000000   0.000000)
 127:      2979.97    0.000000  (  0.000000   0.000000   0.000000)
 128:      2980.83    0.000000  (  0.000000   0.000000   0.000000)
 129:      2985.52    0.000000  (  0.000000   0.000000   0.000000)
 130:      2990.30    0.000000  (  0.000000   0.000000   0.000000)
 131:      3012.43    0.000000  (  0.000000   0.000000   0.000000)
 132:      3028.22    0.000000  (  0.000000   0.000000   0.000000)
 133:      3029.37    0.000000  (  0.000000   0.000000   0.000000)
 134:      3032.03    0.000000  (  0.000000   0.000000   0.000000)
 135:      3032.60    0.000000  (  0.000000   0.000000   0.000000)
 136:      3038.08    0.000000  (  0.000000   0.000000   0.000000)
 137:      3038.85    0.000000  (  0.000000   0.000000   0.000000)
 138:      3051.68    0.000000  (  0.000000   0.000000   0.000000)
 139:      3074.29    0.000000  (  0.000000   0.000000   0.000000)
 140:      3078.29    0.000000  (  0.000000   0.000000   0.000000)
 141:      3089.79    0.000000  (  0.000000   0.000000   0.000000)
 142:      3104.89    0.000000  (  0.000000   0.000000   0.000000)
 143:      3288.10    0.000000  (  0.000000   0.000000   0.000000)
 144:      3324.90    0.000000  (  0.000000   0.000000   0.000000)
 145:      3384.84    0.000000  (  0.000000   0.000000   0.000000)
 146:      3647.40    0.000000  (  0.000000   0.000000   0.000000)

The first frequency considered to be a vibration is 6
The total number of vibrations considered is 141


--------------------------
THERMOCHEMISTRY AT 298.15K
--------------------------

Temperature         ... 298.15 K
Pressure            ... 1.00 atm
Total Mass          ... 270.42 AMU

Throughout the following assumptions are being made:
  (1) The electronic state is orbitally nondegenerate
  (2) There are no thermally accessible electronically excited states
  (3) Hindered rotations indicated by low frequency modes are not
      treated as such but are treated as vibrations and this may
      cause some error
  (4) All equations used are the standard statistical mechanics
      equations for an ideal gas
  (5) All vibrations are strictly harmonic

freq.      12.04  E(vib)   ...       0.58 
freq.      27.01  E(vib)   ...       0.55 
freq.      30.70  E(vib)   ...       0.55 
freq.      37.25  E(vib)   ...       0.54 
freq.      50.69  E(vib)   ...       0.52 
freq.      54.62  E(vib)   ...       0.52 
freq.      58.83  E(vib)   ...       0.51 
freq.      72.36  E(vib)   ...       0.50 
freq.      86.50  E(vib)   ...       0.48 
freq.      92.35  E(vib)   ...       0.47 
freq.      98.13  E(vib)   ...       0.46 
freq.     110.75  E(vib)   ...       0.45 
freq.     130.77  E(vib)   ...       0.43 
freq.     136.99  E(vib)   ...       0.42 
freq.     152.34  E(vib)   ...       0.40 
freq.     177.03  E(vib)   ...       0.38 
freq.     177.73  E(vib)   ...       0.37 
freq.     191.15  E(vib)   ...       0.36 
freq.     217.58  E(vib)   ...       0.33 
freq.     227.51  E(vib)   ...       0.33 
freq.     233.03  E(vib)   ...       0.32 
freq.     241.44  E(vib)   ...       0.31 
freq.     242.86  E(vib)   ...       0.31 
freq.     284.17  E(vib)   ...       0.28 
freq.     335.42  E(vib)   ...       0.24 
freq.     361.13  E(vib)   ...       0.22 
freq.     367.93  E(vib)   ...       0.21 
freq.     398.06  E(vib)   ...       0.20 
freq.     402.29  E(vib)   ...       0.19 
freq.     419.08  E(vib)   ...       0.18 
freq.     438.91  E(vib)   ...       0.17 
freq.     445.68  E(vib)   ...       0.17 
freq.     489.95  E(vib)   ...       0.15 
freq.     539.50  E(vib)   ...       0.12 
freq.     569.84  E(vib)   ...       0.11 
freq.     588.75  E(vib)   ...       0.10 
freq.     603.32  E(vib)   ...       0.10 
freq.     645.26  E(vib)   ...       0.09 
freq.     676.93  E(vib)   ...       0.08 
freq.     758.53  E(vib)   ...       0.06 
freq.     775.48  E(vib)   ...       0.05 
freq.     786.55  E(vib)   ...       0.05 
freq.     823.27  E(vib)   ...       0.05 
freq.     826.94  E(vib)   ...       0.04 
freq.     831.83  E(vib)   ...       0.04 
freq.     850.06  E(vib)   ...       0.04 
freq.     882.73  E(vib)   ...       0.04 
freq.     904.44  E(vib)   ...       0.03 
freq.     909.75  E(vib)   ...       0.03 
freq.     932.17  E(vib)   ...       0.03 
freq.     932.96  E(vib)   ...       0.03 
freq.     935.81  E(vib)   ...       0.03 
freq.     941.75  E(vib)   ...       0.03 
freq.     944.16  E(vib)   ...       0.03 
freq.     952.68  E(vib)   ...       0.03 
freq.     983.62  E(vib)   ...       0.02 
freq.    1007.87  E(vib)   ...       0.02 
freq.    1024.55  E(vib)   ...       0.02 
freq.    1036.79  E(vib)   ...       0.02 
freq.    1079.53  E(vib)   ...       0.02 
freq.    1081.65  E(vib)   ...       0.02 
freq.    1083.85  E(vib)   ...       0.02 
freq.    1100.36  E(vib)   ...       0.02 
freq.    1107.39  E(vib)   ...       0.02 
freq.    1114.99  E(vib)   ...       0.01 
freq.    1120.57  E(vib)   ...       0.01 
freq.    1123.05  E(vib)   ...       0.01 
freq.    1123.61  E(vib)   ...       0.01 
freq.    1165.64  E(vib)   ...       0.01 
freq.    1176.33  E(vib)   ...       0.01 
freq.    1181.69  E(vib)   ...       0.01 
freq.    1182.63  E(vib)   ...       0.01 
freq.    1191.84  E(vib)   ...       0.01 
freq.    1201.57  E(vib)   ...       0.01 
freq.    1203.57  E(vib)   ...       0.01 
freq.    1219.12  E(vib)   ...       0.01 
freq.    1240.76  E(vib)   ...       0.01 
freq.    1269.00  E(vib)   ...       0.01 
freq.    1274.50  E(vib)   ...       0.01 
freq.    1276.08  E(vib)   ...       0.01 
freq.    1278.68  E(vib)   ...       0.01 
freq.    1279.00  E(vib)   ...       0.01 
freq.    1280.58  E(vib)   ...       0.01 
freq.    1290.84  E(vib)   ...       0.01 
freq.    1297.84  E(vib)   ...       0.01 
freq.    1316.23  E(vib)   ...       0.01 
freq.    1346.89  E(vib)   ...       0.01 
freq.    1352.18  E(vib)   ...       0.01 
freq.    1356.61  E(vib)   ...       0.01 
freq.    1370.78  E(vib)   ...       0.01 
freq.    1374.23  E(vib)   ...       0.01 
freq.    1394.30  E(vib)   ...       0.00 
freq.    1412.18  E(vib)   ...       0.00 
freq.    1414.58  E(vib)   ...       0.00 
freq.    1439.18  E(vib)   ...       0.00 
freq.    1465.07  E(vib)   ...       0.00 
freq.    1468.40  E(vib)   ...       0.00 
freq.    1474.28  E(vib)   ...       0.00 
freq.    1489.93  E(vib)   ...       0.00 
freq.    1491.60  E(vib)   ...       0.00 
freq.    1494.54  E(vib)   ...       0.00 
freq.    1497.03  E(vib)   ...       0.00 
freq.    1497.57  E(vib)   ...       0.00 
freq.    1498.50  E(vib)   ...       0.00 
freq.    1500.23  E(vib)   ...       0.00 
freq.    1501.02  E(vib)   ...       0.00 
freq.    1505.17  E(vib)   ...       0.00 
freq.    1529.03  E(vib)   ...       0.00 
freq.    1569.07  E(vib)   ...       0.00 
freq.    1590.70  E(vib)   ...       0.00 
freq.    1596.93  E(vib)   ...       0.00 
freq.    2412.89  E(vib)   ...       0.00 
freq.    2615.07  E(vib)   ...       0.00 
freq.    2696.00  E(vib)   ...       0.00 
freq.    2885.25  E(vib)   ...       0.00 
freq.    2930.25  E(vib)   ...       0.00 
freq.    2957.90  E(vib)   ...       0.00 
freq.    2960.17  E(vib)   ...       0.00 
freq.    2964.50  E(vib)   ...       0.00 
freq.    2969.93  E(vib)   ...       0.00 
freq.    2976.38  E(vib)   ...       0.00 
freq.    2979.97  E(vib)   ...       0.00 
freq.    2980.83  E(vib)   ...       0.00 
freq.    2985.52  E(vib)   ...       0.00 
freq.    2990.30  E(vib)   ...       0.00 
freq.    3012.43  E(vib)   ...       0.00 
freq.    3028.22  E(vib)   ...       0.00 
freq.    3029.37  E(vib)   ...       0.00 
freq.    3032.03  E(vib)   ...       0.00 
freq.    3032.60  E(vib)   ...       0.00 
freq.    3038.08  E(vib)   ...       0.00 
freq.    3038.85  E(vib)   ...       0.00 
freq.    3051.68  E(vib)   ...       0.00 
freq.    3074.29  E(vib)   ...       0.00 
freq.    3078.29  E(vib)   ...       0.00 
freq.    3089.79  E(vib)   ...       0.00 
freq.    3104.89  E(vib)   ...       0.00 
freq.    3288.10  E(vib)   ...       0.00 
freq.    3324.90  E(vib)   ...       0.00 
freq.    3384.84  E(vib)   ...       0.00 
freq.    3647.40  E(vib)   ...       0.00 

------------
INNER ENERGY
------------

The inner energy is: U= E(el) + E(ZPE) + E(vib) + E(rot) + E(trans)
    E(el)   - is the total energy from the electronic structure calculation
              = E(kin-el) + E(nuc-el) + E(el-el) + E(nuc-nuc)
    E(ZPE)  - the the zero temperature vibrational energy from the frequency calculation
    E(vib)  - the the finite temperature correction to E(ZPE) due to population
              of excited vibrational states
    E(rot)  - is the rotational thermal energy
    E(trans)- is the translational thermal energy

Summary of contributions to the inner energy U:
Electronic energy                ...    -61.38140421 Eh
Zero point energy                ...      0.42811204 Eh     268.64 kcal/mol
Thermal vibrational correction   ...      0.02197503 Eh      13.79 kcal/mol
Thermal rotational correction    ...      0.00141627 Eh       0.89 kcal/mol
Thermal translational correction ...      0.00141627 Eh       0.89 kcal/mol
-----------------------------------------------------------------------
Total thermal energy                    -60.92848460 Eh


Summary of corrections to the electronic energy:
(perhaps to be used in another calculation)
Total thermal correction                  0.02480757 Eh      15.57 kcal/mol
Non-thermal (ZPE) correction              0.42811204 Eh     268.64 kcal/mol
-----------------------------------------------------------------------
Total correction                          0.45291961 Eh     284.21 kcal/mol


--------
ENTHALPY
--------

The enthalpy is H = U + kB*T
                kB is Boltzmann's constant
Total free energy                 ...    -60.92848460 Eh 
Thermal Enthalpy correction       ...      0.00094421 Eh       0.59 kcal/mol
-----------------------------------------------------------------------
Total Enthalpy                    ...    -60.92754039 Eh


Note: Only C1 symmetry has been detected, increase convergence thresholds 
      if your molecule has a higher symmetry. Symmetry factor of 1.0 is   
      used for the rotational entropy correction. 
 

Note: Rotational entropy computed according to Herzberg 
Infrared and Raman Spectra, Chapter V,1, Van Nostrand Reinhold, 1945 
Point Group:  C1, Symmetry Number:   1  
Rotational constants in cm-1:     0.012526     0.007205     0.005826 

Vibrational entropy computed according to the QRRHO of S. Grimme
Chem.Eur.J. 2012 18 9955


-------
ENTROPY
-------

The entropy contributions are T*S = T*(S(el)+S(vib)+S(rot)+S(trans))
     S(el)   - electronic entropy
     S(vib)  - vibrational entropy
     S(rot)  - rotational entropy
     S(trans)- translational entropy
The entropies will be listed as mutliplied by the temperature to get
units of energy

Electronic entropy                ...      0.00000000 Eh      0.00 kcal/mol
Vibrational entropy               ...      0.04064418 Eh     25.50 kcal/mol
Rotational entropy                ...      0.01633648 Eh     10.25 kcal/mol
Translational entropy             ...      0.02028014 Eh     12.73 kcal/mol
-----------------------------------------------------------------------
Final entropy term                ...      0.07726080 Eh     48.48 kcal/mol

In case the symmetry of your molecule has not been determined correctly
or in case you have a reason to use a different symmetry number we print 
out the resulting rotational entropy values for sn=1,12 :
 --------------------------------------------------------
|  sn= 1 | S(rot)=       0.01633648 Eh     10.25 kcal/mol|
|  sn= 2 | S(rot)=       0.01568202 Eh      9.84 kcal/mol|
|  sn= 3 | S(rot)=       0.01529919 Eh      9.60 kcal/mol|
|  sn= 4 | S(rot)=       0.01502756 Eh      9.43 kcal/mol|
|  sn= 5 | S(rot)=       0.01481688 Eh      9.30 kcal/mol|
|  sn= 6 | S(rot)=       0.01464473 Eh      9.19 kcal/mol|
|  sn= 7 | S(rot)=       0.01449918 Eh      9.10 kcal/mol|
|  sn= 8 | S(rot)=       0.01437311 Eh      9.02 kcal/mol|
|  sn= 9 | S(rot)=       0.01426190 Eh      8.95 kcal/mol|
|  sn=10 | S(rot)=       0.01416242 Eh      8.89 kcal/mol|
|  sn=11 | S(rot)=       0.01407243 Eh      8.83 kcal/mol|
|  sn=12 | S(rot)=       0.01399027 Eh      8.78 kcal/mol|
 --------------------------------------------------------


-------------------
GIBBS FREE ENERGY
-------------------

The Gibbs free energy is G = H - T*S

Total enthalpy                    ...    -60.92754039 Eh 
Total entropy correction          ...     -0.07726080 Eh    -48.48 kcal/mol
-----------------------------------------------------------------------
Final Gibbs free energy         ...    -61.00480119 Eh

For completeness - the Gibbs free energy minus the electronic energy
G-E(el)                           ...      0.37660302 Eh    236.32 kcal/mol


Total Time for Numerical Frequencies  :       159.432 sec

Timings for individual modules:

Sum of individual times         ...        4.059 sec (=   0.068 min)
Geometry relaxation             ...        2.469 sec (=   0.041 min)  60.8 %
XTB module                      ...        1.590 sec (=   0.026 min)  39.2 %
                             ****ORCA TERMINATED NORMALLY****
TOTAL RUN TIME: 0 days 0 hours 2 minutes 46 seconds 14 msec
