17
Energy (POTENTIAL) = -422.195334037 Eh
C  -2.0892  -1.0248   -0.0772
C  -0.7263  -0.7732   0.0464
C  -0.2784  0.5332    0.1900
C  -1.1939  1.5892    0.2097
C  -2.5643  1.3298    0.0852
C  -3.0076  0.0262    -0.0577
H  -2.4403  -2.0423   -0.1895
H  0.7797   0.7428    0.2874
H  -3.2612  2.1566    0.1017
C  -0.6940  2.9585    0.3616
H  0.4020   3.0547    0.4446
O  -1.3982  3.9552    0.3985
O  0.4603   6.0529    0.8034
H  0.5981   6.0141    1.7561
H  -0.2708  5.4310    0.6438
H  -0.0189  -1.5912   0.0306
H  -4.0652  -0.1796   -0.1543
