20
Energy (POTENTIAL) = -498.672725819 Eh
C   -0.6293    0.5136    -0.8906
C   -1.4201    1.5976    -0.4947
C   -2.5849    1.3841    0.2293
C   -2.9612    0.0864    0.5618
C   -2.1752    -0.9990   0.1722
C   -1.0137    -0.7906   -0.5518
C   0.5897     0.7864    -1.6578
H   -1.1168    2.6033    -0.7585
H   -0.4010    -1.6279   -0.8551
H   -3.8683    -0.0830   1.1270
O   1.3642     -0.0500   -2.0947
O   1.3752     -2.8320   -2.1385
H   1.3805     -1.8550   -2.1369
H   0.8937     -3.0811   -2.9362
O   3.9736     -3.9136   -1.9369
H   3.0795     -3.5411   -2.0413
H   4.0096     -4.1807   -1.0123
H   0.7938     1.8554    -1.8383
H   -3.1966    2.2223    0.5339
H   -2.4737    -2.0044   0.4369
