
                                 *****************
                                 * O   R   C   A *
                                 *****************

           --- An Ab Initio, DFT and Semiempirical electronic structure package ---

                  #######################################################
                  #                        -***-                        #
                  #          Department of theory and spectroscopy      #
                  #               Directorship: Frank Neese             #
                  #        Max Planck Institute fuer Kohlenforschung    #
                  #                Kaiser Wilhelm Platz 1               #
                  #                 D-45470 Muelheim/Ruhr               #
                  #                      Germany                        #
                  #                                                     #
                  #                  All rights reserved                #
                  #                        -***-                        #
                  #######################################################


                         Program Version 4.2.1 -  RELEASE  -


 With contributions from (in alphabetic order):
   Daniel Aravena         : Magnetic Suceptibility
   Michael Atanasov       : Ab Initio Ligand Field Theory (pilot matlab implementation)
   Alexander A. Auer      : GIAO ZORA, VPT2
   Ute Becker             : Parallelization
   Giovanni Bistoni       : ED, misc. LED, open-shell LED, HFLD
   Martin Brehm           : Molecular dynamics
   Dmytro Bykov           : SCF Hessian
   Vijay G. Chilkuri      : MRCI spin determinant printing, contributions to CSF-ICE
   Dipayan Datta          : RHF DLPNO-CCSD density
   Achintya Kumar Dutta   : EOM-CC, STEOM-CC
   Dmitry Ganyushin       : Spin-Orbit,Spin-Spin,Magnetic field MRCI
   Miquel Garcia          : C-PCM Hessian, Gaussian charge scheme
   Yang Guo               : DLPNO-NEVPT2, CIM, IAO-localization
   Andreas Hansen         : Spin unrestricted coupled pair/coupled cluster methods
   Benjamin Helmich-Paris : CASSCF linear response (MC-RPA)
   Lee Huntington         : MR-EOM, pCC
   Robert Izsak           : Overlap fitted RIJCOSX, COSX-SCS-MP3, EOM
   Christian Kollmar      : KDIIS, OOCD, Brueckner-CCSD(T), CCSD density
   Simone Kossmann        : Meta GGA functionals, TD-DFT gradient, OOMP2, MP2 Hessian
   Martin Krupicka        : AUTO-CI
   Lucas Lang             : DCDCAS
   Dagmar Lenk            : GEPOL surface, SMD
   Dimitrios Liakos       : Extrapolation schemes; Compound Job, initial MDCI parallelization
   Dimitrios Manganas     : Further ROCIS development; embedding schemes
   Dimitrios Pantazis     : SARC Basis sets
   Taras Petrenko         : DFT Hessian,TD-DFT gradient, ASA, ECA, R-Raman, ABS, FL, XAS/XES, NRVS
   Peter Pinski           : DLPNO-MP2, DLPNO-MP2 Gradient
   Christoph Reimann      : Effective Core Potentials
   Marius Retegan         : Local ZFS, SOC
   Christoph Riplinger    : Optimizer, TS searches, QM/MM, DLPNO-CCSD(T), (RO)-DLPNO pert. Triples
   Tobias Risthaus        : Range-separated hybrids, TD-DFT gradient, RPA, STAB
   Michael Roemelt        : Original ROCIS implementation
   Masaaki Saitow         : Open-shell DLPNO-CCSD energy and density
   Barbara Sandhoefer     : DKH picture change effects
   Avijit Sen             : IP-ROCIS
   Kantharuban Sivalingam : CASSCF convergence, NEVPT2, FIC-MRCI
   Bernardo de Souza      : ESD, SOC TD-DFT
   Georgi Stoychev        : AutoAux, RI-MP2 NMR
   Willem Van den Heuvel  : Paramagnetic NMR
   Boris Wezisla          : Elementary symmetry handling
   Frank Wennmohs         : Technical directorship


 We gratefully acknowledge several colleagues who have allowed us to
 interface, adapt or use parts of their codes:
   Stefan Grimme, W. Hujo, H. Kruse,             : VdW corrections, initial TS optimization,
                  C. Bannwarth                     DFT functionals, gCP, sTDA/sTD-DF
   Ed Valeev, F. Pavosevic, A. Kumar             : LibInt (2-el integral package), F12 methods
   Garnet Chan, S. Sharma, J. Yang, R. Olivares  : DMRG
   Ulf Ekstrom                                   : XCFun DFT Library
   Mihaly Kallay                                 : mrcc  (arbitrary order and MRCC methods)
   Andreas Klamt, Michael Diedenhofen            : otool_cosmo (COSMO solvation model)
   Jiri Pittner, Ondrej Demel                    : Mk-CCSD
   Frank Weinhold                                : gennbo (NPA and NBO analysis)
   Christopher J. Cramer and Donald G. Truhlar   : smd solvation model
   Lars Goerigk                                  : TD-DFT with DH, B97 family of functionals
   V. Asgeirsson, H. Jonsson                     : NEB implementation
   FAccTs GmbH                                   : IRC, NEB, NEB-TS, Multilevel, MM, QM/MM, CI optimization
   S Lehtola, MJT Oliveira, MAL Marques          : LibXC Library


 Your calculation uses the libint2 library for the computation of 2-el integrals
 For citations please refer to: http://libint.valeyev.net

 Your ORCA version has been built with support for libXC version: 4.2.3
 For citations please refer to: https://tddft.org/programs/libxc/

 This ORCA versions uses:
   CBLAS   interface :  Fast vector & matrix operations
   LAPACKE interface :  Fast linear algebra routines
   SCALAPACK package :  Parallel linear algebra routines




***************************************
The coordinates will be read from file: init.xyz
***************************************


Your calculation utilizes the SMD solvation module
Please cite in your paper:
A.V. Marenich, C.J. Cramer, D.G. Truhlar J. Phys. Chem. B, 113, (2009), 6378 

Your calculation utilizes the semiempirical GFN2-xTB method
Please cite in your paper:
C. Bannwarth, Ehlert S., S. Grimme,  J. Chem. Theory Comput., 15, (2019), 1652.
   

----- Orbital basis set information -----
Your calculation utilizes the basis: def2-SVP
   F. Weigend and R. Ahlrichs, Phys. Chem. Chem. Phys. 7, 3297 (2005).

================================================================================
                                        WARNINGS
                       Please study these warnings very carefully!
================================================================================


WARNING: The environment variable RSH_COMMAND is not set!
  ===> : All Displacements for the Numerical Hessian calculation
         will be started on localhost

WARNING: Geometry Optimization
  ===> : Switching off AutoStart
         For restart on a previous wavefunction, please use MOREAD

WARNING: Found dipole moment calculation with XTB calculation
  ===> : Switching off dipole moment calculation


INFO   : the flag for use of LIBINT has been found!

================================================================================
                                       INPUT FILE
================================================================================
NAME = opt+freq.inp
|  1> ! XTB2 Opt NumFreq
|  2> 
|  3> %cpcm
|  4>  smd true
|  5>  smdsolvent "ch2cl2"
|  6> end
|  7> 
|  8> %pal
|  9>  nprocs 12
| 10> end
| 11> 
| 12> *xyzfile 0 1 init.xyz
| 13> 
| 14> 
| 15>                          ****END OF INPUT****
================================================================================

                       *****************************
                       * Geometry Optimization Run *
                       *****************************

Geometry optimization settings:
Update method            Update   .... BFGS
Choice of coordinates    CoordSys .... Z-matrix Internals
Initial Hessian          InHess   .... Almoef's Model

Convergence Tolerances:
Energy Change            TolE     ....  5.0000e-06 Eh
Max. Gradient            TolMAXG  ....  3.0000e-04 Eh/bohr
RMS Gradient             TolRMSG  ....  1.0000e-04 Eh/bohr
Max. Displacement        TolMAXD  ....  4.0000e-03 bohr
RMS Displacement         TolRMSD  ....  2.0000e-03 bohr
Strict Convergence                ....  False
------------------------------------------------------------------------------
                        ORCA OPTIMIZATION COORDINATE SETUP
------------------------------------------------------------------------------

The optimization will be done in new redundant internal coordinates
Making redundant internal coordinates   ...  (new redundants) done
Evaluating the initial hessian          ...  (Almloef) done
Evaluating the coordinates              ...  done
Calculating the B-matrix                .... done
Calculating the G-matrix                .... done
Diagonalizing the G-matrix              .... done
The first mode is                       ....   27
The number of degrees of freedom        ....   36

    -----------------------------------------------------------------
                    Redundant Internal Coordinates


    -----------------------------------------------------------------
         Definition                    Initial Value    Approx d2E/dq
    -----------------------------------------------------------------
      1. B(C   1,C   0)                  1.3968         0.609342   
      2. B(C   2,C   1)                  1.3891         0.626868   
      3. B(C   3,C   2)                  1.3915         0.621422   
      4. B(C   4,C   3)                  1.3957         0.611942   
      5. B(C   5,C   4)                  1.3850         0.636375   
      6. B(C   5,C   0)                  1.3994         0.603500   
      7. B(H   6,C   1)                  1.0833         0.369035   
      8. B(H   7,C   2)                  1.0817         0.371232   
      9. B(H   8,C   3)                  1.0821         0.370646   
     10. B(H   9,C   4)                  1.0818         0.371164   
     11. B(H  10,C   5)                  1.0816         0.371321   
     12. B(C  11,C   0)                  1.4735         0.459696   
     13. B(O  12,C  11)                  1.2145         1.066325   
     14. B(H  13,C  11)                  1.1066         0.338841   
     15. A(C   1,C   0,C  11)          119.2441         0.410212   
     16. A(C   5,C   0,C  11)          120.8849         0.409512   
     17. A(C   1,C   0,C   5)          119.8710         0.430622   
     18. A(C   0,C   1,H   6)          119.5046         0.353338   
     19. A(C   2,C   1,H   6)          120.3649         0.355040   
     20. A(C   0,C   1,C   2)          120.1305         0.433573   
     21. A(C   3,C   2,H   7)          120.1259         0.354872   
     22. A(C   1,C   2,H   7)          120.1475         0.355397   
     23. A(C   1,C   2,C   3)          119.7266         0.435107   
     24. A(C   2,C   3,C   4)          120.3812         0.433224   
     25. A(C   4,C   3,H   8)          119.7763         0.353853   
     26. A(C   2,C   3,H   8)          119.8425         0.354777   
     27. A(C   5,C   4,H   9)          120.0959         0.356295   
     28. A(C   3,C   4,H   9)          119.9412         0.353937   
     29. A(C   3,C   4,C   5)          119.9629         0.435082   
     30. A(C   0,C   5,H  10)          119.0489         0.353131   
     31. A(C   0,C   5,C   4)          119.9277         0.433995   
     32. A(C   4,C   5,H  10)          121.0234         0.356321   
     33. A(O  12,C  11,H  13)          120.4257         0.380868   
     34. A(C   0,C  11,H  13)          114.6428         0.332258   
     35. A(C   0,C  11,O  12)          124.9315         0.450585   
     36. D(H   6,C   1,C   0,C   5)    179.9998         0.025640   
     37. D(C   2,C   1,C   0,C   5)     -0.0050         0.025640   
     38. D(C   2,C   1,C   0,C  11)    179.9980         0.025640   
     39. D(H   6,C   1,C   0,C  11)      0.0028         0.025640   
     40. D(C   3,C   2,C   1,C   0)      0.0048         0.027229   
     41. D(C   3,C   2,C   1,H   6)    179.9999         0.027229   
     42. D(H   7,C   2,C   1,H   6)     -0.0057         0.027229   
     43. D(H   7,C   2,C   1,C   0)    179.9992         0.027229   
     44. D(H   8,C   3,C   2,H   7)      0.0000         0.026729   
     45. D(H   8,C   3,C   2,C   1)    179.9945         0.026729   
     46. D(C   4,C   3,C   2,H   7)   -179.9943         0.026729   
     47. D(C   4,C   3,C   2,C   1)      0.0001         0.026729   
     48. D(H   9,C   4,C   3,C   2)   -179.9939         0.025872   
     49. D(C   5,C   4,C   3,H   8)   -179.9991         0.025872   
     50. D(C   5,C   4,C   3,C   2)     -0.0048         0.025872   
     51. D(H   9,C   4,C   3,H   8)      0.0117         0.025872   
     52. D(H  10,C   5,C   4,H   9)     -0.0047         0.028116   
     53. D(C   0,C   5,C   4,H   9)    179.9936         0.028116   
     54. D(C   0,C   5,C   4,C   3)      0.0045         0.028116   
     55. D(H  10,C   5,C   0,C  11)     -0.0044         0.025124   
     56. D(H  10,C   5,C   0,C   1)    179.9987         0.025124   
     57. D(H  10,C   5,C   4,C   3)   -179.9938         0.028116   
     58. D(C   4,C   5,C   0,C  11)    179.9973         0.025124   
     59. D(C   4,C   5,C   0,C   1)      0.0004         0.025124   
     60. D(H  13,C  11,C   0,C   5)   -179.9719         0.014395   
     61. D(H  13,C  11,C   0,C   1)      0.0251         0.014395   
     62. D(O  12,C  11,C   0,C   5)     -0.0292         0.014395   
     63. D(O  12,C  11,C   0,C   1)    179.9677         0.014395   
    -----------------------------------------------------------------

Number of atoms                         .... 14
Number of degrees of freedom            .... 63

         *************************************************************
         *                GEOMETRY OPTIMIZATION CYCLE   1            *
         *************************************************************
      -----------------------------------------------------------      
     |                   =====================                   |     
     |                           x T B                           |     
     |                   =====================                   |     
     |                         S. Grimme                         |     
     |          Mulliken Center for Theoretical Chemistry        |     
     |                    University of Bonn                     |     
      -----------------------------------------------------------      

   * xtb version 6.3.0 (49875a8) compiled by 'schneider@apollo14' on 2020-05-23

   xtb is free software: you can redistribute it and/or modify it under
   the terms of the GNU Lesser General Public License as published by
   the Free Software Foundation, either version 3 of the License, or
   (at your option) any later version.
   
   xtb is distributed in the hope that it will be useful,
   but WITHOUT ANY WARRANTY; without even the implied warranty of
   MERCHANTABILITY or FITNESS FOR A PARTICULAR PURPOSE.  See the
   GNU Lesser General Public License for more details.
   
   Cite this work as:
   * S. Grimme, C. Bannwarth, P. Shushkov, J. Chem. Theory Comput., 2017,
     13, 1989-2009. DOI: 10.1021/acs.jctc.7b00118
   * C. Bannwarth, S. Ehlert and S. Grimme., J. Chem. Theory Comput., 2019,
     15, 1652-1671. DOI: 10.1021/acs.jctc.8b01176
   * P. Pracht, E. Caldeweyher, S. Ehlert, S. Grimme, ChemRxiv, 2019, preprint.
     DOI: 10.26434/chemrxiv.8326202.v1
   
   for GFN-FF:
   * S. Spicher and S. Grimme, Angew. Chem. Int. Ed., 2020,
     DOI: 10.1002/anie.202004239
   
   for DFT-D4:
   * E. Caldeweyher, C. Bannwarth and S. Grimme, J. Chem. Phys., 2017,
     147, 034112. DOI: 10.1063/1.4993215
   * E. Caldeweyher, S. Ehlert, A. Hansen, H. Neugebauer, S. Spicher,
     C. Bannwarth and S. Grimme, J. Chem. Phys., 2019, 150, 154122.
     DOI: 10.1063/1.5090222
   
   for sTDA-xTB:
   * S. Grimme and C. Bannwarth, J. Chem. Phys., 2016, 145, 054103.
     DOI: 10.1063/1.4959605
   
   in the mass-spec context:
   * V. Asgeirsson, C. Bauer and S. Grimme, Chem. Sci., 2017, 8, 4879.
     DOI: 10.1039/c7sc00601b
   * J. Koopman and S. Grimme, ACS Omega 2019, 4, 12, 15120-15133.
     DOI: 10.1021/acsomega.9b02011
   
   for metadynamics refer to:
   * S. Grimme, J. Chem. Theory Comput., 2019, 155, 2847-2862
     DOI: 10.1021/acs.jctc.9b00143
   
   with help from (in alphabetical order)
   C. Bannwarth, F. Bohle, G. Brandenburg, E. Caldeweyher, M. Checinski,
   S. Dohm, S. Ehlert, S. Ehrlich, F. März, H. Neugebauer, J. Pisarek,
   P. Pracht, P. Shushkov, and S. Spicher.
   
 * started run on 2020/06/19 at 15:32:39.855     

           -------------------------------------------------
          |                Calculation Setup                |
           -------------------------------------------------

          program call               : /opt/orca/otool_xtb opt+freq_XTB.xyz --grad -c 0 -u 0 -P 12 --namespace opt+freq --gbsa CH2Cl2
          calculation namespace      : opt+freq
          coordinate file            : opt+freq_XTB.xyz
          number of atoms            :                    14
          number of electrons        :                    40
          charge                     :                     0
          spin                       :                   0.0
          first test random number   :      0.04408885414759

   ID    Z sym.   atoms
    1    6 C      1-6, 12
    2    1 H      7-11, 14
    3    8 O      13
########################################################################
[WARNING] Please study the warnings concerning your input carefully
-1- prog_main_parseArguments: Process number higher than OMP_NUM_THREADS, I hope you know what you are doing.
########################################################################
 Solvent             : CH2Cl2
 Using internal parameter file: .param_gbsa2_CH2Cl2
 Gsolv ref. state (COSMO-RS): gsolv [1 M gas/solution]
 temperature (mdtemp)       :    298.14999999999998     
 dielectric constant        :    8.9299999999999997     
 rho                        :    1.3300000000000003     
 mass                       :    84.930000000000007     
 surface tension            :    15.568945408385856     
 probe radius               :   0.71987590000000001     
 Gshift (Eh)                :    4.4408291734517593E-003
 c1                         :    1.4917377599999999     
 soset                      :    0.0000000000000000     
 HB correction              :  F

           -------------------------------------------------
          |                 G F N 2 - x T B                 |
           -------------------------------------------------

        Reference                      10.1021/acs.jctc.8b01176
      * Hamiltonian:
        H0-scaling (s, p, d)           1.850000    2.230000    2.230000
        zeta-weighting                 0.500000
      * Dispersion:
        s8                             2.700000
        a1                             0.520000
        a2                             5.000000
        s9                             5.000000
      * Repulsion:
        kExp                           1.500000    1.000000
        rExp                           1.000000
      * Coulomb:
        alpha                          2.000000
        third order                    shell-resolved
        anisotropic                    true
        a3                             3.000000
        a5                             4.000000
        cn-shift                       1.200000
        cn-exp                         4.000000
        max-rad                        5.000000


          ...................................................
          :                      SETUP                      :
          :.................................................:
          :  # basis functions                  38          :
          :  # atomic orbitals                  38          :
          :  # shells                           22          :
          :  # electrons                        40          :
          :  max. iterations                   250          :
          :  Hamiltonian                  GFN2-xTB          :
          :  restarted?                      false          :
          :  GBSA solvation                   true          :
          :  PC potential                    false          :
          :  electronic temp.          300.0000000     K    :
          :  accuracy                    1.0000000          :
          :  -> integral cutoff          0.2500000E+02      :
          :  -> integral neglect         0.1000000E-07      :
          :  -> SCF convergence          0.1000000E-05 Eh   :
          :  -> wf. convergence          0.1000000E-03 e    :
          :  Broyden damping             0.4000000          :
          ...................................................

 iter      E             dE          RMSdq      gap      omega  full diag
   1    -22.3913667 -0.223914E+02  0.588E+00    3.38       0.0  T
   2    -22.4275735 -0.362068E-01  0.317E+00    2.90       1.0  T
   3    -22.4257977  0.177576E-02  0.150E+00    3.11       1.0  T
   4    -22.4317295 -0.593177E-02  0.186E-01    2.95       1.0  T
   5    -22.4319996 -0.270111E-03  0.740E-02    2.99       1.0  T
   6    -22.4320370 -0.374267E-04  0.380E-02    2.99       1.0  T
   7    -22.4320397 -0.264491E-05  0.119E-02    2.98       2.2  T
   8    -22.4320400 -0.362584E-06  0.626E-03    2.99       4.3  T
   9    -22.4320402 -0.225386E-06  0.288E-03    2.99       9.3  T
  10    -22.4320403 -0.482072E-07  0.108E-03    2.99      24.8  T
  11    -22.4320403 -0.265513E-08  0.619E-04    2.99      43.1  T
  12    -22.4320403 -0.296673E-08  0.764E-05    2.99     349.7  T

   *** convergence criteria satisfied after 12 iterations ***

         #    Occupation            Energy/Eh            Energy/eV
      -------------------------------------------------------------
         1        2.0000           -0.7206075             -19.6087
       ...           ...                  ...                  ...
        14        2.0000           -0.4905001             -13.3472
        15        2.0000           -0.4898988             -13.3308
        16        2.0000           -0.4499856             -12.2447
        17        2.0000           -0.4360831             -11.8664
        18        2.0000           -0.4232526             -11.5173
        19        2.0000           -0.4207561             -11.4494
        20        2.0000           -0.4077512             -11.0955 (HOMO)
        21                         -0.2980041              -8.1091 (LUMO)
        22                         -0.2400203              -6.5313
        23                         -0.2073810              -5.6431
        24                         -0.1012168              -2.7542
        25                          0.0822245               2.2374
       ...                                ...                  ...
        38                          0.6433997              17.5078
      -------------------------------------------------------------
                  HL-Gap            0.1097471 Eh            2.9864 eV
             Fermi-level           -0.3528777 Eh           -9.6023 eV

 SCC (total)                   0 d,  0 h,  0 min,  0.022 sec
 SCC setup                      ...        0 min,  0.000 sec (  1.873%)
 Dispersion                     ...        0 min,  0.000 sec (  0.476%)
 classical contributions        ...        0 min,  0.000 sec (  0.147%)
 integral evaluation            ...        0 min,  0.004 sec ( 19.864%)
 iterations                     ...        0 min,  0.010 sec ( 44.810%)
 molecular gradient             ...        0 min,  0.007 sec ( 32.115%)
 printout                       ...        0 min,  0.000 sec (  0.648%)

         :::::::::::::::::::::::::::::::::::::::::::::::::::::
         ::                     SUMMARY                     ::
         :::::::::::::::::::::::::::::::::::::::::::::::::::::
         :: total energy             -22.083653366709 Eh    ::
         :: total w/o Gsasa/hb       -22.075688741492 Eh    ::
         :: gradient norm              0.016457604927 Eh/a0 ::
         :: HOMO-LUMO gap              2.986371746783 eV    ::
         ::.................................................::
         :: SCC energy               -22.440004920979 Eh    ::
         :: -> isotropic ES            0.029824939175 Eh    ::
         :: -> anisotropic ES         -0.000045315413 Eh    ::
         :: -> anisotropic XC          0.012660500817 Eh    ::
         :: -> dispersion             -0.010559657216 Eh    ::
         :: -> Gsolv                  -0.013494721804 Eh    ::
         ::    -> Gborn               -0.005530096587 Eh    ::
         ::    -> Gsasa               -0.012405454390 Eh    ::
         ::    -> Ghb                  0.000000000000 Eh    ::
         ::    -> Gshift               0.004440829173 Eh    ::
         :: repulsion energy           0.356337049449 Eh    ::
         :: add. restraining           0.000000000000 Eh    ::
         :::::::::::::::::::::::::::::::::::::::::::::::::::::

           -------------------------------------------------
          |                Property Printout                |
           -------------------------------------------------

    * Orbital Energies and Occupations

         #    Occupation            Energy/Eh            Energy/eV
      -------------------------------------------------------------
         1        2.0000           -0.7206075             -19.6087
       ...           ...                  ...                  ...
         8        2.0000           -0.5581481             -15.1880
         9        2.0000           -0.5415987             -14.7377
        10        2.0000           -0.5400695             -14.6960
        11        2.0000           -0.5186893             -14.1143
        12        2.0000           -0.5014713             -13.6457
        13        2.0000           -0.4984557             -13.5637
        14        2.0000           -0.4905001             -13.3472
        15        2.0000           -0.4898988             -13.3308
        16        2.0000           -0.4499856             -12.2447
        17        2.0000           -0.4360831             -11.8664
        18        2.0000           -0.4232526             -11.5173
        19        2.0000           -0.4207561             -11.4494
        20        2.0000           -0.4077512             -11.0955 (HOMO)
        21                         -0.2980041              -8.1091 (LUMO)
        22                         -0.2400203              -6.5313
        23                         -0.2073810              -5.6431
        24                         -0.1012168              -2.7542
        25                          0.0822245               2.2374
        26                          0.1101808               2.9982
        27                          0.1352081               3.6792
        28                          0.1552693               4.2251
        29                          0.1718282               4.6757
        30                          0.1765014               4.8028
        31                          0.2138865               5.8201
       ...                                ...                  ...
        38                          0.6433997              17.5078
      -------------------------------------------------------------
                  HL-Gap            0.1097471 Eh            2.9864 eV
             Fermi-level           -0.3528777 Eh           -9.6023 eV

     #   Z        covCN         q      C6AA      α(0)
     1   6 C      2.968    -0.011    28.286     8.724
     2   6 C      2.920    -0.022    28.561     8.764
     3   6 C      2.913    -0.023    28.588     8.768
     4   6 C      2.916    -0.016    28.401     8.739
     5   6 C      2.913    -0.024    28.599     8.769
     6   6 C      2.918    -0.012    28.309     8.725
     7   1 H      0.925     0.050     2.316     2.380
     8   1 H      0.925     0.054     2.273     2.358
     9   1 H      0.925     0.055     2.257     2.349
    10   1 H      0.925     0.052     2.291     2.367
    11   1 H      0.925     0.055     2.261     2.351
    12   6 C      2.766     0.208    23.583     7.953
    13   8 O      0.856    -0.389    21.468     6.212
    14   1 H      0.922     0.022     2.697     2.568

 Mol. C6AA /au·bohr⁶  :       2561.572983
 Mol. C8AA /au·bohr⁸  :      62842.805887
 Mol. α(0) /au        :         81.026828


Wiberg/Mayer (AO) data.
largest (>0.10) Wiberg bond orders for each atom
          total WBO             WBO to atom ...
     1  C   3.988        C    2 1.370    C    6 1.361    C   12 1.072
     2  C   3.989        C    3 1.456    C    1 1.370    H    7 0.967    C    5 0.104
     3  C   3.991        C    2 1.456    C    4 1.432    H    8 0.969    C    6 0.104
     4  C   3.989        C    3 1.432    C    5 1.422    H    9 0.970
     5  C   3.991        C    6 1.466    C    4 1.422    H   10 0.969    C    2 0.104
     6  C   3.989        C    5 1.466    C    1 1.361    H   11 0.967    C    3 0.104
     7  H   0.997        C    2 0.967
     8  H   0.997        C    3 0.969
     9  H   0.997        C    4 0.970
    10  H   0.997        C    5 0.969
    11  H   0.997        C    6 0.967
    12  C   3.913        O   13 1.833    C    1 1.072    H   14 0.934
    13  O   2.044        C   12 1.833
    14  H   0.999        C   12 0.934
Topologies differ in total number of bonds
Writing topology from bond orders to xtbtopo.mol

molecular dipole:
                 x           y           z       tot (Debye)
 q only:        1.431       1.005      -0.000
   full:        1.547       0.921      -0.000       4.576
molecular quadrupole (traceless):
                xx          xy          yy          xz          yz          zz
 q only:      -12.201      -8.278       8.472       0.006      -0.003       3.729
  q+dip:      -12.283      -9.172      11.579       0.008      -0.007       0.704
   full:      -14.053      -9.012       9.642       0.007      -0.003       4.412


           -------------------------------------------------
          | TOTAL ENERGY              -22.083653366709 Eh   |
          | GRADIENT NORM               0.016457604927 Eh/α |
          | HOMO-LUMO GAP               2.986371746783 eV   |
           -------------------------------------------------

------------------------------------------------------------------------
 * finished run on 2020/06/19 at 15:32:39.901     
------------------------------------------------------------------------
 total:
 * wall-time:     0 d,  0 h,  0 min,  0.046 sec
 *  cpu-time:     0 d,  0 h,  0 min,  0.471 sec
 * ratio c/w:    10.204 speedup
 SCF:
 * wall-time:     0 d,  0 h,  0 min,  0.022 sec
 *  cpu-time:     0 d,  0 h,  0 min,  0.241 sec
 * ratio c/w:    10.739 speedup


-------------------------   --------------------
FINAL SINGLE POINT ENERGY       -22.083653366710
-------------------------   --------------------

------------------------------------------------------------------------------
                         ORCA GEOMETRY RELAXATION STEP
------------------------------------------------------------------------------

Reading the OPT-File                    .... done
Getting information on internals        .... done
Copying old internal coords+grads       .... done
Making the new internal coordinates     .... (new redundants).... done
Validating the new internal coordinates .... (new redundants).... done
Calculating the B-matrix                .... done
Calculating the G,G- and P matrices     .... done
Transforming gradient to internals      .... done
Projecting the internal gradient        .... done
Number of atoms                         ....  14
Number of internal coordinates          ....  63
Current Energy                          ....   -22.083653367 Eh
Current gradient norm                   ....     0.016457605 Eh/bohr
Maximum allowed component of the step   ....  0.300
Current trust radius                    ....  0.300
Evaluating the initial hessian          ....  (Almloef) done
Projecting the Hessian                  .... done
Forming the augmented Hessian           .... done
Diagonalizing the augmented Hessian     .... done
Last element of RFO vector              ....  0.999527795
Lowest eigenvalues of augmented Hessian:
 -0.000484075  0.014395406  0.014395731  0.022095321  0.025546134
Length of the computed step             ....  0.030742157
The final length of the internal step   ....  0.030742157
Converting the step to cartesian space:
 Initial RMS(Int)=    0.0038731477
Transforming coordinates:
 Iter   0:  RMS(Cart)=    0.0083123179 RMS(Int)=    1.9388177883
 Iter   1:  RMS(Cart)=    0.0000215067 RMS(Int)=    0.0000098808
 Iter   2:  RMS(Cart)=    0.0000001272 RMS(Int)=    0.0000000627
 Iter   3:  RMS(Cart)=    0.0000000004 RMS(Int)=    0.0000000002
done
Storing new coordinates                 .... done

                                .--------------------.
          ----------------------|Geometry convergence|-------------------------
          Item                value                   Tolerance       Converged
          ---------------------------------------------------------------------
          RMS gradient        0.0020486231            0.0001000000      NO
          MAX gradient        0.0076185297            0.0003000000      NO
          RMS step            0.0038731477            0.0020000000      NO
          MAX step            0.0165555353            0.0040000000      NO
          ........................................................
          Max(Bonds)      0.0088      Max(Angles)    0.39
          Max(Dihed)        0.11      Max(Improp)    0.00
          ---------------------------------------------------------------------

The optimization has not yet converged - more geometry cycles are needed


    ---------------------------------------------------------------------------
                         Redundant Internal Coordinates
                            (Angstroem and degrees)

        Definition                    Value    dE/dq     Step     New-Value
    ----------------------------------------------------------------------------
     1. B(C   1,C   0)                1.3968  0.001570 -0.0013    1.3956   
     2. B(C   2,C   1)                1.3891  0.006714 -0.0057    1.3834   
     3. B(C   3,C   2)                1.3915  0.004708 -0.0041    1.3874   
     4. B(C   4,C   3)                1.3957  0.007042 -0.0062    1.3895   
     5. B(C   5,C   4)                1.3850  0.004906 -0.0041    1.3809   
     6. B(C   5,C   0)                1.3994  0.003365 -0.0029    1.3966   
     7. B(H   6,C   1)                1.0833  0.002009 -0.0029    1.0805   
     8. B(H   7,C   2)                1.0817  0.001591 -0.0023    1.0794   
     9. B(H   8,C   3)                1.0821  0.001586 -0.0023    1.0799   
    10. B(H   9,C   4)                1.0818  0.001581 -0.0023    1.0795   
    11. B(H  10,C   5)                1.0816  0.001083 -0.0015    1.0801   
    12. B(C  11,C   0)                1.4735  0.007619 -0.0088    1.4648   
    13. B(O  12,C  11)                1.2145  0.003683 -0.0018    1.2127   
    14. B(H  13,C  11)                1.1066  0.000486 -0.0008    1.1058   
    15. A(C   1,C   0,C  11)          119.24 -0.002885    0.39    119.63   
    16. A(C   5,C   0,C  11)          120.88  0.001869   -0.28    120.61   
    17. A(C   1,C   0,C   5)          119.87  0.001015   -0.11    119.76   
    18. A(C   0,C   1,H   6)          119.50 -0.000498    0.07    119.57   
    19. A(C   2,C   1,H   6)          120.36 -0.000145    0.01    120.37   
    20. A(C   0,C   1,C   2)          120.13  0.000643   -0.07    120.06   
    21. A(C   3,C   2,H   7)          120.13  0.000389   -0.05    120.08   
    22. A(C   1,C   2,H   7)          120.15  0.000515   -0.07    120.08   
    23. A(C   1,C   2,C   3)          119.73 -0.000903    0.11    119.84   
    24. A(C   2,C   3,C   4)          120.38 -0.000381    0.02    120.40   
    25. A(C   4,C   3,H   8)          119.78  0.000294   -0.03    119.75   
    26. A(C   2,C   3,H   8)          119.84  0.000087    0.01    119.85   
    27. A(C   5,C   4,H   9)          120.10  0.000233   -0.03    120.07   
    28. A(C   3,C   4,H   9)          119.94  0.000041    0.00    119.95   
    29. A(C   3,C   4,C   5)          119.96 -0.000274    0.02    119.98   
    30. A(C   0,C   5,H  10)          119.05  0.000716   -0.12    118.93   
    31. A(C   0,C   5,C   4)          119.93 -0.000100    0.03    119.96   
    32. A(C   4,C   5,H  10)          121.02 -0.000616    0.09    121.12   
    33. A(O  12,C  11,H  13)          120.43  0.000801   -0.09    120.34   
    34. A(C   0,C  11,H  13)          114.64  0.001613   -0.24    114.40   
    35. A(C   0,C  11,O  12)          124.93 -0.002414    0.33    125.26   
    36. D(H   6,C   1,C   0,C   5)    180.00 -0.000001    0.00    180.00   
    37. D(C   2,C   1,C   0,C   5)     -0.01 -0.000003    0.01      0.00   
    38. D(C   2,C   1,C   0,C  11)    180.00 -0.000004    0.01    180.01   
    39. D(H   6,C   1,C   0,C  11)      0.00 -0.000001    0.00      0.01   
    40. D(C   3,C   2,C   1,C   0)      0.00  0.000003   -0.01     -0.00   
    41. D(C   3,C   2,C   1,H   6)    180.00  0.000000   -0.00    180.00   
    42. D(H   7,C   2,C   1,H   6)     -0.01 -0.000003    0.01     -0.00   
    43. D(H   7,C   2,C   1,C   0)    180.00  0.000000   -0.00    180.00   
    44. D(H   8,C   3,C   2,H   7)      0.00  0.000000   -0.00     -0.00   
    45. D(H   8,C   3,C   2,C   1)    179.99 -0.000003    0.01    180.00   
    46. D(C   4,C   3,C   2,H   7)   -179.99  0.000003   -0.01   -180.00   
    47. D(C   4,C   3,C   2,C   1)      0.00 -0.000000    0.00      0.00   
    48. D(H   9,C   4,C   3,C   2)   -179.99  0.000002   -0.00   -180.00   
    49. D(C   5,C   4,C   3,H   8)   -180.00  0.000001   -0.00   -180.00   
    50. D(C   5,C   4,C   3,C   2)     -0.00 -0.000002    0.00     -0.00   
    51. D(H   9,C   4,C   3,H   8)      0.01  0.000005   -0.01      0.00   
    52. D(H  10,C   5,C   4,H   9)     -0.00 -0.000001    0.00     -0.00   
    53. D(C   0,C   5,C   4,H   9)    179.99 -0.000003    0.01    180.00   
    54. D(C   0,C   5,C   4,C   3)      0.00  0.000001   -0.00      0.00   
    55. D(H  10,C   5,C   0,C  11)     -0.00 -0.000000   -0.00     -0.00   
    56. D(H  10,C   5,C   0,C   1)    180.00 -0.000000    0.00    180.00   
    57. D(H  10,C   5,C   4,C   3)   -179.99  0.000003   -0.01   -180.00   
    58. D(C   4,C   5,C   0,C  11)    180.00  0.000002   -0.00    179.99   
    59. D(C   4,C   5,C   0,C   1)      0.00  0.000001   -0.00     -0.00   
    60. D(H  13,C  11,C   0,C   5)   -179.97  0.000029   -0.11   -180.08   
    61. D(H  13,C  11,C   0,C   1)      0.03  0.000030   -0.11     -0.09   
    62. D(O  12,C  11,C   0,C   5)     -0.03 -0.000030    0.11      0.08   
    63. D(O  12,C  11,C   0,C   1)    179.97 -0.000029    0.11    180.08   
    ----------------------------------------------------------------------------

         *************************************************************
         *                GEOMETRY OPTIMIZATION CYCLE   2            *
         *************************************************************
      -----------------------------------------------------------      
     |                   =====================                   |     
     |                           x T B                           |     
     |                   =====================                   |     
     |                         S. Grimme                         |     
     |          Mulliken Center for Theoretical Chemistry        |     
     |                    University of Bonn                     |     
      -----------------------------------------------------------      

   * xtb version 6.3.0 (49875a8) compiled by 'schneider@apollo14' on 2020-05-23

   xtb is free software: you can redistribute it and/or modify it under
   the terms of the GNU Lesser General Public License as published by
   the Free Software Foundation, either version 3 of the License, or
   (at your option) any later version.
   
   xtb is distributed in the hope that it will be useful,
   but WITHOUT ANY WARRANTY; without even the implied warranty of
   MERCHANTABILITY or FITNESS FOR A PARTICULAR PURPOSE.  See the
   GNU Lesser General Public License for more details.
   
   Cite this work as:
   * S. Grimme, C. Bannwarth, P. Shushkov, J. Chem. Theory Comput., 2017,
     13, 1989-2009. DOI: 10.1021/acs.jctc.7b00118
   * C. Bannwarth, S. Ehlert and S. Grimme., J. Chem. Theory Comput., 2019,
     15, 1652-1671. DOI: 10.1021/acs.jctc.8b01176
   * P. Pracht, E. Caldeweyher, S. Ehlert, S. Grimme, ChemRxiv, 2019, preprint.
     DOI: 10.26434/chemrxiv.8326202.v1
   
   for GFN-FF:
   * S. Spicher and S. Grimme, Angew. Chem. Int. Ed., 2020,
     DOI: 10.1002/anie.202004239
   
   for DFT-D4:
   * E. Caldeweyher, C. Bannwarth and S. Grimme, J. Chem. Phys., 2017,
     147, 034112. DOI: 10.1063/1.4993215
   * E. Caldeweyher, S. Ehlert, A. Hansen, H. Neugebauer, S. Spicher,
     C. Bannwarth and S. Grimme, J. Chem. Phys., 2019, 150, 154122.
     DOI: 10.1063/1.5090222
   
   for sTDA-xTB:
   * S. Grimme and C. Bannwarth, J. Chem. Phys., 2016, 145, 054103.
     DOI: 10.1063/1.4959605
   
   in the mass-spec context:
   * V. Asgeirsson, C. Bauer and S. Grimme, Chem. Sci., 2017, 8, 4879.
     DOI: 10.1039/c7sc00601b
   * J. Koopman and S. Grimme, ACS Omega 2019, 4, 12, 15120-15133.
     DOI: 10.1021/acsomega.9b02011
   
   for metadynamics refer to:
   * S. Grimme, J. Chem. Theory Comput., 2019, 155, 2847-2862
     DOI: 10.1021/acs.jctc.9b00143
   
   with help from (in alphabetical order)
   C. Bannwarth, F. Bohle, G. Brandenburg, E. Caldeweyher, M. Checinski,
   S. Dohm, S. Ehlert, S. Ehrlich, F. März, H. Neugebauer, J. Pisarek,
   P. Pracht, P. Shushkov, and S. Spicher.
   
 * started run on 2020/06/19 at 15:32:40.011     

           -------------------------------------------------
          |                Calculation Setup                |
           -------------------------------------------------

          program call               : /opt/orca/otool_xtb opt+freq_XTB.xyz --grad -c 0 -u 0 -P 12 --namespace opt+freq --gbsa CH2Cl2
          calculation namespace      : opt+freq
          coordinate file            : opt+freq_XTB.xyz
          number of atoms            :                    14
          number of electrons        :                    40
          charge                     :                     0
          spin                       :                   0.0
          first test random number   :      0.05308711727166

   ID    Z sym.   atoms
    1    6 C      1-6, 12
    2    1 H      7-11, 14
    3    8 O      13
########################################################################
[WARNING] Please study the warnings concerning your input carefully
-1- prog_main_parseArguments: Process number higher than OMP_NUM_THREADS, I hope you know what you are doing.
########################################################################
 Solvent             : CH2Cl2
 Using internal parameter file: .param_gbsa2_CH2Cl2
 Gsolv ref. state (COSMO-RS): gsolv [1 M gas/solution]
 temperature (mdtemp)       :    298.14999999999998     
 dielectric constant        :    8.9299999999999997     
 rho                        :    1.3300000000000003     
 mass                       :    84.930000000000007     
 surface tension            :    15.568945408385856     
 probe radius               :   0.71987590000000001     
 Gshift (Eh)                :    4.4408291734517593E-003
 c1                         :    1.4917377599999999     
 soset                      :    0.0000000000000000     
 HB correction              :  F

           -------------------------------------------------
          |                 G F N 2 - x T B                 |
           -------------------------------------------------

        Reference                      10.1021/acs.jctc.8b01176
      * Hamiltonian:
        H0-scaling (s, p, d)           1.850000    2.230000    2.230000
        zeta-weighting                 0.500000
      * Dispersion:
        s8                             2.700000
        a1                             0.520000
        a2                             5.000000
        s9                             5.000000
      * Repulsion:
        kExp                           1.500000    1.000000
        rExp                           1.000000
      * Coulomb:
        alpha                          2.000000
        third order                    shell-resolved
        anisotropic                    true
        a3                             3.000000
        a5                             4.000000
        cn-shift                       1.200000
        cn-exp                         4.000000
        max-rad                        5.000000


          ...................................................
          :                      SETUP                      :
          :.................................................:
          :  # basis functions                  38          :
          :  # atomic orbitals                  38          :
          :  # shells                           22          :
          :  # electrons                        40          :
          :  max. iterations                   250          :
          :  Hamiltonian                  GFN2-xTB          :
          :  restarted?                      false          :
          :  GBSA solvation                   true          :
          :  PC potential                    false          :
          :  electronic temp.          300.0000000     K    :
          :  accuracy                    1.0000000          :
          :  -> integral cutoff          0.2500000E+02      :
          :  -> integral neglect         0.1000000E-07      :
          :  -> SCF convergence          0.1000000E-05 Eh   :
          :  -> wf. convergence          0.1000000E-03 e    :
          :  Broyden damping             0.4000000          :
          ...................................................

 iter      E             dE          RMSdq      gap      omega  full diag
   1    -22.4003489 -0.224003E+02  0.584E+00    3.40       0.0  T
   2    -22.4366710 -0.363221E-01  0.315E+00    2.90       1.0  T
   3    -22.4351412  0.152980E-02  0.148E+00    3.10       1.0  T
   4    -22.4406101 -0.546887E-02  0.184E-01    2.95       1.0  T
   5    -22.4408744 -0.264315E-03  0.726E-02    2.98       1.0  T
   6    -22.4409095 -0.351315E-04  0.374E-02    2.98       1.0  T
   7    -22.4409120 -0.251708E-05  0.118E-02    2.98       2.3  T
   8    -22.4409123 -0.318512E-06  0.620E-03    2.98       4.3  T
   9    -22.4409126 -0.236885E-06  0.269E-03    2.98       9.9  T
  10    -22.4409126 -0.381548E-07  0.114E-03    2.98      23.5  T
  11    -22.4409126 -0.469219E-08  0.541E-04    2.98      49.4  T
  12    -22.4409126 -0.229146E-08  0.750E-05    2.98     356.3  T

   *** convergence criteria satisfied after 12 iterations ***

         #    Occupation            Energy/Eh            Energy/eV
      -------------------------------------------------------------
         1        2.0000           -0.7208884             -19.6164
       ...           ...                  ...                  ...
        14        2.0000           -0.4911697             -13.3654
        15        2.0000           -0.4909870             -13.3604
        16        2.0000           -0.4499177             -12.2429
        17        2.0000           -0.4359926             -11.8640
        18        2.0000           -0.4240694             -11.5395
        19        2.0000           -0.4217543             -11.4765
        20        2.0000           -0.4074885             -11.0883 (HOMO)
        21                         -0.2979609              -8.1079 (LUMO)
        22                         -0.2391152              -6.5067
        23                         -0.2055858              -5.5943
        24                         -0.0986723              -2.6850
        25                          0.0894516               2.4341
       ...                                ...                  ...
        38                          0.6546576              17.8141
      -------------------------------------------------------------
                  HL-Gap            0.1095275 Eh            2.9804 eV
             Fermi-level           -0.3527247 Eh           -9.5981 eV

 SCC (total)                   0 d,  0 h,  0 min,  0.029 sec
 SCC setup                      ...        0 min,  0.000 sec (  1.466%)
 Dispersion                     ...        0 min,  0.000 sec (  0.376%)
 classical contributions        ...        0 min,  0.000 sec (  0.119%)
 integral evaluation            ...        0 min,  0.004 sec ( 13.188%)
 iterations                     ...        0 min,  0.018 sec ( 62.689%)
 molecular gradient             ...        0 min,  0.006 sec ( 21.541%)
 printout                       ...        0 min,  0.000 sec (  0.552%)

         :::::::::::::::::::::::::::::::::::::::::::::::::::::
         ::                     SUMMARY                     ::
         :::::::::::::::::::::::::::::::::::::::::::::::::::::
         :: total energy             -22.083944599077 Eh    ::
         :: total w/o Gsasa/hb       -22.076017594534 Eh    ::
         :: gradient norm              0.007291538623 Eh/a0 ::
         :: HOMO-LUMO gap              2.980396282607 eV    ::
         ::.................................................::
         :: SCC energy               -22.448839628288 Eh    ::
         :: -> isotropic ES            0.029902676885 Eh    ::
         :: -> anisotropic ES         -0.000074422967 Eh    ::
         :: -> anisotropic XC          0.012348397232 Eh    ::
         :: -> dispersion             -0.010585389591 Eh    ::
         :: -> Gsolv                  -0.013477411098 Eh    ::
         ::    -> Gborn               -0.005550406555 Eh    ::
         ::    -> Gsasa               -0.012367833716 Eh    ::
         ::    -> Ghb                  0.000000000000 Eh    ::
         ::    -> Gshift               0.004440829173 Eh    ::
         :: repulsion energy           0.364880600887 Eh    ::
         :: add. restraining           0.000000000000 Eh    ::
         :::::::::::::::::::::::::::::::::::::::::::::::::::::

           -------------------------------------------------
          |                Property Printout                |
           -------------------------------------------------

    * Orbital Energies and Occupations

         #    Occupation            Energy/Eh            Energy/eV
      -------------------------------------------------------------
         1        2.0000           -0.7208884             -19.6164
       ...           ...                  ...                  ...
         8        2.0000           -0.5587748             -15.2050
         9        2.0000           -0.5422124             -14.7543
        10        2.0000           -0.5405110             -14.7081
        11        2.0000           -0.5191560             -14.1270
        12        2.0000           -0.5018496             -13.6560
        13        2.0000           -0.4987911             -13.5728
        14        2.0000           -0.4911697             -13.3654
        15        2.0000           -0.4909870             -13.3604
        16        2.0000           -0.4499177             -12.2429
        17        2.0000           -0.4359926             -11.8640
        18        2.0000           -0.4240694             -11.5395
        19        2.0000           -0.4217543             -11.4765
        20        2.0000           -0.4074885             -11.0883 (HOMO)
        21                         -0.2979609              -8.1079 (LUMO)
        22                         -0.2391152              -6.5067
        23                         -0.2055858              -5.5943
        24                         -0.0986723              -2.6850
        25                          0.0894516               2.4341
        26                          0.1132847               3.0826
        27                          0.1392365               3.7888
        28                          0.1596681               4.3448
        29                          0.1766730               4.8075
        30                          0.1825121               4.9664
        31                          0.2192368               5.9657
       ...                                ...                  ...
        38                          0.6546576              17.8141
      -------------------------------------------------------------
                  HL-Gap            0.1095275 Eh            2.9804 eV
             Fermi-level           -0.3527247 Eh           -9.5981 eV

     #   Z        covCN         q      C6AA      α(0)
     1   6 C      2.970    -0.011    28.291     8.725
     2   6 C      2.923    -0.022    28.558     8.764
     3   6 C      2.916    -0.023    28.584     8.767
     4   6 C      2.920    -0.015    28.392     8.738
     5   6 C      2.917    -0.024    28.595     8.769
     6   6 C      2.921    -0.012    28.307     8.725
     7   1 H      0.926     0.051     2.313     2.378
     8   1 H      0.926     0.054     2.272     2.357
     9   1 H      0.926     0.055     2.254     2.348
    10   1 H      0.926     0.052     2.290     2.367
    11   1 H      0.926     0.055     2.259     2.350
    12   6 C      2.767     0.209    23.564     7.950
    13   8 O      0.856    -0.390    21.481     6.214
    14   1 H      0.922     0.021     2.724     2.581

 Mol. C6AA /au·bohr⁶  :       2561.887864
 Mol. C8AA /au·bohr⁸  :      62845.340002
 Mol. α(0) /au        :         81.032322


Wiberg/Mayer (AO) data.
largest (>0.10) Wiberg bond orders for each atom
          total WBO             WBO to atom ...
     1  C   3.989        C    2 1.366    C    6 1.361    C   12 1.076
     2  C   3.990        C    3 1.460    C    1 1.366    H    7 0.967    C    5 0.104
     3  C   3.991        C    2 1.460    C    4 1.430    H    8 0.969    C    6 0.104
     4  C   3.989        C    3 1.430    C    5 1.425    H    9 0.970
     5  C   3.991        C    6 1.465    C    4 1.425    H   10 0.969    C    2 0.104
     6  C   3.989        C    5 1.465    C    1 1.361    H   11 0.967    C    3 0.104
     7  H   0.997        C    2 0.967
     8  H   0.997        C    3 0.969
     9  H   0.997        C    4 0.970
    10  H   0.997        C    5 0.969
    11  H   0.997        C    6 0.967
    12  C   3.914        O   13 1.830    C    1 1.076    H   14 0.933
    13  O   2.044        C   12 1.830
    14  H   0.999        C   12 0.933
Topologies differ in total number of bonds
Writing topology from bond orders to xtbtopo.mol

molecular dipole:
                 x           y           z       tot (Debye)
 q only:        1.434       1.013       0.000
   full:        1.550       0.930       0.001       4.594
molecular quadrupole (traceless):
                xx          xy          yy          xz          yz          zz
 q only:      -12.208      -8.271       8.470      -0.004      -0.006       3.739
  q+dip:      -12.321      -9.171      11.502      -0.005      -0.011       0.819
   full:      -14.077      -9.015       9.598      -0.006      -0.008       4.479


           -------------------------------------------------
          | TOTAL ENERGY              -22.083944599077 Eh   |
          | GRADIENT NORM               0.007291538623 Eh/α |
          | HOMO-LUMO GAP               2.980396282607 eV   |
           -------------------------------------------------

------------------------------------------------------------------------
 * finished run on 2020/06/19 at 15:32:40.065     
------------------------------------------------------------------------
 total:
 * wall-time:     0 d,  0 h,  0 min,  0.054 sec
 *  cpu-time:     0 d,  0 h,  0 min,  0.549 sec
 * ratio c/w:    10.110 speedup
 SCF:
 * wall-time:     0 d,  0 h,  0 min,  0.029 sec
 *  cpu-time:     0 d,  0 h,  0 min,  0.299 sec
 * ratio c/w:    10.284 speedup


-------------------------   --------------------
FINAL SINGLE POINT ENERGY       -22.083944599080
-------------------------   --------------------

------------------------------------------------------------------------------
                         ORCA GEOMETRY RELAXATION STEP
------------------------------------------------------------------------------

Reading the OPT-File                    .... done
Getting information on internals        .... done
Copying old internal coords+grads       .... done
Making the new internal coordinates     .... (new redundants).... done
Validating the new internal coordinates .... (new redundants).... done
Calculating the B-matrix                .... done
Calculating the G,G- and P matrices     .... done
Transforming gradient to internals      .... done
Projecting the internal gradient        .... done
Number of atoms                         ....  14
Number of internal coordinates          ....  63
Current Energy                          ....   -22.083944599 Eh
Current gradient norm                   ....     0.007291539 Eh/bohr
Maximum allowed component of the step   ....  0.300
Current trust radius                    ....  0.300
Updating the Hessian (BFGS)             .... done
Forming the augmented Hessian           .... done
Diagonalizing the augmented Hessian     .... done
Last element of RFO vector              ....  0.999788587
Lowest eigenvalues of augmented Hessian:
 -0.000062883  0.014395406  0.014450234  0.022095351  0.025546385
Length of the computed step             ....  0.020566007
The final length of the internal step   ....  0.020566007
Converting the step to cartesian space:
 Initial RMS(Int)=    0.0025910733
Transforming coordinates:
 Iter   0:  RMS(Cart)=    0.0036360134 RMS(Int)=    2.5026424697
 Iter   1:  RMS(Cart)=    0.0000191804 RMS(Int)=    0.0000116659
 Iter   2:  RMS(Cart)=    0.0000000825 RMS(Int)=    0.0000000623
done
Storing new coordinates                 .... done

                                .--------------------.
          ----------------------|Geometry convergence|-------------------------
          Item                value                   Tolerance       Converged
          ---------------------------------------------------------------------
          Energy change      -0.0002912324            0.0000050000      NO
          RMS gradient        0.0005504440            0.0001000000      NO
          MAX gradient        0.0020568207            0.0003000000      NO
          RMS step            0.0025910733            0.0020000000      NO
          MAX step            0.0076911454            0.0040000000      NO
          ........................................................
          Max(Bonds)      0.0037      Max(Angles)    0.32
          Max(Dihed)        0.44      Max(Improp)    0.00
          ---------------------------------------------------------------------

The optimization has not yet converged - more geometry cycles are needed


    ---------------------------------------------------------------------------
                         Redundant Internal Coordinates
                            (Angstroem and degrees)

        Definition                    Value    dE/dq     Step     New-Value
    ----------------------------------------------------------------------------
     1. B(C   1,C   0)                1.3955 -0.000791  0.0008    1.3963   
     2. B(C   2,C   1)                1.3834  0.001286 -0.0018    1.3816   
     3. B(C   3,C   2)                1.3874  0.000078 -0.0005    1.3869   
     4. B(C   4,C   3)                1.3895  0.001310 -0.0019    1.3875   
     5. B(C   5,C   4)                1.3809  0.000265 -0.0006    1.3803   
     6. B(C   5,C   0)                1.3966 -0.000349  0.0002    1.3968   
     7. B(H   6,C   1)                1.0805  0.000022 -0.0003    1.0802   
     8. B(H   7,C   2)                1.0794 -0.000147  0.0001    1.0795   
     9. B(H   8,C   3)                1.0799 -0.000105  0.0000    1.0799   
    10. B(H   9,C   4)                1.0795 -0.000139  0.0001    1.0796   
    11. B(H  10,C   5)                1.0801 -0.000081  0.0000    1.0801   
    12. B(C  11,C   0)                1.4648  0.002057 -0.0037    1.4611   
    13. B(O  12,C  11)                1.2127  0.000253 -0.0003    1.2124   
    14. B(H  13,C  11)                1.1058 -0.000609  0.0011    1.1069   
    15. A(C   1,C   0,C  11)          119.63 -0.001727    0.32    119.95   
    16. A(C   5,C   0,C  11)          120.61  0.001008   -0.21    120.40   
    17. A(C   1,C   0,C   5)          119.76  0.000719   -0.12    119.64   
    18. A(C   0,C   1,H   6)          119.57 -0.000020    0.01    119.58   
    19. A(C   2,C   1,H   6)          120.37 -0.000122    0.02    120.39   
    20. A(C   0,C   1,C   2)          120.06  0.000142   -0.03    120.03   
    21. A(C   3,C   2,H   7)          120.08  0.000265   -0.05    120.03   
    22. A(C   1,C   2,H   7)          120.08  0.000297   -0.05    120.03   
    23. A(C   1,C   2,C   3)          119.84 -0.000563    0.10    119.94   
    24. A(C   2,C   3,C   4)          120.40  0.000039   -0.02    120.38   
    25. A(C   4,C   3,H   8)          119.75 -0.000024    0.01    119.76   
    26. A(C   2,C   3,H   8)          119.85 -0.000016    0.01    119.86   
    27. A(C   5,C   4,H   9)          120.07  0.000114   -0.02    120.05   
    28. A(C   3,C   4,H   9)          119.95 -0.000143    0.03    119.98   
    29. A(C   3,C   4,C   5)          119.98  0.000030   -0.01    119.97   
    30. A(C   0,C   5,H  10)          118.93  0.000734   -0.16    118.77   
    31. A(C   0,C   5,C   4)          119.96 -0.000367    0.07    120.03   
    32. A(C   4,C   5,H  10)          121.12 -0.000366    0.08    121.20   
    33. A(O  12,C  11,H  13)          120.34  0.000803   -0.13    120.20   
    34. A(C   0,C  11,H  13)          114.40  0.000883   -0.18    114.22   
    35. A(C   0,C  11,O  12)          125.26 -0.001687    0.31    125.58   
    36. D(H   6,C   1,C   0,C   5)   -180.00  0.000002   -0.00   -180.00   
    37. D(C   2,C   1,C   0,C   5)      0.00  0.000005   -0.01     -0.01   
    38. D(C   2,C   1,C   0,C  11)   -179.99  0.000008   -0.02   -180.02   
    39. D(H   6,C   1,C   0,C  11)      0.01  0.000005   -0.02     -0.01   
    40. D(C   3,C   2,C   1,C   0)     -0.00 -0.000003    0.01      0.01   
    41. D(C   3,C   2,C   1,H   6)    180.00  0.000000   -0.00    180.00   
    42. D(H   7,C   2,C   1,H   6)     -0.00  0.000001   -0.00     -0.00   
    43. D(H   7,C   2,C   1,C   0)    180.00 -0.000002    0.00    180.00   
    44. D(H   8,C   3,C   2,H   7)     -0.00  0.000001   -0.00     -0.00   
    45. D(H   8,C   3,C   2,C   1)    180.00  0.000002   -0.00    180.00   
    46. D(C   4,C   3,C   2,H   7)   -180.00  0.000000   -0.00   -180.00   
    47. D(C   4,C   3,C   2,C   1)      0.00  0.000001   -0.00     -0.00   
    48. D(H   9,C   4,C   3,C   2)   -180.00  0.000000   -0.00   -180.00   
    49. D(C   5,C   4,C   3,H   8)    180.00 -0.000002    0.00    180.00   
    50. D(C   5,C   4,C   3,C   2)     -0.00 -0.000001    0.00      0.00   
    51. D(H   9,C   4,C   3,H   8)      0.00 -0.000000   -0.00      0.00   
    52. D(H  10,C   5,C   4,H   9)     -0.00 -0.000002    0.01      0.00   
    53. D(C   0,C   5,C   4,H   9)    180.00  0.000001   -0.00    180.00   
    54. D(C   0,C   5,C   4,C   3)      0.00  0.000003   -0.01     -0.01   
    55. D(H  10,C   5,C   0,C  11)     -0.00 -0.000005    0.01      0.01   
    56. D(H  10,C   5,C   0,C   1)    180.00 -0.000001    0.00    180.00   
    57. D(H  10,C   5,C   4,C   3)    180.00 -0.000001    0.00    180.00   
    58. D(C   4,C   5,C   0,C  11)    179.99 -0.000009    0.02    180.02   
    59. D(C   4,C   5,C   0,C   1)     -0.00 -0.000005    0.01      0.01   
    60. D(H  13,C  11,C   0,C   5)    179.92 -0.000088    0.43    180.34   
    61. D(H  13,C  11,C   0,C   1)     -0.09 -0.000091    0.44      0.35   
    62. D(O  12,C  11,C   0,C   5)      0.08  0.000090   -0.44     -0.35   
    63. D(O  12,C  11,C   0,C   1)   -179.92  0.000087   -0.42   -180.34   
    ----------------------------------------------------------------------------

         *************************************************************
         *                GEOMETRY OPTIMIZATION CYCLE   3            *
         *************************************************************
      -----------------------------------------------------------      
     |                   =====================                   |     
     |                           x T B                           |     
     |                   =====================                   |     
     |                         S. Grimme                         |     
     |          Mulliken Center for Theoretical Chemistry        |     
     |                    University of Bonn                     |     
      -----------------------------------------------------------      

   * xtb version 6.3.0 (49875a8) compiled by 'schneider@apollo14' on 2020-05-23

   xtb is free software: you can redistribute it and/or modify it under
   the terms of the GNU Lesser General Public License as published by
   the Free Software Foundation, either version 3 of the License, or
   (at your option) any later version.
   
   xtb is distributed in the hope that it will be useful,
   but WITHOUT ANY WARRANTY; without even the implied warranty of
   MERCHANTABILITY or FITNESS FOR A PARTICULAR PURPOSE.  See the
   GNU Lesser General Public License for more details.
   
   Cite this work as:
   * S. Grimme, C. Bannwarth, P. Shushkov, J. Chem. Theory Comput., 2017,
     13, 1989-2009. DOI: 10.1021/acs.jctc.7b00118
   * C. Bannwarth, S. Ehlert and S. Grimme., J. Chem. Theory Comput., 2019,
     15, 1652-1671. DOI: 10.1021/acs.jctc.8b01176
   * P. Pracht, E. Caldeweyher, S. Ehlert, S. Grimme, ChemRxiv, 2019, preprint.
     DOI: 10.26434/chemrxiv.8326202.v1
   
   for GFN-FF:
   * S. Spicher and S. Grimme, Angew. Chem. Int. Ed., 2020,
     DOI: 10.1002/anie.202004239
   
   for DFT-D4:
   * E. Caldeweyher, C. Bannwarth and S. Grimme, J. Chem. Phys., 2017,
     147, 034112. DOI: 10.1063/1.4993215
   * E. Caldeweyher, S. Ehlert, A. Hansen, H. Neugebauer, S. Spicher,
     C. Bannwarth and S. Grimme, J. Chem. Phys., 2019, 150, 154122.
     DOI: 10.1063/1.5090222
   
   for sTDA-xTB:
   * S. Grimme and C. Bannwarth, J. Chem. Phys., 2016, 145, 054103.
     DOI: 10.1063/1.4959605
   
   in the mass-spec context:
   * V. Asgeirsson, C. Bauer and S. Grimme, Chem. Sci., 2017, 8, 4879.
     DOI: 10.1039/c7sc00601b
   * J. Koopman and S. Grimme, ACS Omega 2019, 4, 12, 15120-15133.
     DOI: 10.1021/acsomega.9b02011
   
   for metadynamics refer to:
   * S. Grimme, J. Chem. Theory Comput., 2019, 155, 2847-2862
     DOI: 10.1021/acs.jctc.9b00143
   
   with help from (in alphabetical order)
   C. Bannwarth, F. Bohle, G. Brandenburg, E. Caldeweyher, M. Checinski,
   S. Dohm, S. Ehlert, S. Ehrlich, F. März, H. Neugebauer, J. Pisarek,
   P. Pracht, P. Shushkov, and S. Spicher.
   
 * started run on 2020/06/19 at 15:32:40.150     

           -------------------------------------------------
          |                Calculation Setup                |
           -------------------------------------------------

          program call               : /opt/orca/otool_xtb opt+freq_XTB.xyz --grad -c 0 -u 0 -P 12 --namespace opt+freq --gbsa CH2Cl2
          calculation namespace      : opt+freq
          coordinate file            : opt+freq_XTB.xyz
          number of atoms            :                    14
          number of electrons        :                    40
          charge                     :                     0
          spin                       :                   0.0
          first test random number   :      0.71779803211935

   ID    Z sym.   atoms
    1    6 C      1-6, 12
    2    1 H      7-11, 14
    3    8 O      13
########################################################################
[WARNING] Please study the warnings concerning your input carefully
-1- prog_main_parseArguments: Process number higher than OMP_NUM_THREADS, I hope you know what you are doing.
########################################################################
 Solvent             : CH2Cl2
 Using internal parameter file: .param_gbsa2_CH2Cl2
 Gsolv ref. state (COSMO-RS): gsolv [1 M gas/solution]
 temperature (mdtemp)       :    298.14999999999998     
 dielectric constant        :    8.9299999999999997     
 rho                        :    1.3300000000000003     
 mass                       :    84.930000000000007     
 surface tension            :    15.568945408385856     
 probe radius               :   0.71987590000000001     
 Gshift (Eh)                :    4.4408291734517593E-003
 c1                         :    1.4917377599999999     
 soset                      :    0.0000000000000000     
 HB correction              :  F

           -------------------------------------------------
          |                 G F N 2 - x T B                 |
           -------------------------------------------------

        Reference                      10.1021/acs.jctc.8b01176
      * Hamiltonian:
        H0-scaling (s, p, d)           1.850000    2.230000    2.230000
        zeta-weighting                 0.500000
      * Dispersion:
        s8                             2.700000
        a1                             0.520000
        a2                             5.000000
        s9                             5.000000
      * Repulsion:
        kExp                           1.500000    1.000000
        rExp                           1.000000
      * Coulomb:
        alpha                          2.000000
        third order                    shell-resolved
        anisotropic                    true
        a3                             3.000000
        a5                             4.000000
        cn-shift                       1.200000
        cn-exp                         4.000000
        max-rad                        5.000000


          ...................................................
          :                      SETUP                      :
          :.................................................:
          :  # basis functions                  38          :
          :  # atomic orbitals                  38          :
          :  # shells                           22          :
          :  # electrons                        40          :
          :  max. iterations                   250          :
          :  Hamiltonian                  GFN2-xTB          :
          :  restarted?                      false          :
          :  GBSA solvation                   true          :
          :  PC potential                    false          :
          :  electronic temp.          300.0000000     K    :
          :  accuracy                    1.0000000          :
          :  -> integral cutoff          0.2500000E+02      :
          :  -> integral neglect         0.1000000E-07      :
          :  -> SCF convergence          0.1000000E-05 Eh   :
          :  -> wf. convergence          0.1000000E-03 e    :
          :  Broyden damping             0.4000000          :
          ...................................................

 iter      E             dE          RMSdq      gap      omega  full diag
   1    -22.4017192 -0.224017E+02  0.583E+00    3.40       0.0  T
   2    -22.4381254 -0.364062E-01  0.314E+00    2.89       1.0  T
   3    -22.4366575  0.146791E-02  0.147E+00    3.09       1.0  T
   4    -22.4419946 -0.533711E-02  0.184E-01    2.94       1.0  T
   5    -22.4422591 -0.264477E-03  0.724E-02    2.98       1.0  T
   6    -22.4422939 -0.348643E-04  0.373E-02    2.98       1.0  T
   7    -22.4422964 -0.248880E-05  0.118E-02    2.97       2.3  T
   8    -22.4422967 -0.310115E-06  0.615E-03    2.97       4.3  T
   9    -22.4422970 -0.235598E-06  0.263E-03    2.97      10.2  T
  10    -22.4422970 -0.353437E-07  0.116E-03    2.97      23.1  T
  11    -22.4422970 -0.527372E-08  0.521E-04    2.97      51.3  T
  12    -22.4422970 -0.212851E-08  0.745E-05    2.97     358.8  T

   *** convergence criteria satisfied after 12 iterations ***

         #    Occupation            Energy/Eh            Energy/eV
      -------------------------------------------------------------
         1        2.0000           -0.7208747             -19.6160
       ...           ...                  ...                  ...
        14        2.0000           -0.4914746             -13.3737
        15        2.0000           -0.4911322             -13.3644
        16        2.0000           -0.4499694             -12.2443
        17        2.0000           -0.4359771             -11.8635
        18        2.0000           -0.4243212             -11.5464
        19        2.0000           -0.4220637             -11.4849
        20        2.0000           -0.4073936             -11.0857 (HOMO)
        21                         -0.2981463              -8.1130 (LUMO)
        22                         -0.2389628              -6.5025
        23                         -0.2050853              -5.5807
        24                         -0.0982582              -2.6737
        25                          0.0910357               2.4772
       ...                                ...                  ...
        38                          0.6571432              17.8818
      -------------------------------------------------------------
                  HL-Gap            0.1092473 Eh            2.9728 eV
             Fermi-level           -0.3527699 Eh           -9.5994 eV

 SCC (total)                   0 d,  0 h,  0 min,  0.032 sec
 SCC setup                      ...        0 min,  0.000 sec (  1.300%)
 Dispersion                     ...        0 min,  0.000 sec (  0.325%)
 classical contributions        ...        0 min,  0.000 sec (  0.102%)
 integral evaluation            ...        0 min,  0.004 sec ( 13.715%)
 iterations                     ...        0 min,  0.020 sec ( 61.524%)
 molecular gradient             ...        0 min,  0.007 sec ( 22.445%)
 printout                       ...        0 min,  0.000 sec (  0.540%)

         :::::::::::::::::::::::::::::::::::::::::::::::::::::
         ::                     SUMMARY                     ::
         :::::::::::::::::::::::::::::::::::::::::::::::::::::
         :: total energy             -22.083978339629 Eh    ::
         :: total w/o Gsasa/hb       -22.076057466126 Eh    ::
         :: gradient norm              0.003130426672 Eh/a0 ::
         :: HOMO-LUMO gap              2.972771614389 eV    ::
         ::.................................................::
         :: SCC energy               -22.450217879922 Eh    ::
         :: -> isotropic ES            0.029969508743 Eh    ::
         :: -> anisotropic ES         -0.000087314091 Eh    ::
         :: -> anisotropic XC          0.012294482379 Eh    ::
         :: -> dispersion             -0.010590146814 Eh    ::
         :: -> Gsolv                  -0.013498915502 Eh    ::
         ::    -> Gborn               -0.005578041998 Eh    ::
         ::    -> Gsasa               -0.012361702677 Eh    ::
         ::    -> Ghb                  0.000000000000 Eh    ::
         ::    -> Gshift               0.004440829173 Eh    ::
         :: repulsion energy           0.366225133852 Eh    ::
         :: add. restraining           0.000000000000 Eh    ::
         :::::::::::::::::::::::::::::::::::::::::::::::::::::

           -------------------------------------------------
          |                Property Printout                |
           -------------------------------------------------

    * Orbital Energies and Occupations

         #    Occupation            Energy/Eh            Energy/eV
      -------------------------------------------------------------
         1        2.0000           -0.7208747             -19.6160
       ...           ...                  ...                  ...
         8        2.0000           -0.5588772             -15.2078
         9        2.0000           -0.5423180             -14.7572
        10        2.0000           -0.5405809             -14.7100
        11        2.0000           -0.5193512             -14.1323
        12        2.0000           -0.5019660             -13.6592
        13        2.0000           -0.4988862             -13.5754
        14        2.0000           -0.4914746             -13.3737
        15        2.0000           -0.4911322             -13.3644
        16        2.0000           -0.4499694             -12.2443
        17        2.0000           -0.4359771             -11.8635
        18        2.0000           -0.4243212             -11.5464
        19        2.0000           -0.4220637             -11.4849
        20        2.0000           -0.4073936             -11.0857 (HOMO)
        21                         -0.2981463              -8.1130 (LUMO)
        22                         -0.2389628              -6.5025
        23                         -0.2050853              -5.5807
        24                         -0.0982582              -2.6737
        25                          0.0910357               2.4772
        26                          0.1133337               3.0840
        27                          0.1392329               3.7887
        28                          0.1601331               4.3574
        29                          0.1770627               4.8181
        30                          0.1829984               4.9796
        31                          0.2195674               5.9747
       ...                                ...                  ...
        38                          0.6571432              17.8818
      -------------------------------------------------------------
                  HL-Gap            0.1092473 Eh            2.9728 eV
             Fermi-level           -0.3527699 Eh           -9.5994 eV

     #   Z        covCN         q      C6AA      α(0)
     1   6 C      2.971    -0.011    28.295     8.725
     2   6 C      2.923    -0.022    28.552     8.763
     3   6 C      2.917    -0.023    28.579     8.766
     4   6 C      2.921    -0.015    28.385     8.737
     5   6 C      2.917    -0.023    28.590     8.768
     6   6 C      2.923    -0.012    28.306     8.725
     7   1 H      0.926     0.051     2.312     2.378
     8   1 H      0.926     0.054     2.272     2.357
     9   1 H      0.926     0.055     2.253     2.347
    10   1 H      0.926     0.052     2.290     2.366
    11   1 H      0.926     0.055     2.258     2.350
    12   6 C      2.768     0.210    23.554     7.948
    13   8 O      0.856    -0.390    21.490     6.215
    14   1 H      0.922     0.019     2.742     2.590

 Mol. C6AA /au·bohr⁶  :       2562.104273
 Mol. C8AA /au·bohr⁸  :      62846.998857
 Mol. α(0) /au        :         81.035470


Wiberg/Mayer (AO) data.
largest (>0.10) Wiberg bond orders for each atom
          total WBO             WBO to atom ...
     1  C   3.989        C    2 1.364    C    6 1.361    C   12 1.079
     2  C   3.990        C    3 1.463    C    1 1.364    H    7 0.967    C    5 0.104
     3  C   3.991        C    2 1.463    C    4 1.427    H    8 0.969    C    6 0.104
     4  C   3.989        C    3 1.427    C    5 1.426    H    9 0.970
     5  C   3.991        C    6 1.464    C    4 1.426    H   10 0.969    C    2 0.104
     6  C   3.989        C    5 1.464    C    1 1.361    H   11 0.967    C    3 0.104
     7  H   0.997        C    2 0.967
     8  H   0.997        C    3 0.969
     9  H   0.997        C    4 0.970
    10  H   0.997        C    5 0.969
    11  H   0.997        C    6 0.967
    12  C   3.915        O   13 1.829    C    1 1.079    H   14 0.933
[...]
      1       0.007940  -0.055899  -0.043774  -0.226591  -0.081440   0.185271
      2      -0.000016   0.000022   0.000025   0.000089   0.000072  -0.000194
      3       0.008873   0.032324   0.005155  -0.035945   0.033627   0.272554
      4      -0.089506   0.015241  -0.019162  -0.074010   0.036919   0.146639
      5       0.000046   0.000007   0.000011   0.000036  -0.000014  -0.000005
      6       0.074411   0.026897   0.020631   0.097403  -0.009039  -0.000846
      7       0.002853  -0.021953  -0.027802   0.019233   0.036879  -0.280463
      8       0.000017   0.000026   0.000016   0.000018  -0.000025   0.000177
      9      -0.050287   0.017736  -0.020809   0.024134  -0.041355  -0.281839
     10       0.042507  -0.008503   0.011889   0.032113   0.031650   0.165437
     11       0.000001  -0.000020   0.000029  -0.000013  -0.000048  -0.000211
     12       0.011978  -0.050548  -0.012603  -0.015385  -0.047075   0.250246
     13      -0.046129   0.013564   0.012815   0.086663   0.009303   0.121338
     14       0.000018  -0.000026  -0.000015  -0.000053  -0.000013   0.000005
     15       0.063111  -0.023917   0.003505  -0.028460  -0.021767   0.000662
     16       0.034180   0.001326   0.026111  -0.068107  -0.068111  -0.292015
     17      -0.000000  -0.000004  -0.000020   0.000028   0.000036   0.000181
     18      -0.365337   0.386493   0.392352   0.164286  -0.439356  -0.053983
     19      -0.303156   0.213506   0.199770   0.025467  -0.232171  -0.035364
     20       0.000130  -0.000053  -0.000020   0.000024   0.000022   0.000005
     21       0.077230   0.025778   0.020423   0.100194  -0.009692   0.000474
     22       0.273478  -0.119769  -0.587118   0.648160  -0.356753  -0.163976
     23      -0.000110   0.000060   0.000424  -0.000378   0.000209   0.000089
     24      -0.416045   0.381748  -0.539264   0.027830   0.243018   0.138761
     25       0.256822  -0.216969   0.316667   0.037181  -0.133294  -0.080563
     26      -0.000617   0.000498  -0.000717  -0.000003   0.000296   0.000264
     27      -0.275749  -0.503059   0.177371   0.393192   0.407380   0.091885
     28      -0.211684  -0.243821   0.119746   0.321160   0.267919   0.031547
     29       0.000147   0.000018   0.000009  -0.000111  -0.000079   0.000010
     30       0.057482  -0.030878   0.000817  -0.038641  -0.029683  -0.006263
     31       0.550133   0.513391   0.121568  -0.139421   0.516121  -0.017759
     32      -0.000351  -0.000368  -0.000061   0.000092  -0.000346   0.000011
     33       0.003343   0.003269   0.002574   0.002425  -0.001932  -0.003915
     34      -0.007078   0.034293   0.018815   0.112792   0.048265  -0.097909
     35       0.000004  -0.000018  -0.000011  -0.000061  -0.000028   0.000065
     36       0.009179   0.006716   0.005362   0.039028   0.008923  -0.035406
     37       0.005963   0.002951   0.002259   0.015218  -0.010769   0.035644
     38      -0.000002   0.000001  -0.000002  -0.000002   0.000010  -0.000032
     39       0.012070   0.057276   0.040785   0.247853  -0.113992   0.530259
     40      -0.002105   0.068143   0.045031   0.270853  -0.051352   0.316448
     41       0.000002  -0.000027  -0.000023  -0.000121  -0.000001  -0.000068
                 30         31         32         33         34         35    
      0       0.014882  -0.161614   0.108737   0.293149  -0.209222  -0.056196
      1       0.020931   0.103064   0.179803  -0.232003  -0.096239   0.020340
      2      -0.000008  -0.000114  -0.000079   0.000235  -0.000006  -0.000033
      3      -0.001491  -0.012913  -0.157357  -0.181646   0.320778  -0.057611
      4      -0.046041  -0.128685  -0.013977   0.068564   0.239008  -0.063141
      5       0.000029   0.000079  -0.000040  -0.000096  -0.000049   0.000019
      6       0.009298   0.107330   0.047016   0.132835  -0.133840   0.014780
      7       0.083112   0.102688  -0.166043  -0.286894  -0.278833   0.078572
      8      -0.000048  -0.000029   0.000117   0.000220   0.000130  -0.000046
      9       0.006369  -0.138272   0.076303  -0.331001   0.186277  -0.001726
     10      -0.004227   0.081673   0.102889   0.254535   0.072270  -0.030349
     11      -0.000001  -0.000116  -0.000038  -0.000280   0.000019   0.000020
     12      -0.059188  -0.042072  -0.172681   0.146244  -0.325364   0.028562
     13      -0.064274  -0.136908  -0.028872  -0.130546  -0.232427   0.044153
     14       0.000022   0.000074  -0.000033   0.000126   0.000043  -0.000014
     15       0.031939   0.111326   0.059350  -0.085376   0.136353   0.013185
     16       0.043308   0.054339  -0.151272   0.319439   0.265374  -0.083813
     17      -0.000014   0.000004   0.000111  -0.000221  -0.000118   0.000048
     18      -0.046705   0.273075   0.347172   0.050152  -0.305686   0.039817
     19      -0.074343   0.030934   0.278318   0.176033  -0.114600   0.004224
     20       0.000033   0.000057  -0.000079  -0.000104  -0.000008   0.000001
     21       0.011499   0.111991   0.051192   0.122563  -0.122534   0.011626
     22      -0.171660  -0.272343   0.453885   0.236091   0.228143  -0.038073
     23       0.000109   0.000197  -0.000267  -0.000115  -0.000181   0.000024
     24       0.144960   0.463858   0.043700   0.353398  -0.019182  -0.016297
     25      -0.085907  -0.268632   0.128429  -0.149900   0.174297  -0.020734
     26       0.000149   0.000500  -0.000072   0.000364  -0.000164   0.000008
     27       0.113295   0.308936   0.348296   0.054496   0.303284  -0.001445
     28       0.032515   0.056442   0.271546  -0.166631   0.127371   0.017786
     29       0.000001   0.000033  -0.000081   0.000120  -0.000006  -0.000005
     30       0.034788   0.117584   0.056093  -0.059120   0.134110   0.018286
     31      -0.003189  -0.196348   0.448210  -0.255472  -0.218894   0.066187
     32       0.000009   0.000156  -0.000267   0.000137   0.000179  -0.000031
     33      -0.015005   0.004046  -0.010409   0.044218   0.081541   0.763020
     34      -0.092068   0.010765  -0.050519   0.023781   0.024803   0.124195
     35       0.000049  -0.000005   0.000029  -0.000008   0.000001   0.000117
     36      -0.056504   0.045667  -0.016970  -0.058149  -0.035933  -0.527313
     37       0.031929  -0.006605  -0.002038  -0.008983  -0.002666  -0.051621
     38      -0.000034   0.000017  -0.000003  -0.000006  -0.000006  -0.000092
     39       0.796232  -0.425390   0.007252   0.181933  -0.093184  -0.071269
     40       0.501919  -0.281117  -0.022945   0.101366  -0.081974  -0.281955
     41      -0.000107   0.000072   0.000016  -0.000011   0.000030   0.000123
                 36         37         38         39         40         41    
      0       0.003316   0.000269   0.000833   0.001893   0.000046   0.000689
      1      -0.004349   0.002477  -0.000100   0.001315   0.000848   0.000993
      2       0.000004  -0.000001   0.000000  -0.000000  -0.000000  -0.000000
      3      -0.000295  -0.035333   0.009000  -0.011783   0.009190  -0.007306
      4       0.001377   0.063450  -0.015541   0.019228  -0.017547   0.013526
      5      -0.000001  -0.000049   0.000012  -0.000015   0.000014  -0.000010
      6      -0.000177   0.031298   0.015975  -0.033140   0.051839  -0.042456
      7      -0.000223  -0.000127  -0.000495  -0.000365   0.000365   0.000481
      8       0.000000   0.000010   0.000005  -0.000010   0.000016  -0.000013
      9      -0.000167  -0.004452  -0.025647   0.019646   0.007064  -0.024787
     10       0.000057  -0.009405  -0.042974   0.034400   0.013614  -0.042200
     11      -0.000000   0.000004   0.000016  -0.000013  -0.000005   0.000016
     12       0.000435  -0.001744  -0.024100  -0.013917   0.017803   0.023841
     13      -0.000239   0.002331   0.041889   0.024749  -0.032835  -0.041327
     14       0.000000  -0.000002  -0.000033  -0.000019   0.000025   0.000032
     15      -0.000982  -0.001760   0.027767   0.051684   0.049447   0.029518
     16       0.000233  -0.000643   0.001320   0.000542   0.001066   0.000976
     17      -0.000000  -0.000000   0.000008   0.000016   0.000015   0.000009
     18      -0.001216   0.441592  -0.104477   0.129829  -0.108557   0.083241
     19      -0.009458  -0.778379   0.182949  -0.224956   0.192527  -0.147092
     20       0.000006   0.000611  -0.000144   0.000177  -0.000151   0.000115
     21       0.000943  -0.413714  -0.206686   0.406815  -0.613743   0.488947
     22      -0.000012   0.000026   0.001655  -0.000381   0.000255  -0.001263
     23       0.000000  -0.000129  -0.000065   0.000127  -0.000190   0.000152
     24       0.000492   0.069084   0.318883  -0.241574  -0.089821   0.281170
     25       0.001141   0.121649   0.544966  -0.415716  -0.155730   0.481616
     26      -0.000001  -0.000048  -0.000212   0.000162   0.000061  -0.000187
     27      -0.002157   0.020126   0.305139   0.171996  -0.215626  -0.270765
     28       0.001491  -0.033775  -0.535886  -0.304583   0.379960   0.474517
     29      -0.000001   0.000027   0.000420   0.000239  -0.000298  -0.000373
     30      -0.001689   0.020067  -0.357358  -0.637819  -0.586592  -0.339492
     31       0.003103   0.001562  -0.005443  -0.005854  -0.005896  -0.003663
     32      -0.000003   0.000005  -0.000109  -0.000196  -0.000180  -0.000104
     33       0.037528   0.000328  -0.000016   0.000348   0.000286   0.000532
     34      -0.062386   0.000438  -0.000174   0.000172  -0.000202   0.000521
     35       0.000054  -0.000000   0.000000  -0.000000   0.000000  -0.000000
     36       0.006922  -0.000226  -0.000017  -0.000335  -0.000137  -0.000439
     37      -0.001735  -0.000063   0.000036  -0.000038   0.000062  -0.000086
     38       0.000003   0.000000   0.000000  -0.000000  -0.000000   0.000000
     39      -0.578792   0.002199  -0.000642   0.000542  -0.000129   0.001816
     40       0.812097  -0.007386   0.002739  -0.001657   0.001252  -0.004035
     41      -0.000726   0.000005  -0.000002   0.000001  -0.000001   0.000003


-----------
IR SPECTRUM  
-----------

 Mode    freq (cm**-1)   T**2         TX         TY         TZ
-------------------------------------------------------------------
   6:       101.19    0.000000  (  0.000000   0.000000   0.000000)
   7:       203.53    0.000000  (  0.000000   0.000000   0.000000)
   8:       205.93    0.000000  (  0.000000   0.000000   0.000000)
   9:       364.37    0.000000  (  0.000000   0.000000   0.000000)
  10:       423.17    0.000000  (  0.000000   0.000000   0.000000)
  11:       433.83    0.000000  (  0.000000   0.000000   0.000000)
  12:       585.64    0.000000  (  0.000000   0.000000   0.000000)
  13:       625.26    0.000000  (  0.000000   0.000000   0.000000)
  14:       652.98    0.000000  (  0.000000   0.000000   0.000000)
  15:       738.39    0.000000  (  0.000000   0.000000   0.000000)
  16:       827.40    0.000000  (  0.000000   0.000000   0.000000)
  17:       873.79    0.000000  (  0.000000   0.000000   0.000000)
  18:       906.68    0.000000  (  0.000000   0.000000   0.000000)
  19:       929.50    0.000000  (  0.000000   0.000000   0.000000)
  20:       931.27    0.000000  (  0.000000   0.000000   0.000000)
  21:       936.60    0.000000  (  0.000000   0.000000   0.000000)
  22:       986.71    0.000000  (  0.000000   0.000000   0.000000)
  23:      1073.92    0.000000  (  0.000000   0.000000   0.000000)
  24:      1115.51    0.000000  (  0.000000   0.000000   0.000000)
  25:      1178.09    0.000000  (  0.000000   0.000000   0.000000)
  26:      1179.61    0.000000  (  0.000000   0.000000   0.000000)
  27:      1226.07    0.000000  (  0.000000   0.000000   0.000000)
  28:      1269.25    0.000000  (  0.000000   0.000000   0.000000)
  29:      1325.23    0.000000  (  0.000000   0.000000   0.000000)
  30:      1376.91    0.000000  (  0.000000   0.000000   0.000000)
  31:      1436.06    0.000000  (  0.000000   0.000000   0.000000)
  32:      1455.68    0.000000  (  0.000000   0.000000   0.000000)
  33:      1575.19    0.000000  (  0.000000   0.000000   0.000000)
  34:      1584.80    0.000000  (  0.000000   0.000000   0.000000)
  35:      1696.80    0.000000  (  0.000000   0.000000   0.000000)
  36:      2755.88    0.000000  (  0.000000   0.000000   0.000000)
  37:      3074.14    0.000000  (  0.000000   0.000000   0.000000)
  38:      3079.36    0.000000  (  0.000000   0.000000   0.000000)
  39:      3084.06    0.000000  (  0.000000   0.000000   0.000000)
  40:      3090.23    0.000000  (  0.000000   0.000000   0.000000)
  41:      3096.44    0.000000  (  0.000000   0.000000   0.000000)

The first frequency considered to be a vibration is 6
The total number of vibrations considered is 36


--------------------------
THERMOCHEMISTRY AT 298.15K
--------------------------

Temperature         ... 298.15 K
Pressure            ... 1.00 atm
Total Mass          ... 106.12 AMU

Throughout the following assumptions are being made:
  (1) The electronic state is orbitally nondegenerate
  (2) There are no thermally accessible electronically excited states
  (3) Hindered rotations indicated by low frequency modes are not
      treated as such but are treated as vibrations and this may
      cause some error
  (4) All equations used are the standard statistical mechanics
      equations for an ideal gas
  (5) All vibrations are strictly harmonic

freq.     101.19  E(vib)   ...       0.46 
freq.     203.53  E(vib)   ...       0.35 
freq.     205.93  E(vib)   ...       0.35 
freq.     364.37  E(vib)   ...       0.22 
freq.     423.17  E(vib)   ...       0.18 
freq.     433.83  E(vib)   ...       0.17 
freq.     585.64  E(vib)   ...       0.11 
freq.     625.26  E(vib)   ...       0.09 
freq.     652.98  E(vib)   ...       0.08 
freq.     738.39  E(vib)   ...       0.06 
freq.     827.40  E(vib)   ...       0.04 
freq.     873.79  E(vib)   ...       0.04 
freq.     906.68  E(vib)   ...       0.03 
freq.     929.50  E(vib)   ...       0.03 
freq.     931.27  E(vib)   ...       0.03 
freq.     936.60  E(vib)   ...       0.03 
freq.     986.71  E(vib)   ...       0.02 
freq.    1073.92  E(vib)   ...       0.02 
freq.    1115.51  E(vib)   ...       0.01 
freq.    1178.09  E(vib)   ...       0.01 
freq.    1179.61  E(vib)   ...       0.01 
freq.    1226.07  E(vib)   ...       0.01 
freq.    1269.25  E(vib)   ...       0.01 
freq.    1325.23  E(vib)   ...       0.01 
freq.    1376.91  E(vib)   ...       0.01 
freq.    1436.06  E(vib)   ...       0.00 
freq.    1455.68  E(vib)   ...       0.00 
freq.    1575.19  E(vib)   ...       0.00 
freq.    1584.80  E(vib)   ...       0.00 
freq.    1696.80  E(vib)   ...       0.00 
freq.    2755.88  E(vib)   ...       0.00 
freq.    3074.14  E(vib)   ...       0.00 
freq.    3079.36  E(vib)   ...       0.00 
freq.    3084.06  E(vib)   ...       0.00 
freq.    3090.23  E(vib)   ...       0.00 
freq.    3096.44  E(vib)   ...       0.00 

------------
INNER ENERGY
------------

The inner energy is: U= E(el) + E(ZPE) + E(vib) + E(rot) + E(trans)
    E(el)   - is the total energy from the electronic structure calculation
              = E(kin-el) + E(nuc-el) + E(el-el) + E(nuc-nuc)
    E(ZPE)  - the the zero temperature vibrational energy from the frequency calculation
    E(vib)  - the the finite temperature correction to E(ZPE) due to population
              of excited vibrational states
    E(rot)  - is the rotational thermal energy
    E(trans)- is the translational thermal energy

Summary of contributions to the inner energy U:
Electronic energy                ...    -22.08399271 Eh
Zero point energy                ...      0.10570577 Eh      66.33 kcal/mol
Thermal vibrational correction   ...      0.00381640 Eh       2.39 kcal/mol
Thermal rotational correction    ...      0.00141627 Eh       0.89 kcal/mol
Thermal translational correction ...      0.00141627 Eh       0.89 kcal/mol
-----------------------------------------------------------------------
Total thermal energy                    -21.97163800 Eh


Summary of corrections to the electronic energy:
(perhaps to be used in another calculation)
Total thermal correction                  0.00664894 Eh       4.17 kcal/mol
Non-thermal (ZPE) correction              0.10570577 Eh      66.33 kcal/mol
-----------------------------------------------------------------------
Total correction                          0.11235471 Eh      70.50 kcal/mol


--------
ENTHALPY
--------

The enthalpy is H = U + kB*T
                kB is Boltzmann's constant
Total free energy                 ...    -21.97163800 Eh 
Thermal Enthalpy correction       ...      0.00094421 Eh       0.59 kcal/mol
-----------------------------------------------------------------------
Total Enthalpy                    ...    -21.97069379 Eh


Note: Only C1 symmetry has been detected, increase convergence thresholds 
      if your molecule has a higher symmetry. Symmetry factor of 1.0 is   
      used for the rotational entropy correction. 
 

Note: Rotational entropy computed according to Herzberg 
Infrared and Raman Spectra, Chapter V,1, Van Nostrand Reinhold, 1945 
Point Group:  C1, Symmetry Number:   1  
Rotational constants in cm-1:     0.176707     0.052604     0.040536 

Vibrational entropy computed according to the QRRHO of S. Grimme
Chem.Eur.J. 2012 18 9955


-------
ENTROPY
-------

The entropy contributions are T*S = T*(S(el)+S(vib)+S(rot)+S(trans))
     S(el)   - electronic entropy
     S(vib)  - vibrational entropy
     S(rot)  - rotational entropy
     S(trans)- translational entropy
The entropies will be listed as mutliplied by the temperature to get
units of energy

Electronic entropy                ...      0.00000000 Eh      0.00 kcal/mol
Vibrational entropy               ...      0.00618130 Eh      3.88 kcal/mol
Rotational entropy                ...      0.01323267 Eh      8.30 kcal/mol
Translational entropy             ...      0.01895542 Eh     11.89 kcal/mol
-----------------------------------------------------------------------
Final entropy term                ...      0.03836939 Eh     24.08 kcal/mol

In case the symmetry of your molecule has not been determined correctly
or in case you have a reason to use a different symmetry number we print 
out the resulting rotational entropy values for sn=1,12 :
 --------------------------------------------------------
|  sn= 1 | S(rot)=       0.01323267 Eh      8.30 kcal/mol|
|  sn= 2 | S(rot)=       0.01257821 Eh      7.89 kcal/mol|
|  sn= 3 | S(rot)=       0.01219538 Eh      7.65 kcal/mol|
|  sn= 4 | S(rot)=       0.01192376 Eh      7.48 kcal/mol|
|  sn= 5 | S(rot)=       0.01171307 Eh      7.35 kcal/mol|
|  sn= 6 | S(rot)=       0.01154093 Eh      7.24 kcal/mol|
|  sn= 7 | S(rot)=       0.01139538 Eh      7.15 kcal/mol|
|  sn= 8 | S(rot)=       0.01126930 Eh      7.07 kcal/mol|
|  sn= 9 | S(rot)=       0.01115809 Eh      7.00 kcal/mol|
|  sn=10 | S(rot)=       0.01105861 Eh      6.94 kcal/mol|
|  sn=11 | S(rot)=       0.01096862 Eh      6.88 kcal/mol|
|  sn=12 | S(rot)=       0.01088647 Eh      6.83 kcal/mol|
 --------------------------------------------------------


-------------------
GIBBS FREE ENERGY
-------------------

The Gibbs free energy is G = H - T*S

Total enthalpy                    ...    -21.97069379 Eh 
Total entropy correction          ...     -0.03836939 Eh    -24.08 kcal/mol
-----------------------------------------------------------------------
Final Gibbs free energy         ...    -22.00906318 Eh

For completeness - the Gibbs free energy minus the electronic energy
G-E(el)                           ...      0.07492953 Eh     47.02 kcal/mol


Total Time for Numerical Frequencies  :        23.071 sec

Timings for individual modules:

Sum of individual times         ...        0.691 sec (=   0.012 min)
Geometry relaxation             ...        0.250 sec (=   0.004 min)  36.1 %
XTB module                      ...        0.441 sec (=   0.007 min)  63.9 %
                             ****ORCA TERMINATED NORMALLY****
TOTAL RUN TIME: 0 days 0 hours 0 minutes 24 seconds 576 msec
