
                                 *****************
                                 * O   R   C   A *
                                 *****************

           --- An Ab Initio, DFT and Semiempirical electronic structure package ---

                  #######################################################
                  #                        -***-                        #
                  #          Department of theory and spectroscopy      #
                  #               Directorship: Frank Neese             #
                  #        Max Planck Institute fuer Kohlenforschung    #
                  #                Kaiser Wilhelm Platz 1               #
                  #                 D-45470 Muelheim/Ruhr               #
                  #                      Germany                        #
                  #                                                     #
                  #                  All rights reserved                #
                  #                        -***-                        #
                  #######################################################


                         Program Version 4.2.1 -  RELEASE  -


 With contributions from (in alphabetic order):
   Daniel Aravena         : Magnetic Suceptibility
   Michael Atanasov       : Ab Initio Ligand Field Theory (pilot matlab implementation)
   Alexander A. Auer      : GIAO ZORA, VPT2
   Ute Becker             : Parallelization
   Giovanni Bistoni       : ED, misc. LED, open-shell LED, HFLD
   Martin Brehm           : Molecular dynamics
   Dmytro Bykov           : SCF Hessian
   Vijay G. Chilkuri      : MRCI spin determinant printing, contributions to CSF-ICE
   Dipayan Datta          : RHF DLPNO-CCSD density
   Achintya Kumar Dutta   : EOM-CC, STEOM-CC
   Dmitry Ganyushin       : Spin-Orbit,Spin-Spin,Magnetic field MRCI
   Miquel Garcia          : C-PCM Hessian, Gaussian charge scheme
   Yang Guo               : DLPNO-NEVPT2, CIM, IAO-localization
   Andreas Hansen         : Spin unrestricted coupled pair/coupled cluster methods
   Benjamin Helmich-Paris : CASSCF linear response (MC-RPA)
   Lee Huntington         : MR-EOM, pCC
   Robert Izsak           : Overlap fitted RIJCOSX, COSX-SCS-MP3, EOM
   Christian Kollmar      : KDIIS, OOCD, Brueckner-CCSD(T), CCSD density
   Simone Kossmann        : Meta GGA functionals, TD-DFT gradient, OOMP2, MP2 Hessian
   Martin Krupicka        : AUTO-CI
   Lucas Lang             : DCDCAS
   Dagmar Lenk            : GEPOL surface, SMD
   Dimitrios Liakos       : Extrapolation schemes; Compound Job, initial MDCI parallelization
   Dimitrios Manganas     : Further ROCIS development; embedding schemes
   Dimitrios Pantazis     : SARC Basis sets
   Taras Petrenko         : DFT Hessian,TD-DFT gradient, ASA, ECA, R-Raman, ABS, FL, XAS/XES, NRVS
   Peter Pinski           : DLPNO-MP2, DLPNO-MP2 Gradient
   Christoph Reimann      : Effective Core Potentials
   Marius Retegan         : Local ZFS, SOC
   Christoph Riplinger    : Optimizer, TS searches, QM/MM, DLPNO-CCSD(T), (RO)-DLPNO pert. Triples
   Tobias Risthaus        : Range-separated hybrids, TD-DFT gradient, RPA, STAB
   Michael Roemelt        : Original ROCIS implementation
   Masaaki Saitow         : Open-shell DLPNO-CCSD energy and density
   Barbara Sandhoefer     : DKH picture change effects
   Avijit Sen             : IP-ROCIS
   Kantharuban Sivalingam : CASSCF convergence, NEVPT2, FIC-MRCI
   Bernardo de Souza      : ESD, SOC TD-DFT
   Georgi Stoychev        : AutoAux, RI-MP2 NMR
   Willem Van den Heuvel  : Paramagnetic NMR
   Boris Wezisla          : Elementary symmetry handling
   Frank Wennmohs         : Technical directorship


 We gratefully acknowledge several colleagues who have allowed us to
 interface, adapt or use parts of their codes:
   Stefan Grimme, W. Hujo, H. Kruse,             : VdW corrections, initial TS optimization,
                  C. Bannwarth                     DFT functionals, gCP, sTDA/sTD-DF
   Ed Valeev, F. Pavosevic, A. Kumar             : LibInt (2-el integral package), F12 methods
   Garnet Chan, S. Sharma, J. Yang, R. Olivares  : DMRG
   Ulf Ekstrom                                   : XCFun DFT Library
   Mihaly Kallay                                 : mrcc  (arbitrary order and MRCC methods)
   Andreas Klamt, Michael Diedenhofen            : otool_cosmo (COSMO solvation model)
   Jiri Pittner, Ondrej Demel                    : Mk-CCSD
   Frank Weinhold                                : gennbo (NPA and NBO analysis)
   Christopher J. Cramer and Donald G. Truhlar   : smd solvation model
   Lars Goerigk                                  : TD-DFT with DH, B97 family of functionals
   V. Asgeirsson, H. Jonsson                     : NEB implementation
   FAccTs GmbH                                   : IRC, NEB, NEB-TS, Multilevel, MM, QM/MM, CI optimization
   S Lehtola, MJT Oliveira, MAL Marques          : LibXC Library


 Your calculation uses the libint2 library for the computation of 2-el integrals
 For citations please refer to: http://libint.valeyev.net

 Your ORCA version has been built with support for libXC version: 4.2.3
 For citations please refer to: https://tddft.org/programs/libxc/

 This ORCA versions uses:
   CBLAS   interface :  Fast vector & matrix operations
   LAPACKE interface :  Fast linear algebra routines
   SCALAPACK package :  Parallel linear algebra routines




***************************************
The coordinates will be read from file: init.xyz
***************************************


Your calculation utilizes the SMD solvation module
Please cite in your paper:
A.V. Marenich, C.J. Cramer, D.G. Truhlar J. Phys. Chem. B, 113, (2009), 6378 

Your calculation utilizes the semiempirical GFN2-xTB method
Please cite in your paper:
C. Bannwarth, Ehlert S., S. Grimme,  J. Chem. Theory Comput., 15, (2019), 1652.
   

----- Orbital basis set information -----
Your calculation utilizes the basis: def2-SVP
   F. Weigend and R. Ahlrichs, Phys. Chem. Chem. Phys. 7, 3297 (2005).

================================================================================
                                        WARNINGS
                       Please study these warnings very carefully!
================================================================================


WARNING: The environment variable RSH_COMMAND is not set!
  ===> : All Displacements for the Numerical Hessian calculation
         will be started on localhost

WARNING: Geometry Optimization
  ===> : Switching off AutoStart
         For restart on a previous wavefunction, please use MOREAD

WARNING: Found dipole moment calculation with XTB calculation
  ===> : Switching off dipole moment calculation


INFO   : the flag for use of LIBINT has been found!

================================================================================
                                       INPUT FILE
================================================================================
NAME = opt+freq.inp
|  1> ! XTB2 Opt NumFreq
|  2> 
|  3> %cpcm
|  4>  smd true
|  5>  smdsolvent "ch2cl2"
|  6> end
|  7> 
|  8> %pal
|  9>  nprocs 12
| 10> end
| 11> 
| 12> *xyzfile 0 1 init.xyz
| 13> 
| 14> 
| 15>                          ****END OF INPUT****
================================================================================

                       *****************************
                       * Geometry Optimization Run *
                       *****************************

Geometry optimization settings:
Update method            Update   .... BFGS
Choice of coordinates    CoordSys .... Z-matrix Internals
Initial Hessian          InHess   .... Almoef's Model

Convergence Tolerances:
Energy Change            TolE     ....  5.0000e-06 Eh
Max. Gradient            TolMAXG  ....  3.0000e-04 Eh/bohr
RMS Gradient             TolRMSG  ....  1.0000e-04 Eh/bohr
Max. Displacement        TolMAXD  ....  4.0000e-03 bohr
RMS Displacement         TolRMSD  ....  2.0000e-03 bohr
Strict Convergence                ....  False
------------------------------------------------------------------------------
                        ORCA OPTIMIZATION COORDINATE SETUP
------------------------------------------------------------------------------

The optimization will be done in new redundant internal coordinates
Making redundant internal coordinates   ...  (new redundants) done
Evaluating the initial hessian          ...  (Almloef) done
Evaluating the coordinates              ...  done
Calculating the B-matrix                .... done
Calculating the G-matrix                .... done
Diagonalizing the G-matrix              .... done
Small eigenvalue found = 4.578e-03
Small eigenvalue found = 7.342e-03
Small eigenvalue found = 2.091e-02
The first mode is                       ....   70
The number of degrees of freedom        ....   84

    -----------------------------------------------------------------
                    Redundant Internal Coordinates


    -----------------------------------------------------------------
         Definition                    Initial Value    Approx d2E/dq
    -----------------------------------------------------------------
      1. B(C   1,C   0)                  1.3890         0.627155   
      2. B(C   2,C   1)                  1.3952         0.612940   
      3. B(C   3,C   2)                  1.3925         0.619157   
      4. B(C   4,C   3)                  1.3930         0.617915   
      5. B(C   5,C   4)                  1.3902         0.624298   
      6. B(C   5,C   0)                  1.3932         0.617517   
      7. B(H   6,C   1)                  1.0832         0.369228   
      8. B(H   7,C   3)                  1.0812         0.371986   
      9. B(H   8,C   5)                  1.0822         0.370522   
     10. B(C  10,N   9)                  1.4631         0.427743   
     11. B(H  11,C  10)                  1.0935         0.355504   
     12. B(H  12,C  10)                  1.0941         0.354675   
     13. B(H  13,N   9)                  1.0134         0.427343   
     14. B(C  15,N   9)                  1.4279         0.486832   
     15. B(C  15,C   2)                  1.5221         0.384624   
     16. B(H  16,C  15)                  1.0952         0.353340   
     17. B(O  17,C  15)                  1.4468         0.454256   
     18. B(O  17,H  14)                  0.9664         0.507924   
     19. B(C  18,C  10)                  1.5321         0.370685   
     20. B(H  19,C  18)                  1.0905         0.359493   
     21. B(H  20,C  18)                  1.0956         0.352828   
     22. B(H  21,C   0)                  1.0824         0.370290   
     23. B(H  22,C   4)                  1.0825         0.370111   
     24. B(C  23,C  18)                  1.5283         0.375959   
     25. B(H  24,C  23)                  1.0948         0.353786   
     26. B(H  25,C  23)                  1.0947         0.353874   
     27. B(C  26,C  23)                  1.5271         0.377545   
     28. B(H  27,C  26)                  1.0927         0.356498   
     29. B(H  28,C  26)                  1.0920         0.357481   
     30. B(H  29,C  26)                  1.0928         0.356425   
     31. A(C   1,C   0,C   5)          120.0462         0.434649   
     32. A(C   5,C   0,H  21)          120.0847         0.354340   
     33. A(C   1,C   0,H  21)          119.8691         0.355272   
     34. A(C   0,C   1,C   2)          120.6367         0.434068   
     35. A(C   2,C   1,H   6)          119.3923         0.353721   
     36. A(C   0,C   1,H   6)          119.9709         0.355099   
     37. A(C   3,C   2,C  15)          121.5317         0.398625   
     38. A(C   1,C   2,C   3)          119.0733         0.433067   
     39. A(C   1,C   2,C  15)          119.3717         0.397919   
     40. A(C   2,C   3,C   4)          120.4119         0.433697   
     41. A(C   4,C   3,H   7)          120.2649         0.354653   
     42. A(C   2,C   3,H   7)          119.3220         0.354774   
     43. A(C   3,C   4,C   5)          120.2157         0.434343   
     44. A(C   5,C   4,H  22)          120.0266         0.354967   
     45. A(C   3,C   4,H  22)          119.7574         0.354350   
     46. A(C   4,C   5,H   8)          120.2249         0.355034   
     47. A(C   0,C   5,C   4)          119.6153         0.434292   
     48. A(C   0,C   5,H   8)          120.1595         0.354378   
     49. A(H  13,N   9,C  15)          111.0114         0.343587   
     50. A(C  10,N   9,C  15)          118.3085         0.384440   
     51. A(C  10,N   9,H  13)          112.0829         0.336239   
     52. A(H  12,C  10,C  18)          108.6518         0.323100   
     53. A(N   9,C  10,C  18)          116.9753         0.369069   
     54. A(N   9,C  10,H  12)          107.3353         0.328820   
     55. A(N   9,C  10,H  11)          107.3478         0.328947   
     56. A(H  11,C  10,H  12)          106.3609         0.289563   
     57. A(H  11,C  10,C  18)          109.6583         0.323224   
     58. A(H  16,C  15,O  17)          108.2790         0.331899   
     59. A(N   9,C  15,O  17)          111.0122         0.388489   
     60. A(C   2,C  15,O  17)          111.4393         0.375289   
     61. A(C   2,C  15,H  16)          108.9160         0.324862   
     62. A(C   2,C  15,N   9)          109.7309         0.379813   
     63. A(N   9,C  15,H  16)          107.3418         0.335737   
     64. A(H  14,O  17,C  15)          108.3062         0.349620   
     65. A(C  10,C  18,H  19)          109.3718         0.323816   
     66. A(H  20,C  18,C  23)          109.4836         0.323572   
     67. A(H  19,C  18,C  23)          110.1252         0.324568   
     68. A(C  10,C  18,C  23)          112.3633         0.363264   
     69. A(H  19,C  18,H  20)          106.5677         0.289833   
     70. A(C  10,C  18,H  20)          108.7516         0.322823   
     71. A(H  25,C  23,C  26)          109.3618         0.323953   
     72. A(H  24,C  23,C  26)          109.4528         0.323940   
     73. A(C  18,C  23,C  26)          112.9840         0.364405   
     74. A(H  24,C  23,H  25)          106.1815         0.289241   
     75. A(C  18,C  23,H  25)          109.1894         0.323730   
     76. A(C  18,C  23,H  24)          109.4436         0.323716   
     77. A(H  28,C  26,H  29)          107.6552         0.290039   
     78. A(H  27,C  26,H  29)          107.4875         0.289914   
     79. A(C  23,C  26,H  29)          111.1413         0.324336   
     80. A(H  27,C  26,H  28)          107.6952         0.290048   
     81. A(C  23,C  26,H  28)          111.5637         0.324493   
     82. A(C  23,C  26,H  27)          111.1079         0.324346   
     83. D(C   2,C   1,C   0,C   5)      0.2626         0.027256   
     84. D(H   6,C   1,C   0,H  21)      0.4978         0.027256   
     85. D(C   2,C   1,C   0,H  21)   -179.6612         0.027256   
     86. D(H   6,C   1,C   0,C   5)   -179.5784         0.027256   
     87. D(C   3,C   2,C   1,H   6)    179.7256         0.025962   
     88. D(C   3,C   2,C   1,C   0)     -0.1163         0.025962   
     89. D(C  15,C   2,C   1,H   6)      1.4558         0.025962   
     90. D(C  15,C   2,C   1,C   0)   -178.3861         0.025962   
     91. D(H   7,C   3,C   2,C   1)    179.4411         0.026523   
     92. D(H   7,C   3,C   2,C  15)     -2.3279         0.026523   
     93. D(C   4,C   3,C   2,C   1)     -0.1719         0.026523   
     94. D(C   4,C   3,C   2,C  15)    178.0590         0.026523   
     95. D(C   5,C   4,C   3,H   7)   -179.2943         0.026410   
     96. D(H  22,C   4,C   3,C   2)   -179.9121         0.026410   
     97. D(H  22,C   4,C   3,H   7)      0.4785         0.026410   
     98. D(C   5,C   4,C   3,C   2)      0.3151         0.026410   
     99. D(H   8,C   5,C   4,H  22)     -0.1104         0.026992   
    100. D(H   8,C   5,C   4,C   3)    179.6617         0.026992   
    101. D(C   0,C   5,C   4,H  22)   -179.9399         0.026992   
    102. D(H   8,C   5,C   0,H  21)     -0.0251         0.026374   
    103. D(C   4,C   5,C   0,H  21)    179.8045         0.026374   
    104. D(H   8,C   5,C   0,C   1)   -179.9487         0.026374   
    105. D(C   4,C   5,C   0,C   1)     -0.1191         0.026374   
    106. D(C   0,C   5,C   4,C   3)     -0.1678         0.026992   
    107. D(C  18,C  10,N   9,C  15)    -78.2423         0.015599   
    108. D(C  18,C  10,N   9,H  13)     52.9075         0.015599   
    109. D(H  12,C  10,N   9,C  15)    159.4267         0.015599   
    110. D(H  11,C  10,N   9,H  13)    176.5814         0.015599   
    111. D(H  11,C  10,N   9,C  15)     45.4315         0.015599   
    112. D(H  12,C  10,N   9,H  13)    -69.4234         0.015599   
    113. D(N   9,C  15,C   2,C   1)     81.1002         0.011023   
    114. D(O  17,C  15,N   9,H  13)    -64.2329         0.020289   
    115. D(O  17,C  15,N   9,C  10)     67.3970         0.020289   
    116. D(H  16,C  15,N   9,H  13)    177.6074         0.020289   
    117. D(H  16,C  15,N   9,C  10)    -50.7627         0.020289   
    118. D(C   2,C  15,N   9,H  13)     59.3911         0.020289   
    119. D(C   2,C  15,N   9,C  10)   -168.9790         0.020289   
    120. D(O  17,C  15,C   2,C   3)     26.2478         0.011023   
    121. D(O  17,C  15,C   2,C   1)   -155.5265         0.011023   
    122. D(H  16,C  15,C   2,C   3)    145.6388         0.011023   
    123. D(H  16,C  15,C   2,C   1)    -36.1354         0.011023   
    124. D(N   9,C  15,C   2,C   3)    -97.1256         0.011023   
    125. D(H  14,O  17,C  15,H  16)    -58.5761         0.016253   
    126. D(H  14,O  17,C  15,N   9)   -176.1665         0.016253   
    127. D(H  14,O  17,C  15,C   2)     61.1926         0.016253   
    128. D(C  23,C  18,C  10,H  12)    -54.2909         0.010982   
    129. D(C  23,C  18,C  10,H  11)     61.5760         0.010982   
    130. D(C  23,C  18,C  10,N   9)   -175.9373         0.010982   
    131. D(H  20,C  18,C  10,H  12)     67.0783         0.010982   
    132. D(H  20,C  18,C  10,H  11)   -177.0548         0.010982   
    133. D(H  20,C  18,C  10,N   9)    -54.5681         0.010982   
    134. D(H  19,C  18,C  10,H  12)   -176.9093         0.010982   
    135. D(H  19,C  18,C  10,H  11)    -61.0424         0.010982   
    136. D(H  19,C  18,C  10,N   9)     61.4444         0.010982   
    137. D(C  26,C  23,C  18,H  19)    -57.6635         0.011278   
    138. D(C  26,C  23,C  18,C  10)   -179.8557         0.011278   
    139. D(H  25,C  23,C  18,H  20)   -178.8727         0.011278   
    140. D(H  25,C  23,C  18,H  19)     64.2691         0.011278   
    141. D(H  25,C  23,C  18,C  10)    -57.9231         0.011278   
    142. D(H  24,C  23,C  18,H  20)    -63.0377         0.011278   
    143. D(H  24,C  23,C  18,H  19)   -179.8959         0.011278   
    144. D(C  26,C  23,C  18,H  20)     59.1947         0.011278   
    145. D(H  24,C  23,C  18,C  10)     57.9119         0.011278   
    146. D(H  29,C  26,C  23,H  25)    178.2516         0.011368   
    147. D(H  29,C  26,C  23,C  18)    -59.9127         0.011368   
    148. D(H  28,C  26,C  23,H  25)     58.0882         0.011368   
    149. D(H  28,C  26,C  23,H  24)    -57.8488         0.011368   
    150. D(H  28,C  26,C  23,C  18)    179.9240         0.011368   
    151. D(H  27,C  26,C  23,H  25)    -62.1031         0.011368   
    152. D(H  29,C  26,C  23,H  24)     62.3146         0.011368   
    153. D(H  27,C  26,C  23,H  24)   -178.0401         0.011368   
    154. D(H  27,C  26,C  23,C  18)     59.7327         0.011368   
    -----------------------------------------------------------------

Number of atoms                         .... 30
Number of degrees of freedom            .... 154

         *************************************************************
         *                GEOMETRY OPTIMIZATION CYCLE   1            *
         *************************************************************
      -----------------------------------------------------------      
     |                   =====================                   |     
     |                           x T B                           |     
     |                   =====================                   |     
     |                         S. Grimme                         |     
     |          Mulliken Center for Theoretical Chemistry        |     
     |                    University of Bonn                     |     
      -----------------------------------------------------------      

   * xtb version 6.3.0 (49875a8) compiled by 'schneider@apollo14' on 2020-05-23

   xtb is free software: you can redistribute it and/or modify it under
   the terms of the GNU Lesser General Public License as published by
   the Free Software Foundation, either version 3 of the License, or
   (at your option) any later version.
   
   xtb is distributed in the hope that it will be useful,
   but WITHOUT ANY WARRANTY; without even the implied warranty of
   MERCHANTABILITY or FITNESS FOR A PARTICULAR PURPOSE.  See the
   GNU Lesser General Public License for more details.
   
   Cite this work as:
   * S. Grimme, C. Bannwarth, P. Shushkov, J. Chem. Theory Comput., 2017,
     13, 1989-2009. DOI: 10.1021/acs.jctc.7b00118
   * C. Bannwarth, S. Ehlert and S. Grimme., J. Chem. Theory Comput., 2019,
     15, 1652-1671. DOI: 10.1021/acs.jctc.8b01176
   * P. Pracht, E. Caldeweyher, S. Ehlert, S. Grimme, ChemRxiv, 2019, preprint.
     DOI: 10.26434/chemrxiv.8326202.v1
   
   for GFN-FF:
   * S. Spicher and S. Grimme, Angew. Chem. Int. Ed., 2020,
     DOI: 10.1002/anie.202004239
   
   for DFT-D4:
   * E. Caldeweyher, C. Bannwarth and S. Grimme, J. Chem. Phys., 2017,
     147, 034112. DOI: 10.1063/1.4993215
   * E. Caldeweyher, S. Ehlert, A. Hansen, H. Neugebauer, S. Spicher,
     C. Bannwarth and S. Grimme, J. Chem. Phys., 2019, 150, 154122.
     DOI: 10.1063/1.5090222
   
   for sTDA-xTB:
   * S. Grimme and C. Bannwarth, J. Chem. Phys., 2016, 145, 054103.
     DOI: 10.1063/1.4959605
   
   in the mass-spec context:
   * V. Asgeirsson, C. Bauer and S. Grimme, Chem. Sci., 2017, 8, 4879.
     DOI: 10.1039/c7sc00601b
   * J. Koopman and S. Grimme, ACS Omega 2019, 4, 12, 15120-15133.
     DOI: 10.1021/acsomega.9b02011
   
   for metadynamics refer to:
   * S. Grimme, J. Chem. Theory Comput., 2019, 155, 2847-2862
     DOI: 10.1021/acs.jctc.9b00143
   
   with help from (in alphabetical order)
   C. Bannwarth, F. Bohle, G. Brandenburg, E. Caldeweyher, M. Checinski,
   S. Dohm, S. Ehlert, S. Ehrlich, F. März, H. Neugebauer, J. Pisarek,
   P. Pracht, P. Shushkov, and S. Spicher.
   
 * started run on 2020/06/19 at 17:15:10.440     

           -------------------------------------------------
          |                Calculation Setup                |
           -------------------------------------------------

          program call               : /opt/orca/otool_xtb opt+freq_XTB.xyz --grad -c 0 -u 0 -P 12 --namespace opt+freq --gbsa CH2Cl2
          calculation namespace      : opt+freq
          coordinate file            : opt+freq_XTB.xyz
          number of atoms            :                    30
          number of electrons        :                    72
          charge                     :                     0
          spin                       :                   0.0
          first test random number   :      0.58047183522043

   ID    Z sym.   atoms
    1    6 C      1-6, 11, 16, 19, 24, 27
    2    1 H      7-9, 12-15, 17, 20-23, 25, 26, 28-30
    3    7 N      10
    4    8 O      18
########################################################################
[WARNING] Please study the warnings concerning your input carefully
-1- prog_main_parseArguments: Process number higher than OMP_NUM_THREADS, I hope you know what you are doing.
########################################################################
 Solvent             : CH2Cl2
 Using internal parameter file: .param_gbsa2_CH2Cl2
 Gsolv ref. state (COSMO-RS): gsolv [1 M gas/solution]
 temperature (mdtemp)       :    298.14999999999998     
 dielectric constant        :    8.9299999999999997     
 rho                        :    1.3300000000000003     
 mass                       :    84.930000000000007     
 surface tension            :    15.568945408385856     
 probe radius               :   0.71987590000000001     
 Gshift (Eh)                :    4.4408291734517593E-003
 c1                         :    1.4917377599999999     
 soset                      :    0.0000000000000000     
 HB correction              :  F

           -------------------------------------------------
          |                 G F N 2 - x T B                 |
           -------------------------------------------------

        Reference                      10.1021/acs.jctc.8b01176
      * Hamiltonian:
        H0-scaling (s, p, d)           1.850000    2.230000    2.230000
        zeta-weighting                 0.500000
      * Dispersion:
        s8                             2.700000
        a1                             0.520000
        a2                             5.000000
        s9                             5.000000
      * Repulsion:
        kExp                           1.500000    1.000000
        rExp                           1.000000
      * Coulomb:
        alpha                          2.000000
        third order                    shell-resolved
        anisotropic                    true
        a3                             3.000000
        a5                             4.000000
        cn-shift                       1.200000
        cn-exp                         4.000000
        max-rad                        5.000000


          ...................................................
          :                      SETUP                      :
          :.................................................:
          :  # basis functions                  69          :
          :  # atomic orbitals                  69          :
          :  # shells                           43          :
          :  # electrons                        72          :
          :  max. iterations                   250          :
          :  Hamiltonian                  GFN2-xTB          :
          :  restarted?                      false          :
          :  GBSA solvation                   true          :
          :  PC potential                    false          :
          :  electronic temp.          300.0000000     K    :
          :  accuracy                    1.0000000          :
          :  -> integral cutoff          0.2500000E+02      :
          :  -> integral neglect         0.1000000E-07      :
          :  -> SCF convergence          0.1000000E-05 Eh   :
          :  -> wf. convergence          0.1000000E-03 e    :
          :  Broyden damping             0.4000000          :
          ...................................................

 iter      E             dE          RMSdq      gap      omega  full diag
   1    -39.7249649 -0.397250E+02  0.383E+00    3.91       0.0  T
   2    -39.7634440 -0.384792E-01  0.221E+00    3.95       1.0  T
   3    -39.7634949 -0.509353E-04  0.647E-01    3.81       1.0  T
   4    -39.7647411 -0.124611E-02  0.222E-01    3.81       1.0  T
   5    -39.7660098 -0.126870E-02  0.669E-02    3.80       1.0  T
   6    -39.7660346 -0.248834E-04  0.280E-02    3.80       1.0  T
   7    -39.7660356 -0.981079E-06  0.985E-03    3.80       1.9  T
   8    -39.7660365 -0.907061E-06  0.305E-03    3.80       6.0  T
   9    -39.7660366 -0.103074E-06  0.140E-03    3.80      13.1  T
  10    -39.7660366 -0.100496E-08  0.444E-04    3.80      41.1  T
  11    -39.7660366 -0.275035E-08  0.130E-04    3.80     140.9  T

   *** convergence criteria satisfied after 11 iterations ***

         #    Occupation            Energy/Eh            Energy/eV
      -------------------------------------------------------------
         1        2.0000           -0.6926672             -18.8484
       ...           ...                  ...                  ...
        30        2.0000           -0.4347190             -11.8293
        31        2.0000           -0.4247890             -11.5591
        32        2.0000           -0.4220314             -11.4841
        33        2.0000           -0.4117534             -11.2044
        34        2.0000           -0.4064506             -11.0601
        35        2.0000           -0.4025953             -10.9552
        36        2.0000           -0.3699137             -10.0659 (HOMO)
        37                         -0.2301059              -6.2615 (LUMO)
        38                         -0.2276351              -6.1943
        39                         -0.1032421              -2.8094
        40                          0.0163633               0.4453
        41                          0.0237433               0.6461
       ...                                ...                  ...
        69                          0.6418540              17.4657
      -------------------------------------------------------------
                  HL-Gap            0.1398078 Eh            3.8044 eV
             Fermi-level           -0.3000098 Eh           -8.1637 eV

 SCC (total)                   0 d,  0 h,  0 min,  0.080 sec
 SCC setup                      ...        0 min,  0.001 sec (  1.391%)
 Dispersion                     ...        0 min,  0.000 sec (  0.476%)
 classical contributions        ...        0 min,  0.000 sec (  0.124%)
 integral evaluation            ...        0 min,  0.015 sec ( 19.278%)
 iterations                     ...        0 min,  0.039 sec ( 48.527%)
 molecular gradient             ...        0 min,  0.023 sec ( 28.660%)
 printout                       ...        0 min,  0.001 sec (  1.517%)

         :::::::::::::::::::::::::::::::::::::::::::::::::::::
         ::                     SUMMARY                     ::
         :::::::::::::::::::::::::::::::::::::::::::::::::::::
         :: total energy             -39.212576812243 Eh    ::
         :: total w/o Gsasa/hb       -39.196879808779 Eh    ::
         :: gradient norm              0.021856546241 Eh/a0 ::
         :: HOMO-LUMO gap              3.804364896742 eV    ::
         ::.................................................::
         :: SCC energy               -39.781733637004 Eh    ::
         :: -> isotropic ES            0.041244017325 Eh    ::
         :: -> anisotropic ES          0.005965983079 Eh    ::
         :: -> anisotropic XC          0.022145876361 Eh    ::
         :: -> dispersion             -0.023610917135 Eh    ::
         :: -> Gsolv                  -0.018620146498 Eh    ::
         ::    -> Gborn               -0.002923143035 Eh    ::
         ::    -> Gsasa               -0.020137832637 Eh    ::
         ::    -> Ghb                  0.000000000000 Eh    ::
         ::    -> Gshift               0.004440829173 Eh    ::
         :: repulsion energy           0.569230026210 Eh    ::
         :: add. restraining           0.000000000000 Eh    ::
         :::::::::::::::::::::::::::::::::::::::::::::::::::::

           -------------------------------------------------
          |                Property Printout                |
           -------------------------------------------------

    * Orbital Energies and Occupations

         #    Occupation            Energy/Eh            Energy/eV
      -------------------------------------------------------------
         1        2.0000           -0.6926672             -18.8484
       ...           ...                  ...                  ...
        24        2.0000           -0.4775599             -12.9951
        25        2.0000           -0.4689232             -12.7601
        26        2.0000           -0.4629530             -12.5976
        27        2.0000           -0.4522262             -12.3057
        28        2.0000           -0.4397128             -11.9652
        29        2.0000           -0.4377517             -11.9118
        30        2.0000           -0.4347190             -11.8293
        31        2.0000           -0.4247890             -11.5591
        32        2.0000           -0.4220314             -11.4841
        33        2.0000           -0.4117534             -11.2044
        34        2.0000           -0.4064506             -11.0601
        35        2.0000           -0.4025953             -10.9552
        36        2.0000           -0.3699137             -10.0659 (HOMO)
        37                         -0.2301059              -6.2615 (LUMO)
        38                         -0.2276351              -6.1943
        39                         -0.1032421              -2.8094
        40                          0.0163633               0.4453
        41                          0.0237433               0.6461
        42                          0.0789850               2.1493
        43                          0.0860512               2.3416
        44                          0.1043837               2.8404
        45                          0.1180557               3.2125
        46                          0.1224274               3.3314
        47                          0.1386794               3.7737
       ...                                ...                  ...
        69                          0.6418540              17.4657
      -------------------------------------------------------------
                  HL-Gap            0.1398078 Eh            3.8044 eV
             Fermi-level           -0.3000098 Eh           -8.1637 eV

     #   Z        covCN         q      C6AA      α(0)
     1   6 C      2.914    -0.029    28.723     8.788
     2   6 C      2.919    -0.036    28.891     8.814
     3   6 C      2.967    -0.015    28.374     8.737
     4   6 C      2.918    -0.033    28.829     8.805
     5   6 C      2.914    -0.031    28.776     8.796
     6   6 C      2.914    -0.031    28.772     8.796
     7   1 H      0.925     0.036     2.497     2.471
     8   1 H      0.926     0.041     2.432     2.439
     9   1 H      0.925     0.039     2.462     2.454
    10   7 N      2.681    -0.269    26.970     7.713
    11   6 C      3.736     0.011    20.479     6.458
    12   1 H      0.924     0.035     2.516     2.481
    13   1 H      0.924     0.037     2.487     2.466
    14   1 H      0.860     0.151     1.396     1.851
    15   1 H      0.805     0.293     0.743     1.354
    16   6 C      3.663     0.179    17.975     6.082
    17   1 H      0.924     0.019     2.746     2.591
    18   8 O      1.651    -0.489    22.657     6.425
    19   6 C      3.800    -0.065    21.748     6.640
    20   1 H      0.924     0.042     2.421     2.433
    21   1 H      0.924     0.028     2.620     2.531
    22   1 H      0.925     0.040     2.444     2.445
    23   1 H      0.925     0.038     2.476     2.461
    24   6 C      3.800    -0.053    21.535     6.607
    25   1 H      0.924     0.030     2.587     2.515
    26   1 H      0.924     0.030     2.593     2.518
    27   6 C      3.749    -0.100    22.482     6.762
    28   1 H      0.924     0.034     2.535     2.490
    29   1 H      0.924     0.035     2.510     2.478
    30   1 H      0.924     0.034     2.537     2.491

 Mol. C6AA /au·bohr⁶  :       8213.356252
 Mol. C8AA /au·bohr⁸  :     185394.588056
 Mol. α(0) /au        :        139.893678


Wiberg/Mayer (AO) data.
largest (>0.10) Wiberg bond orders for each atom
          total WBO             WBO to atom ...
     1  C   3.991        C    2 1.452    C    6 1.431    H   22 0.971    C    4 0.111
     2  C   3.991        C    1 1.452    C    3 1.408    H    7 0.969    C    5 0.113
     3  C   3.986        C    4 1.426    C    2 1.408    C   16 0.973    C    6 0.110
     4  C   3.991        C    5 1.434    C    3 1.426    H    8 0.968    C    1 0.111
     5  C   3.991        C    6 1.447    C    4 1.434    H   23 0.971    C    2 0.113
     6  C   3.991        C    5 1.447    C    1 1.431    H    9 0.971    C    3 0.110
     7  H   0.999        C    2 0.969
     8  H   0.998        C    4 0.968
     9  H   0.998        C    6 0.971
    10  N   3.111        C   16 1.035    C   11 1.003    H   14 0.950
    11  C   3.978        N   10 1.003    C   19 0.996    H   12 0.973    H   13 0.972
    12  H   0.999        C   11 0.973
    13  H   0.998        C   11 0.972
    14  H   0.977        N   10 0.950
    15  H   0.914        O   18 0.898
    16  C   3.950        N   10 1.035    C    3 0.973    H   17 0.954    O   18 0.938
    17  H   0.999        C   16 0.954
    18  O   1.933        C   16 0.938    H   15 0.898
    19  C   3.996        C   24 1.007    C   11 0.996    H   21 0.977    H   20 0.975
    20  H   0.998        C   19 0.975
    21  H   0.999        C   19 0.977
    22  H   0.998        C    1 0.971
    23  H   0.998        C    5 0.971
    24  C   3.997        C   27 1.019    C   19 1.007    H   26 0.978    H   25 0.978
    25  H   0.999        C   24 0.978
    26  H   0.999        C   24 0.978
    27  C   3.997        C   24 1.019    H   28 0.988    H   30 0.988    H   29 0.987
    28  H   0.999        C   27 0.988
    29  H   0.998        C   27 0.987
    30  H   0.999        C   27 0.988
Topologies differ in total number of bonds
Writing topology from bond orders to xtbtopo.mol

molecular dipole:
                 x           y           z       tot (Debye)
 q only:        0.387       0.236       0.105
   full:        0.395       0.062       0.292       1.257
molecular quadrupole (traceless):
                xx          xy          yy          xz          yz          zz
 q only:        1.323      -2.381      -1.535       0.686       0.239       0.212
  q+dip:        0.519      -2.458      -0.255      -0.730       2.178      -0.263
   full:        0.041      -2.291      -1.681       0.263       1.363       1.640


           -------------------------------------------------
          | TOTAL ENERGY              -39.212576812243 Eh   |
          | GRADIENT NORM               0.021856546241 Eh/α |
          | HOMO-LUMO GAP               3.804364896742 eV   |
           -------------------------------------------------

------------------------------------------------------------------------
 * finished run on 2020/06/19 at 17:15:10.556     
------------------------------------------------------------------------
 total:
 * wall-time:     0 d,  0 h,  0 min,  0.116 sec
 *  cpu-time:     0 d,  0 h,  0 min,  1.208 sec
 * ratio c/w:    10.397 speedup
 SCF:
 * wall-time:     0 d,  0 h,  0 min,  0.080 sec
 *  cpu-time:     0 d,  0 h,  0 min,  0.846 sec
 * ratio c/w:    10.551 speedup


-------------------------   --------------------
FINAL SINGLE POINT ENERGY       -39.212576812240
-------------------------   --------------------

------------------------------------------------------------------------------
                         ORCA GEOMETRY RELAXATION STEP
------------------------------------------------------------------------------

Reading the OPT-File                    .... done
Getting information on internals        .... done
Copying old internal coords+grads       .... done
Making the new internal coordinates     .... (new redundants).... done
Validating the new internal coordinates .... (new redundants).... done
Calculating the B-matrix                .... done
Calculating the G,G- and P matrices     .... done
Transforming gradient to internals      .... done
Projecting the internal gradient        .... done
Number of atoms                         ....  30
Number of internal coordinates          .... 154
Current Energy                          ....   -39.212576812 Eh
Current gradient norm                   ....     0.021856546 Eh/bohr
Maximum allowed component of the step   ....  0.300
Current trust radius                    ....  0.300
Evaluating the initial hessian          ....  (Almloef) done
Projecting the Hessian                  .... done
Forming the augmented Hessian           .... done
Diagonalizing the augmented Hessian     .... done
Last element of RFO vector              ....  0.992509806
Lowest eigenvalues of augmented Hessian:
 -0.001923718  0.010989882  0.011039491  0.011278301  0.011368321
Length of the computed step             ....  0.123086935
The final length of the internal step   ....  0.123086935
Converting the step to cartesian space:
 Initial RMS(Int)=    0.0099186278
Transforming coordinates:
 Iter   0:  RMS(Cart)=    0.0529991198 RMS(Int)=    1.0116740686
 Iter   1:  RMS(Cart)=    0.0005905662 RMS(Int)=    0.0001958766
 Iter   2:  RMS(Cart)=    0.0000101258 RMS(Int)=    0.0000040631
 Iter   3:  RMS(Cart)=    0.0000003631 RMS(Int)=    0.0000001351
 Iter   4:  RMS(Cart)=    0.0000000067 RMS(Int)=    0.0000000035
done
Storing new coordinates                 .... done

                                .--------------------.
          ----------------------|Geometry convergence|-------------------------
          Item                value                   Tolerance       Converged
          ---------------------------------------------------------------------
          RMS gradient        0.0020836636            0.0001000000      NO
          MAX gradient        0.0103621504            0.0003000000      NO
          RMS step            0.0099186278            0.0020000000      NO
          MAX step            0.0358420698            0.0040000000      NO
          ........................................................
          Max(Bonds)      0.0128      Max(Angles)    1.02
          Max(Dihed)        2.05      Max(Improp)    0.00
          ---------------------------------------------------------------------

The optimization has not yet converged - more geometry cycles are needed


    ---------------------------------------------------------------------------
                         Redundant Internal Coordinates
                            (Angstroem and degrees)

        Definition                    Value    dE/dq     Step     New-Value
    ----------------------------------------------------------------------------
     1. B(C   1,C   0)                1.3890  0.006742 -0.0056    1.3833   
     2. B(C   2,C   1)                1.3952  0.006223 -0.0053    1.3899   
     3. B(C   3,C   2)                1.3925  0.005786 -0.0049    1.3876   
     4. B(C   4,C   3)                1.3930  0.008382 -0.0072    1.3858   
     5. B(C   5,C   4)                1.3902  0.006833 -0.0058    1.3844   
     6. B(C   5,C   0)                1.3932  0.006975 -0.0060    1.3872   
     7. B(H   6,C   1)                1.0832  0.002071 -0.0030    1.0802   
     8. B(H   7,C   3)                1.0812  0.000314 -0.0004    1.0807   
     9. B(H   8,C   5)                1.0822  0.001705 -0.0024    1.0798   
    10. B(C  10,N   9)                1.4631  0.010362 -0.0128    1.4504   
    11. B(H  11,C  10)                1.0935 -0.000574  0.0009    1.0943   
    12. B(H  12,C  10)                1.0941 -0.001182  0.0018    1.0959   
    13. B(H  13,N   9)                1.0134  0.000650 -0.0008    1.0126   
    14. B(C  15,N   9)                1.4279  0.001745 -0.0019    1.4260   
    15. B(C  15,C   2)                1.5221  0.004632 -0.0063    1.5157   
    16. B(H  16,C  15)                1.0952 -0.004423  0.0066    1.1017   
    17. B(O  17,C  15)                1.4468  0.005475 -0.0064    1.4404   
    18. B(O  17,H  14)                0.9664  0.002302 -0.0024    0.9640   
    19. B(C  18,C  10)                1.5321  0.001342 -0.0019    1.5302   
    20. B(H  19,C  18)                1.0905 -0.001073  0.0016    1.0920   
    21. B(H  20,C  18)                1.0956  0.000486 -0.0007    1.0948   
    22. B(H  21,C   0)                1.0824  0.001786 -0.0025    1.0799   
    23. B(H  22,C   4)                1.0825  0.001697 -0.0024    1.0801   
    24. B(C  23,C  18)                1.5283  0.002941 -0.0041    1.5241   
    25. B(H  24,C  23)                1.0948  0.000640 -0.0010    1.0939   
    26. B(H  25,C  23)                1.0947  0.000503 -0.0007    1.0940   
    27. B(C  26,C  23)                1.5271  0.004328 -0.0060    1.5211   
    28. B(H  27,C  26)                1.0927  0.002427 -0.0036    1.0892   
    29. B(H  28,C  26)                1.0920  0.002513 -0.0037    1.0883   
    30. B(H  29,C  26)                1.0928  0.002414 -0.0036    1.0892   
    31. A(C   1,C   0,C   5)          120.05 -0.000203    0.03    120.08   
    32. A(C   5,C   0,H  21)          120.08  0.000060   -0.01    120.08   
    33. A(C   1,C   0,H  21)          119.87  0.000143   -0.02    119.85   
    34. A(C   0,C   1,C   2)          120.64  0.001434   -0.19    120.45   
    35. A(C   2,C   1,H   6)          119.39 -0.000418    0.05    119.44   
    36. A(C   0,C   1,H   6)          119.97 -0.001015    0.14    120.11   
    37. A(C   3,C   2,C  15)          121.53  0.001623   -0.23    121.30   
    38. A(C   1,C   2,C   3)          119.07 -0.001096    0.16    119.23   
    39. A(C   1,C   2,C  15)          119.37 -0.000527    0.07    119.45   
    40. A(C   2,C   3,C   4)          120.41  0.000428   -0.06    120.35   
    41. A(C   4,C   3,H   7)          120.26 -0.000046    0.00    120.27   
    42. A(C   2,C   3,H   7)          119.32 -0.000382    0.06    119.38   
    43. A(C   3,C   4,C   5)          120.22  0.000211   -0.04    120.18   
    44. A(C   5,C   4,H  22)          120.03 -0.000443    0.07    120.10   
    45. A(C   3,C   4,H  22)          119.76  0.000231   -0.03    119.72   
    46. A(C   4,C   5,H   8)          120.22  0.000476   -0.06    120.16   
    47. A(C   0,C   5,C   4)          119.62 -0.000774    0.10    119.71   
    48. A(C   0,C   5,H   8)          120.16  0.000298   -0.03    120.12   
    49. A(H  13,N   9,C  15)          111.01 -0.000857   -0.37    110.64   
    50. A(C  10,N   9,C  15)          118.31  0.001831   -0.64    117.67   
    51. A(C  10,N   9,H  13)          112.08  0.000614   -0.67    111.41   
    52. A(H  12,C  10,C  18)          108.65 -0.002478    0.49    109.14   
    53. A(N   9,C  10,C  18)          116.98  0.004580   -1.02    115.95   
    54. A(N   9,C  10,H  12)          107.34  0.000332   -0.34    107.00   
    55. A(N   9,C  10,H  11)          107.35 -0.000986   -0.06    107.29   
    56. A(H  11,C  10,H  12)          106.36 -0.000679    0.88    107.24   
    57. A(H  11,C  10,C  18)          109.66 -0.001153    0.21    109.87   
    58. A(H  16,C  15,O  17)          108.28  0.000586    0.12    108.40   
    59. A(N   9,C  15,O  17)          111.01 -0.001606    0.18    111.19   
    60. A(C   2,C  15,O  17)          111.44 -0.000648    0.01    111.44   
    61. A(C   2,C  15,H  16)          108.92 -0.001208    0.30    109.21   
    62. A(C   2,C  15,N   9)          109.73  0.003615   -0.78    108.95   
    63. A(N   9,C  15,H  16)          107.34 -0.000805    0.21    107.55   
    64. A(H  14,O  17,C  15)          108.31 -0.000393    0.06    108.37   
    65. A(C  10,C  18,H  19)          109.37 -0.000532    0.01    109.38   
    66. A(H  20,C  18,C  23)          109.48 -0.000454    0.07    109.55   
    67. A(H  19,C  18,C  23)          110.13 -0.000188   -0.08    110.04   
    68. A(C  10,C  18,C  23)          112.36  0.001888   -0.45    111.92   
    69. A(H  19,C  18,H  20)          106.57 -0.000288    0.40    106.97   
    70. A(C  10,C  18,H  20)          108.75 -0.000548    0.10    108.85   
    71. A(H  25,C  23,C  26)          109.36 -0.000566    0.03    109.40   
    72. A(H  24,C  23,C  26)          109.45 -0.000692    0.01    109.46   
    73. A(C  18,C  23,C  26)          112.98  0.002947   -0.71    112.27   
    74. A(H  24,C  23,H  25)          106.18 -0.000554    0.68    106.86   
    75. A(C  18,C  23,H  25)          109.19 -0.000829    0.10    109.29   
    76. A(C  18,C  23,H  24)          109.44 -0.000522   -0.03    109.42   
    77. A(H  28,C  26,H  29)          107.66 -0.001980    0.35    108.00   
    78. A(H  27,C  26,H  29)          107.49 -0.001553    0.33    107.82   
    79. A(C  23,C  26,H  29)          111.14  0.001320   -0.24    110.90   
    80. A(H  27,C  26,H  28)          107.70 -0.001966    0.34    108.04   
    81. A(C  23,C  26,H  28)          111.56  0.002537   -0.49    111.08   
    82. A(C  23,C  26,H  27)          111.11  0.001309   -0.24    110.87   
    83. D(C   2,C   1,C   0,C   5)      0.26  0.000038   -0.08      0.18   
    84. D(H   6,C   1,C   0,H  21)      0.50  0.000060   -0.12      0.37   
    85. D(C   2,C   1,C   0,H  21)   -179.66  0.000028   -0.06   -179.72   
    86. D(H   6,C   1,C   0,C   5)   -179.58  0.000069   -0.15   -179.73   
    87. D(C   3,C   2,C   1,H   6)    179.73  0.000109   -0.20    179.53   
    88. D(C   3,C   2,C   1,C   0)     -0.12  0.000142   -0.27     -0.38   
    89. D(C  15,C   2,C   1,H   6)      1.46  0.000101   -0.26      1.20   
    90. D(C  15,C   2,C   1,C   0)   -178.39  0.000134   -0.33   -178.71   
    91. D(H   7,C   3,C   2,C   1)    179.44 -0.000365    0.73    180.17   
    92. D(H   7,C   3,C   2,C  15)     -2.33 -0.000397    0.80     -1.53   
    93. D(C   4,C   3,C   2,C   1)     -0.17 -0.000279    0.55      0.38   
    94. D(C   4,C   3,C   2,C  15)    178.06 -0.000311    0.61    178.67   
    95. D(C   5,C   4,C   3,H   7)   -179.29  0.000328   -0.67   -179.96   
    96. D(H  22,C   4,C   3,C   2)   -179.91  0.000037   -0.07   -179.98   
    97. D(H  22,C   4,C   3,H   7)      0.48  0.000124   -0.25      0.22   
    98. D(C   5,C   4,C   3,C   2)      0.32  0.000241   -0.48     -0.17   
    99. D(H   8,C   5,C   4,H  22)     -0.11  0.000036   -0.07     -0.18   
   100. D(H   8,C   5,C   4,C   3)    179.66 -0.000167    0.34    180.00   
   101. D(C   0,C   5,C   4,H  22)   -179.94  0.000146   -0.29   -180.23   
   102. D(H   8,C   5,C   0,H  21)     -0.03  0.000044   -0.09     -0.11   
   103. D(C   4,C   5,C   0,H  21)    179.80 -0.000067    0.13    179.93   
   104. D(H   8,C   5,C   0,C   1)   -179.95  0.000034   -0.06   -180.01   
   105. D(C   4,C   5,C   0,C   1)     -0.12 -0.000076    0.16      0.04   
   106. D(C   0,C   5,C   4,C   3)     -0.17 -0.000057    0.12     -0.04   
   107. D(C  18,C  10,N   9,C  15)    -78.24 -0.000968    1.38    -76.86   
   108. D(C  18,C  10,N   9,H  13)     52.91  0.000236   -0.54     52.37   
   109. D(H  12,C  10,N   9,C  15)    159.43 -0.001135    1.71    161.14   
   110. D(H  11,C  10,N   9,H  13)    176.58  0.001166   -1.04    175.55   
   111. D(H  11,C  10,N   9,C  15)     45.43 -0.000038    0.89     46.32   
   112. D(H  12,C  10,N   9,H  13)    -69.42  0.000069   -0.21    -69.63   
   113. D(N   9,C  15,C   2,C   1)     81.10 -0.000082    0.89     81.99   
   114. D(O  17,C  15,N   9,H  13)    -64.23 -0.001643    2.05    -62.18   
   115. D(O  17,C  15,N   9,C  10)     67.40  0.000191    0.02     67.41   
   116. D(H  16,C  15,N   9,H  13)    177.61 -0.000967    1.68    179.29   
   117. D(H  16,C  15,N   9,C  10)    -50.76  0.000867   -0.36    -51.12   
   118. D(C   2,C  15,N   9,H  13)     59.39 -0.001038    1.64     61.03   
   119. D(C   2,C  15,N   9,C  10)   -168.98  0.000796   -0.40   -169.38   
   120. D(O  17,C  15,C   2,C   3)     26.25  0.000020    0.50     26.75   
   121. D(O  17,C  15,C   2,C   1)   -155.53 -0.000022    0.57   -154.96   
   122. D(H  16,C  15,C   2,C   3)    145.64 -0.000430    0.85    146.48   
   123. D(H  16,C  15,C   2,C   1)    -36.14 -0.000472    0.91    -35.22   
   124. D(N   9,C  15,C   2,C   3)    -97.13 -0.000040    0.82    -96.30   
   125. D(H  14,O  17,C  15,H  16)    -58.58  0.000291   -0.96    -59.54   
   126. D(H  14,O  17,C  15,N   9)   -176.17  0.001834   -1.39   -177.56   
   127. D(H  14,O  17,C  15,C   2)     61.19 -0.001214   -0.52     60.68   
   128. D(C  23,C  18,C  10,H  12)    -54.29  0.001768   -1.40    -55.69   
   129. D(C  23,C  18,C  10,H  11)     61.58 -0.001065    0.05     61.62   
   130. D(C  23,C  18,C  10,N   9)   -175.94  0.000071   -0.62   -176.55   
   131. D(H  20,C  18,C  10,H  12)     67.08  0.002043   -1.53     65.55   
   132. D(H  20,C  18,C  10,H  11)   -177.05 -0.000790   -0.09   -177.14   
   133. D(H  20,C  18,C  10,N   9)    -54.57  0.000346   -0.75    -55.32   
   134. D(H  19,C  18,C  10,H  12)   -176.91  0.001102   -0.99   -177.90   
   135. D(H  19,C  18,C  10,H  11)    -61.04 -0.001731    0.45    -60.59   
   136. D(H  19,C  18,C  10,N   9)     61.44 -0.000595   -0.22     61.23   
   137. D(C  26,C  23,C  18,H  19)    -57.66  0.000444   -0.37    -58.03   
   138. D(C  26,C  23,C  18,C  10)   -179.86 -0.000045   -0.02   -179.87   
   139. D(H  25,C  23,C  18,H  20)   -178.87  0.000387   -0.26   -179.13   
   140. D(H  25,C  23,C  18,H  19)     64.27  0.001113   -0.73     63.54   
   141. D(H  25,C  23,C  18,C  10)    -57.92  0.000624   -0.38    -58.30   
   142. D(H  24,C  23,C  18,H  20)    -63.04 -0.001033    0.60    -62.44   
   143. D(H  24,C  23,C  18,H  19)   -179.90 -0.000307    0.12   -179.77   
   144. D(C  26,C  23,C  18,H  20)     59.19 -0.000282    0.10     59.30   
   145. D(H  24,C  23,C  18,C  10)     57.91 -0.000796    0.48     58.39   
   146. D(H  29,C  26,C  23,H  25)    178.25 -0.000520    0.30    178.55   
   147. D(H  29,C  26,C  23,C  18)    -59.91  0.000007   -0.03    -59.94   
   148. D(H  28,C  26,C  23,H  25)     58.09 -0.000621    0.35     58.44   
   149. D(H  28,C  26,C  23,H  24)    -57.85  0.000753   -0.50    -58.34   
   150. D(H  28,C  26,C  23,C  18)    179.92 -0.000094    0.02    179.94   
   151. D(H  27,C  26,C  23,H  25)    -62.10 -0.000732    0.40    -61.70   
   152. D(H  29,C  26,C  23,H  24)     62.31  0.000854   -0.54     61.77   
   153. D(H  27,C  26,C  23,H  24)   -178.04  0.000642   -0.44   -178.48   
   154. D(H  27,C  26,C  23,C  18)     59.73 -0.000205    0.07     59.81   
    ----------------------------------------------------------------------------

         *************************************************************
         *                GEOMETRY OPTIMIZATION CYCLE   2            *
         *************************************************************
      -----------------------------------------------------------      
     |                   =====================                   |     
     |                           x T B                           |     
     |                   =====================                   |     
     |                         S. Grimme                         |     
     |          Mulliken Center for Theoretical Chemistry        |     
     |                    University of Bonn                     |     
      -----------------------------------------------------------      

   * xtb version 6.3.0 (49875a8) compiled by 'schneider@apollo14' on 2020-05-23

   xtb is free software: you can redistribute it and/or modify it under
   the terms of the GNU Lesser General Public License as published by
   the Free Software Foundation, either version 3 of the License, or
   (at your option) any later version.
   
   xtb is distributed in the hope that it will be useful,
   but WITHOUT ANY WARRANTY; without even the implied warranty of
   MERCHANTABILITY or FITNESS FOR A PARTICULAR PURPOSE.  See the
   GNU Lesser General Public License for more details.
   
   Cite this work as:
   * S. Grimme, C. Bannwarth, P. Shushkov, J. Chem. Theory Comput., 2017,
     13, 1989-2009. DOI: 10.1021/acs.jctc.7b00118
   * C. Bannwarth, S. Ehlert and S. Grimme., J. Chem. Theory Comput., 2019,
     15, 1652-1671. DOI: 10.1021/acs.jctc.8b01176
   * P. Pracht, E. Caldeweyher, S. Ehlert, S. Grimme, ChemRxiv, 2019, preprint.
     DOI: 10.26434/chemrxiv.8326202.v1
   
   for GFN-FF:
   * S. Spicher and S. Grimme, Angew. Chem. Int. Ed., 2020,
     DOI: 10.1002/anie.202004239
   
   for DFT-D4:
   * E. Caldeweyher, C. Bannwarth and S. Grimme, J. Chem. Phys., 2017,
     147, 034112. DOI: 10.1063/1.4993215
   * E. Caldeweyher, S. Ehlert, A. Hansen, H. Neugebauer, S. Spicher,
     C. Bannwarth and S. Grimme, J. Chem. Phys., 2019, 150, 154122.
     DOI: 10.1063/1.5090222
   
   for sTDA-xTB:
   * S. Grimme and C. Bannwarth, J. Chem. Phys., 2016, 145, 054103.
     DOI: 10.1063/1.4959605
   
   in the mass-spec context:
   * V. Asgeirsson, C. Bauer and S. Grimme, Chem. Sci., 2017, 8, 4879.
     DOI: 10.1039/c7sc00601b
   * J. Koopman and S. Grimme, ACS Omega 2019, 4, 12, 15120-15133.
     DOI: 10.1021/acsomega.9b02011
   
   for metadynamics refer to:
   * S. Grimme, J. Chem. Theory Comput., 2019, 155, 2847-2862
     DOI: 10.1021/acs.jctc.9b00143
   
   with help from (in alphabetical order)
   C. Bannwarth, F. Bohle, G. Brandenburg, E. Caldeweyher, M. Checinski,
   S. Dohm, S. Ehlert, S. Ehrlich, F. März, H. Neugebauer, J. Pisarek,
   P. Pracht, P. Shushkov, and S. Spicher.
   
 * started run on 2020/06/19 at 17:15:10.962     

           -------------------------------------------------
          |                Calculation Setup                |
           -------------------------------------------------

          program call               : /opt/orca/otool_xtb opt+freq_XTB.xyz --grad -c 0 -u 0 -P 12 --namespace opt+freq --gbsa CH2Cl2
          calculation namespace      : opt+freq
          coordinate file            : opt+freq_XTB.xyz
          number of atoms            :                    30
          number of electrons        :                    72
          charge                     :                     0
          spin                       :                   0.0
          first test random number   :      0.44842799124681

   ID    Z sym.   atoms
    1    6 C      1-6, 11, 16, 19, 24, 27
    2    1 H      7-9, 12-15, 17, 20-23, 25, 26, 28-30
    3    7 N      10
    4    8 O      18
########################################################################
[WARNING] Please study the warnings concerning your input carefully
-1- prog_main_parseArguments: Process number higher than OMP_NUM_THREADS, I hope you know what you are doing.
########################################################################
 Solvent             : CH2Cl2
 Using internal parameter file: .param_gbsa2_CH2Cl2
 Gsolv ref. state (COSMO-RS): gsolv [1 M gas/solution]
 temperature (mdtemp)       :    298.14999999999998     
 dielectric constant        :    8.9299999999999997     
 rho                        :    1.3300000000000003     
 mass                       :    84.930000000000007     
 surface tension            :    15.568945408385856     
 probe radius               :   0.71987590000000001     
 Gshift (Eh)                :    4.4408291734517593E-003
 c1                         :    1.4917377599999999     
 soset                      :    0.0000000000000000     
 HB correction              :  F

           -------------------------------------------------
          |                 G F N 2 - x T B                 |
           -------------------------------------------------

        Reference                      10.1021/acs.jctc.8b01176
      * Hamiltonian:
        H0-scaling (s, p, d)           1.850000    2.230000    2.230000
        zeta-weighting                 0.500000
      * Dispersion:
        s8                             2.700000
        a1                             0.520000
        a2                             5.000000
        s9                             5.000000
      * Repulsion:
        kExp                           1.500000    1.000000
        rExp                           1.000000
      * Coulomb:
        alpha                          2.000000
        third order                    shell-resolved
        anisotropic                    true
        a3                             3.000000
        a5                             4.000000
        cn-shift                       1.200000
        cn-exp                         4.000000
        max-rad                        5.000000


          ...................................................
          :                      SETUP                      :
          :.................................................:
          :  # basis functions                  69          :
          :  # atomic orbitals                  69          :
          :  # shells                           43          :
          :  # electrons                        72          :
          :  max. iterations                   250          :
          :  Hamiltonian                  GFN2-xTB          :
          :  restarted?                      false          :
          :  GBSA solvation                   true          :
          :  PC potential                    false          :
          :  electronic temp.          300.0000000     K    :
          :  accuracy                    1.0000000          :
          :  -> integral cutoff          0.2500000E+02      :
          :  -> integral neglect         0.1000000E-07      :
          :  -> SCF convergence          0.1000000E-05 Eh   :
          :  -> wf. convergence          0.1000000E-03 e    :
          :  Broyden damping             0.4000000          :
          ...................................................

 iter      E             dE          RMSdq      gap      omega  full diag
   1    -39.7392096 -0.397392E+02  0.382E+00    3.94       0.0  T
   2    -39.7778905 -0.386809E-01  0.221E+00    3.99       1.0  T
   3    -39.7780884 -0.197861E-03  0.643E-01    3.85       1.0  T
   4    -39.7792655 -0.117712E-02  0.215E-01    3.85       1.0  T
   5    -39.7804393 -0.117386E-02  0.663E-02    3.84       1.0  T
   6    -39.7804636 -0.242296E-04  0.277E-02    3.84       1.0  T
   7    -39.7804646 -0.102058E-05  0.948E-03    3.84       1.9  T
   8    -39.7804654 -0.796086E-06  0.297E-03    3.84       6.1  T
   9    -39.7804655 -0.933174E-07  0.138E-03    3.84      13.2  T
  10    -39.7804655 -0.140351E-08  0.399E-04    3.84      45.8  T
  11    -39.7804655 -0.210563E-08  0.128E-04    3.84     142.7  T

   *** convergence criteria satisfied after 11 iterations ***

         #    Occupation            Energy/Eh            Energy/eV
      -------------------------------------------------------------
         1        2.0000           -0.6942139             -18.8905
       ...           ...                  ...                  ...
        30        2.0000           -0.4346840             -11.8284
        31        2.0000           -0.4246177             -11.5544
        32        2.0000           -0.4224751             -11.4961
        33        2.0000           -0.4111475             -11.1879
        34        2.0000           -0.4074730             -11.0879
        35        2.0000           -0.4032892             -10.9741
        36        2.0000           -0.3699766             -10.0676 (HOMO)
        37                         -0.2287548              -6.2247 (LUMO)
        38                         -0.2261736              -6.1545
        39                         -0.0996191              -2.7108
        40                          0.0298258               0.8116
        41                          0.0322471               0.8775
       ...                                ...                  ...
        69                          0.6584844              17.9183
      -------------------------------------------------------------
                  HL-Gap            0.1412218 Eh            3.8428 eV
             Fermi-level           -0.2993657 Eh           -8.1462 eV

 SCC (total)                   0 d,  0 h,  0 min,  0.065 sec
 SCC setup                      ...        0 min,  0.001 sec (  1.361%)
 Dispersion                     ...        0 min,  0.000 sec (  0.408%)
 classical contributions        ...        0 min,  0.000 sec (  0.160%)
 integral evaluation            ...        0 min,  0.009 sec ( 14.289%)
 iterations                     ...        0 min,  0.030 sec ( 45.417%)
 molecular gradient             ...        0 min,  0.024 sec ( 36.264%)
 printout                       ...        0 min,  0.001 sec (  2.072%)

         :::::::::::::::::::::::::::::::::::::::::::::::::::::
         ::                     SUMMARY                     ::
         :::::::::::::::::::::::::::::::::::::::::::::::::::::
         :: total energy             -39.213708011317 Eh    ::
         :: total w/o Gsasa/hb       -39.198146738717 Eh    ::
         :: gradient norm              0.011493774426 Eh/a0 ::
         :: HOMO-LUMO gap              3.842841671101 eV    ::
         ::.................................................::
         :: SCC energy               -39.796026753784 Eh    ::
         :: -> isotropic ES            0.040954154602 Eh    ::
         :: -> anisotropic ES          0.005549692598 Eh    ::
         :: -> anisotropic XC          0.022040398280 Eh    ::
         :: -> dispersion             -0.023806920678 Eh    ::
         :: -> Gsolv                  -0.018405671233 Eh    ::
         ::    -> Gborn               -0.002844398633 Eh    ::
         ::    -> Gsasa               -0.020002101774 Eh    ::
         ::    -> Ghb                  0.000000000000 Eh    ::
         ::    -> Gshift               0.004440829173 Eh    ::
         :: repulsion energy           0.582389252645 Eh    ::
         :: add. restraining           0.000000000000 Eh    ::
         :::::::::::::::::::::::::::::::::::::::::::::::::::::

           -------------------------------------------------
          |                Property Printout                |
           -------------------------------------------------

    * Orbital Energies and Occupations

         #    Occupation            Energy/Eh            Energy/eV
      -------------------------------------------------------------
         1        2.0000           -0.6942139             -18.8905
       ...           ...                  ...                  ...
        24        2.0000           -0.4779074             -13.0045
        25        2.0000           -0.4692799             -12.7698
        26        2.0000           -0.4629051             -12.5963
        27        2.0000           -0.4516244             -12.2893
        28        2.0000           -0.4396478             -11.9634
        29        2.0000           -0.4378005             -11.9132
        30        2.0000           -0.4346840             -11.8284
        31        2.0000           -0.4246177             -11.5544
        32        2.0000           -0.4224751             -11.4961
        33        2.0000           -0.4111475             -11.1879
        34        2.0000           -0.4074730             -11.0879
        35        2.0000           -0.4032892             -10.9741
        36        2.0000           -0.3699766             -10.0676 (HOMO)
        37                         -0.2287548              -6.2247 (LUMO)
        38                         -0.2261736              -6.1545
        39                         -0.0996191              -2.7108
        40                          0.0298258               0.8116
        41                          0.0322471               0.8775
        42                          0.0825537               2.2464
        43                          0.0908003               2.4708
        44                          0.1059852               2.8840
        45                          0.1194788               3.2512
        46                          0.1239024               3.3716
        47                          0.1402776               3.8171
       ...                                ...                  ...
        69                          0.6584844              17.9183
      -------------------------------------------------------------
                  HL-Gap            0.1412218 Eh            3.8428 eV
             Fermi-level           -0.2993657 Eh           -8.1462 eV

     #   Z        covCN         q      C6AA      α(0)
     1   6 C      2.919    -0.029    28.718     8.788
     2   6 C      2.924    -0.036    28.894     8.815
     3   6 C      2.974    -0.015    28.372     8.737
     4   6 C      2.922    -0.033    28.832     8.806
     5   6 C      2.919    -0.031    28.770     8.796
     6   6 C      2.919    -0.031    28.771     8.796
     7   1 H      0.926     0.036     2.498     2.471
     8   1 H      0.926     0.041     2.439     2.442
     9   1 H      0.926     0.039     2.464     2.455
    10   7 N      2.684    -0.271    27.002     7.718
    11   6 C      3.739     0.012    20.445     6.452
    12   1 H      0.924     0.034     2.529     2.487
    13   1 H      0.924     0.036     2.503     2.474
    14   1 H      0.860     0.152     1.385     1.844
    15   1 H      0.805     0.294     0.740     1.351
    16   6 C      3.667     0.181    17.939     6.074
    17   1 H      0.923     0.016     2.792     2.613
    18   8 O      1.652    -0.487    22.616     6.420
    19   6 C      3.801    -0.066    21.766     6.642
    20   1 H      0.924     0.043     2.404     2.425
    21   1 H      0.924     0.027     2.626     2.534
    22   1 H      0.926     0.040     2.447     2.446
    23   1 H      0.926     0.038     2.478     2.462
    24   6 C      3.801    -0.054    21.541     6.608
    25   1 H      0.924     0.030     2.590     2.517
    26   1 H      0.924     0.029     2.597     2.520
    27   6 C      3.752    -0.102    22.500     6.764
    28   1 H      0.925     0.034     2.527     2.486
    29   1 H      0.925     0.036     2.508     2.477
    30   1 H      0.925     0.034     2.529     2.487

 Mol. C6AA /au·bohr⁶  :       8214.779226
 Mol. C8AA /au·bohr⁸  :     185410.444078
 Mol. α(0) /au        :        139.904554


Wiberg/Mayer (AO) data.
largest (>0.10) Wiberg bond orders for each atom
          total WBO             WBO to atom ...
     1  C   3.992        C    2 1.452    C    6 1.432    H   22 0.970    C    4 0.111
     2  C   3.991        C    1 1.452    C    3 1.409    H    7 0.969    C    5 0.113
     3  C   3.986        C    4 1.425    C    2 1.409    C   16 0.974    C    6 0.110
     4  C   3.991        C    5 1.436    C    3 1.425    H    8 0.967    C    1 0.111
     5  C   3.992        C    6 1.446    C    4 1.436    H   23 0.971    C    2 0.113
     6  C   3.991        C    5 1.446    C    1 1.432    H    9 0.971    C    3 0.110
     7  H   0.999        C    2 0.969
     8  H   0.998        C    4 0.967
     9  H   0.998        C    6 0.971
    10  N   3.110        C   16 1.032    C   11 1.006    H   14 0.948
    11  C   3.979        N   10 1.006    C   19 0.995    H   12 0.973    H   13 0.971
    12  H   0.999        C   11 0.973
    13  H   0.998        C   11 0.971
    14  H   0.977        N   10 0.948
    15  H   0.914        O   18 0.897
    16  C   3.950        N   10 1.032    C    3 0.974    H   17 0.952    O   18 0.941
    17  H   1.000        C   16 0.952
    18  O   1.936        C   16 0.941    H   15 0.897
    19  C   3.996        C   24 1.007    C   11 0.995    H   21 0.977    H   20 0.974
    20  H   0.998        C   19 0.974
    21  H   0.999        C   19 0.977
    22  H   0.998        C    1 0.970
    23  H   0.998        C    5 0.971
    24  C   3.997        C   27 1.020    C   19 1.007    H   26 0.978    H   25 0.978
    25  H   0.999        C   24 0.978
    26  H   0.999        C   24 0.978
    27  C   3.997        C   24 1.020    H   28 0.988    H   30 0.988    H   29 0.987
    28  H   0.999        C   27 0.988
    29  H   0.998        C   27 0.987
    30  H   0.999        C   27 0.988
Topologies differ in total number of bonds
Writing topology from bond orders to xtbtopo.mol

molecular dipole:
                 x           y           z       tot (Debye)
 q only:        0.395       0.199       0.115
   full:        0.399       0.024       0.304       1.275
molecular quadrupole (traceless):
                xx          xy          yy          xz          yz          zz
 q only:        1.021      -2.166      -1.344       0.625       0.205       0.323
  q+dip:        0.001      -2.252      -0.074      -0.702       2.300       0.072
   full:       -0.374      -2.093      -1.480       0.233       1.404       1.854


           -------------------------------------------------
          | TOTAL ENERGY              -39.213708011317 Eh   |
          | GRADIENT NORM               0.011493774426 Eh/α |
          | HOMO-LUMO GAP               3.842841671101 eV   |
           -------------------------------------------------

------------------------------------------------------------------------
 * finished run on 2020/06/19 at 17:15:11.066     
------------------------------------------------------------------------
 total:
 * wall-time:     0 d,  0 h,  0 min,  0.104 sec
 *  cpu-time:     0 d,  0 h,  0 min,  1.047 sec
 * ratio c/w:    10.110 speedup
 SCF:
 * wall-time:     0 d,  0 h,  0 min,  0.066 sec
 *  cpu-time:     0 d,  0 h,  0 min,  0.686 sec
 * ratio c/w:    10.396 speedup


-------------------------   --------------------
FINAL SINGLE POINT ENERGY       -39.213708011320
-------------------------   --------------------

------------------------------------------------------------------------------
                         ORCA GEOMETRY RELAXATION STEP
------------------------------------------------------------------------------

Reading the OPT-File                    .... done
Getting information on internals        .... done
Copying old internal coords+grads       .... done
Making the new internal coordinates     .... (new redundants).... done
Validating the new internal coordinates .... (new redundants).... done
Calculating the B-matrix                .... done
Calculating the G,G- and P matrices     .... done
Transforming gradient to internals      .... done
Projecting the internal gradient        .... done
Number of atoms                         ....  30
Number of internal coordinates          .... 154
Current Energy                          ....   -39.213708011 Eh
Current gradient norm                   ....     0.011493774 Eh/bohr
Maximum allowed component of the step   ....  0.300
Current trust radius                    ....  0.300
Updating the Hessian (BFGS)             .... done
Forming the augmented Hessian           .... done
Diagonalizing the augmented Hessian     .... done
Last element of RFO vector              ....  0.994769217
Lowest eigenvalues of augmented Hessian:
 -0.000321475  0.010787800  0.011000986  0.011277364  0.011367788
Length of the computed step             ....  0.102685075
The final length of the internal step   ....  0.102685075
Converting the step to cartesian space:
 Initial RMS(Int)=    0.0082745991
Transforming coordinates:
 Iter   0:  RMS(Cart)=    0.0204974554 RMS(Int)=    1.1307051370
 Iter   1:  RMS(Cart)=    0.0002102506 RMS(Int)=    0.0001034483
 Iter   2:  RMS(Cart)=    0.0000041148 RMS(Int)=    0.0000027407
 Iter   3:  RMS(Cart)=    0.0000001039 RMS(Int)=    0.0000000721
 Iter   4:  RMS(Cart)=    0.0000000028 RMS(Int)=    0.0000000024
done
Storing new coordinates                 .... done

                                .--------------------.
          ----------------------|Geometry convergence|-------------------------
          Item                value                   Tolerance       Converged
          ---------------------------------------------------------------------
          Energy change      -0.0011311991            0.0000050000      NO
          RMS gradient        0.0005487461            0.0001000000      NO
          MAX gradient        0.0026916882            0.0003000000      NO
          RMS step            0.0082745991            0.0020000000      NO
          MAX step            0.0322249296            0.0040000000      NO
          ........................................................
          Max(Bonds)      0.0046      Max(Angles)    0.53
          Max(Dihed)        1.85      Max(Improp)    0.00
          ---------------------------------------------------------------------

The optimization has not yet converged - more geometry cycles are needed


    ---------------------------------------------------------------------------
                         Redundant Internal Coordinates
                            (Angstroem and degrees)

        Definition                    Value    dE/dq     Step     New-Value
    ----------------------------------------------------------------------------
     1. B(C   1,C   0)                1.3833  0.000404 -0.0011    1.3822   
     2. B(C   2,C   1)                1.3899  0.000594 -0.0013    1.3886   
     3. B(C   3,C   2)                1.3876  0.000244 -0.0009    1.3867   
     4. B(C   4,C   3)                1.3858  0.001079 -0.0020    1.3838   
     5. B(C   5,C   4)                1.3844  0.000643 -0.0014    1.3830   
     6. B(C   5,C   0)                1.3872  0.001012 -0.0018    1.3854   
     7. B(H   6,C   1)                1.0802  0.000039 -0.0004    1.0798   
     8. B(H   7,C   3)                1.0807 -0.000230  0.0003    1.0811   
     9. B(H   8,C   5)                1.0798 -0.000179 -0.0000    1.0798   
    10. B(C  10,N   9)                1.4504 -0.000955 -0.0002    1.4502   
    11. B(H  11,C  10)                1.0943  0.000024  0.0001    1.0944   
    12. B(H  12,C  10)                1.0959 -0.000156  0.0005    1.0964   
    13. B(H  13,N   9)                1.0126 -0.000570  0.0007    1.0133   
    14. B(C  15,N   9)                1.4260 -0.002414  0.0029    1.4289   
    15. B(C  15,C   2)                1.5157 -0.000189 -0.0005    1.5152   
    16. B(H  16,C  15)                1.1017 -0.000866  0.0024    1.1041   
    17. B(O  17,C  15)                1.4404  0.002692 -0.0046    1.4358   
    18. B(O  17,H  14)                0.9640  0.000110 -0.0004    0.9635   
    19. B(C  18,C  10)                1.5302 -0.001060  0.0016    1.5318   
    20. B(H  19,C  18)                1.0920  0.000264 -0.0003    1.0918   
    21. B(H  20,C  18)                1.0948  0.000280 -0.0006    1.0942   
    22. B(H  21,C   0)                1.0799 -0.000159 -0.0001    1.0798   
    23. B(H  22,C   4)                1.0801 -0.000181  0.0000    1.0801   
    24. B(C  23,C  18)                1.5241 -0.000829  0.0009    1.5250   
    25. B(H  24,C  23)                1.0939  0.000186 -0.0005    1.0934   
    26. B(H  25,C  23)                1.0940  0.000267 -0.0006    1.0934   
    27. B(C  26,C  23)                1.5211 -0.000906  0.0007    1.5218   
    28. B(H  27,C  26)                1.0892  0.000268 -0.0009    1.0882   
    29. B(H  28,C  26)                1.0883 -0.000004 -0.0005    1.0878   
    30. B(H  29,C  26)                1.0892  0.000269 -0.0009    1.0883   
    31. A(C   1,C   0,C   5)          120.08 -0.000178    0.03    120.11   
    32. A(C   5,C   0,H  21)          120.08  0.000104   -0.02    120.06   
    33. A(C   1,C   0,H  21)          119.85  0.000073   -0.01    119.83   
    34. A(C   0,C   1,C   2)          120.45  0.000603   -0.12    120.33   
    35. A(C   2,C   1,H   6)          119.44 -0.000012   -0.00    119.44   
    36. A(C   0,C   1,H   6)          120.11 -0.000591    0.12    120.24   
    37. A(C   3,C   2,C  15)          121.30  0.001064   -0.22    121.08   
    38. A(C   1,C   2,C   3)          119.23 -0.000374    0.09    119.32   
    39. A(C   1,C   2,C  15)          119.45 -0.000689    0.13    119.57   
    40. A(C   2,C   3,C   4)          120.35  0.000061   -0.02    120.34   
    41. A(C   4,C   3,H   7)          120.27 -0.000021    0.00    120.27   
    42. A(C   2,C   3,H   7)          119.38 -0.000040    0.01    119.39   
    43. A(C   3,C   4,C   5)          120.18  0.000227   -0.05    120.13   
    44. A(C   5,C   4,H  22)          120.10 -0.000255    0.06    120.16   
    45. A(C   3,C   4,H  22)          119.72  0.000028   -0.01    119.71   
    46. A(C   4,C   5,H   8)          120.16  0.000197   -0.04    120.12   
    47. A(C   0,C   5,C   4)          119.71 -0.000339    0.06    119.78   
[...]
     30      -0.000021  -0.000035  -0.000027  -0.000062   0.000007   0.000023
     31      -0.000005   0.000043  -0.000012   0.000130  -0.002541  -0.000029
     32      -0.000023  -0.000004  -0.000010  -0.000038  -0.001085   0.000055
     33      -0.000150   0.000044  -0.000198   0.000001   0.000551  -0.000024
     34       0.000333  -0.000359   0.000261  -0.000760   0.008148  -0.000769
     35       0.000307  -0.000373   0.000353  -0.000882   0.009685  -0.000936
     36       0.000104   0.000189   0.000020   0.000469  -0.000283  -0.000030
     37      -0.000146  -0.000242  -0.000149  -0.000572   0.000169  -0.000093
     38       0.000257   0.000569   0.000090   0.001511  -0.001834   0.000711
     39       0.000411   0.000407   0.000841  -0.000382  -0.101463  -0.001529
     40      -0.000332  -0.000046  -0.000840   0.001828   0.778210   0.010264
     41      -0.000207   0.000212  -0.000424   0.001143   0.615478   0.008983
     42       0.000250   0.000282   0.000784  -0.000830  -0.008110   0.619352
     43      -0.000277  -0.000142  -0.000394  -0.000184   0.002107  -0.221897
     44       0.000047  -0.000038   0.000239  -0.000110  -0.010139   0.750393
     45       0.000044  -0.000106   0.000064  -0.000308  -0.000261  -0.000515
     46      -0.000072  -0.000153  -0.000295  -0.000018  -0.002612   0.000825
     47      -0.000076   0.000032  -0.000136   0.000139  -0.001365  -0.001192
     48      -0.001576   0.001835  -0.001712   0.001556  -0.002390   0.000062
     49       0.002037  -0.001456   0.001939  -0.001827   0.009370  -0.001541
     50       0.002212  -0.001674   0.002342  -0.001841   0.005412  -0.001340
     51       0.000002  -0.000012  -0.000088   0.000142   0.000622  -0.038879
     52       0.000050   0.000096   0.000071   0.000110  -0.000188   0.013134
     53       0.000005  -0.000039   0.000023  -0.000048   0.000977  -0.046383
     54       0.000001   0.000005  -0.000011   0.000046  -0.000255   0.000111
     55       0.000026  -0.000039   0.000064  -0.000068   0.000166  -0.000291
     56      -0.000004   0.000007   0.000003   0.000007   0.000006   0.000256
     57       0.000035  -0.000071   0.000118  -0.000301   0.000095  -0.001568
     58      -0.000114   0.000177  -0.000203   0.000263  -0.000579   0.002226
     59       0.000167  -0.000444   0.000269  -0.000593  -0.000082  -0.004999
     60       0.000026   0.000025   0.000095  -0.000105   0.001550   0.000009
     61      -0.000195   0.000349  -0.000451   0.000522   0.002273   0.001735
     62      -0.000156   0.000354  -0.000354   0.000500   0.001173   0.001762
     63      -0.391874   0.094281   0.231378  -0.265202   0.000787  -0.000285
     64      -0.612765   0.145548   0.360666  -0.416240   0.000946  -0.000355
     65      -0.055170   0.012807   0.032309  -0.037671   0.000013  -0.000016
     66      -0.059844  -0.203104  -0.246663  -0.194253   0.000855  -0.000165
     67       0.121228   0.400841   0.485583   0.385184  -0.001119   0.000130
     68       0.041786   0.139402   0.169074   0.133796  -0.000460   0.000150
     69       0.000004  -0.000025   0.000001  -0.000003  -0.000028   0.000018
     70       0.000007   0.000042   0.000020   0.000034  -0.000081   0.000018
     71       0.000010  -0.000009   0.000016  -0.000004  -0.000012  -0.000023
     72      -0.000024   0.000151  -0.000028   0.000052  -0.000163  -0.000198
     73       0.000012  -0.000230  -0.000020  -0.000135   0.000096   0.000024
     74      -0.000044   0.000496  -0.000052   0.000327  -0.000302   0.000157
     75      -0.000016   0.000052  -0.000018  -0.000015  -0.000524  -0.000121
     76      -0.000066  -0.000385  -0.000196  -0.000284   0.000504  -0.000081
     77      -0.000046  -0.000395  -0.000139  -0.000298   0.000708  -0.000143
     78       0.000007  -0.000030   0.000018  -0.000010   0.000020   0.000014
     79       0.000036  -0.000034   0.000059  -0.000011   0.000018  -0.000005
     80       0.000004   0.000008   0.000006   0.000010  -0.000018  -0.000009
     81       0.000078  -0.000119   0.000146  -0.000114   0.000079  -0.000072
     82      -0.000144   0.000204  -0.000250   0.000120  -0.000205   0.000036
     83       0.000306  -0.000464   0.000501  -0.000257   0.000276  -0.000106
     84      -0.000165   0.000519  -0.000401   0.000324  -0.000815  -0.000227
     85       0.000068  -0.000214   0.000159  -0.000159   0.000130  -0.000032
     86       0.000012  -0.000032   0.000023  -0.000017   0.000074   0.000043
     87       0.000011  -0.000011   0.000034  -0.000047   0.000039  -0.000004
     88      -0.000374   0.000379  -0.000601   0.000122   0.000016   0.000154
     89      -0.000382   0.000407  -0.000589   0.000131   0.000019   0.000167


-----------
IR SPECTRUM  
-----------

 Mode    freq (cm**-1)   T**2         TX         TY         TZ
-------------------------------------------------------------------
   6:        19.51    0.000000  (  0.000000   0.000000   0.000000)
   7:        36.08    0.000000  (  0.000000   0.000000   0.000000)
   8:        52.27    0.000000  (  0.000000   0.000000   0.000000)
   9:        68.52    0.000000  (  0.000000   0.000000   0.000000)
  10:        91.65    0.000000  (  0.000000   0.000000   0.000000)
  11:       122.65    0.000000  (  0.000000   0.000000   0.000000)
  12:       182.09    0.000000  (  0.000000   0.000000   0.000000)
  13:       215.43    0.000000  (  0.000000   0.000000   0.000000)
  14:       228.71    0.000000  (  0.000000   0.000000   0.000000)
  15:       231.67    0.000000  (  0.000000   0.000000   0.000000)
  16:       245.53    0.000000  (  0.000000   0.000000   0.000000)
  17:       299.64    0.000000  (  0.000000   0.000000   0.000000)
  18:       340.59    0.000000  (  0.000000   0.000000   0.000000)
  19:       369.36    0.000000  (  0.000000   0.000000   0.000000)
  20:       401.19    0.000000  (  0.000000   0.000000   0.000000)
  21:       439.79    0.000000  (  0.000000   0.000000   0.000000)
  22:       502.81    0.000000  (  0.000000   0.000000   0.000000)
  23:       520.35    0.000000  (  0.000000   0.000000   0.000000)
  24:       589.38    0.000000  (  0.000000   0.000000   0.000000)
  25:       624.03    0.000000  (  0.000000   0.000000   0.000000)
  26:       672.55    0.000000  (  0.000000   0.000000   0.000000)
  27:       752.36    0.000000  (  0.000000   0.000000   0.000000)
  28:       766.77    0.000000  (  0.000000   0.000000   0.000000)
  29:       777.25    0.000000  (  0.000000   0.000000   0.000000)
  30:       819.62    0.000000  (  0.000000   0.000000   0.000000)
  31:       849.73    0.000000  (  0.000000   0.000000   0.000000)
  32:       883.49    0.000000  (  0.000000   0.000000   0.000000)
  33:       907.59    0.000000  (  0.000000   0.000000   0.000000)
  34:       930.39    0.000000  (  0.000000   0.000000   0.000000)
  35:       937.41    0.000000  (  0.000000   0.000000   0.000000)
  36:       940.23    0.000000  (  0.000000   0.000000   0.000000)
  37:       944.44    0.000000  (  0.000000   0.000000   0.000000)
  38:       965.23    0.000000  (  0.000000   0.000000   0.000000)
  39:       993.12    0.000000  (  0.000000   0.000000   0.000000)
  40:      1013.76    0.000000  (  0.000000   0.000000   0.000000)
  41:      1047.62    0.000000  (  0.000000   0.000000   0.000000)
  42:      1082.67    0.000000  (  0.000000   0.000000   0.000000)
  43:      1097.84    0.000000  (  0.000000   0.000000   0.000000)
  44:      1116.34    0.000000  (  0.000000   0.000000   0.000000)
  45:      1124.67    0.000000  (  0.000000   0.000000   0.000000)
  46:      1131.48    0.000000  (  0.000000   0.000000   0.000000)
  47:      1139.42    0.000000  (  0.000000   0.000000   0.000000)
  48:      1182.46    0.000000  (  0.000000   0.000000   0.000000)
  49:      1189.79    0.000000  (  0.000000   0.000000   0.000000)
  50:      1201.35    0.000000  (  0.000000   0.000000   0.000000)
  51:      1212.04    0.000000  (  0.000000   0.000000   0.000000)
  52:      1239.60    0.000000  (  0.000000   0.000000   0.000000)
  53:      1260.08    0.000000  (  0.000000   0.000000   0.000000)
  54:      1270.75    0.000000  (  0.000000   0.000000   0.000000)
  55:      1277.23    0.000000  (  0.000000   0.000000   0.000000)
  56:      1280.57    0.000000  (  0.000000   0.000000   0.000000)
  57:      1301.50    0.000000  (  0.000000   0.000000   0.000000)
  58:      1310.52    0.000000  (  0.000000   0.000000   0.000000)
  59:      1329.59    0.000000  (  0.000000   0.000000   0.000000)
  60:      1336.96    0.000000  (  0.000000   0.000000   0.000000)
  61:      1368.36    0.000000  (  0.000000   0.000000   0.000000)
  62:      1402.36    0.000000  (  0.000000   0.000000   0.000000)
  63:      1412.80    0.000000  (  0.000000   0.000000   0.000000)
  64:      1438.48    0.000000  (  0.000000   0.000000   0.000000)
  65:      1473.81    0.000000  (  0.000000   0.000000   0.000000)
  66:      1474.60    0.000000  (  0.000000   0.000000   0.000000)
  67:      1494.16    0.000000  (  0.000000   0.000000   0.000000)
  68:      1496.94    0.000000  (  0.000000   0.000000   0.000000)
  69:      1500.51    0.000000  (  0.000000   0.000000   0.000000)
  70:      1504.13    0.000000  (  0.000000   0.000000   0.000000)
  71:      1592.90    0.000000  (  0.000000   0.000000   0.000000)
  72:      1601.85    0.000000  (  0.000000   0.000000   0.000000)
  73:      2829.77    0.000000  (  0.000000   0.000000   0.000000)
  74:      2928.25    0.000000  (  0.000000   0.000000   0.000000)
  75:      2950.93    0.000000  (  0.000000   0.000000   0.000000)
  76:      2955.63    0.000000  (  0.000000   0.000000   0.000000)
  77:      2962.91    0.000000  (  0.000000   0.000000   0.000000)
  78:      2974.58    0.000000  (  0.000000   0.000000   0.000000)
  79:      2993.76    0.000000  (  0.000000   0.000000   0.000000)
  80:      3024.20    0.000000  (  0.000000   0.000000   0.000000)
  81:      3026.25    0.000000  (  0.000000   0.000000   0.000000)
  82:      3032.93    0.000000  (  0.000000   0.000000   0.000000)
  83:      3068.44    0.000000  (  0.000000   0.000000   0.000000)
  84:      3071.86    0.000000  (  0.000000   0.000000   0.000000)
  85:      3077.37    0.000000  (  0.000000   0.000000   0.000000)
  86:      3082.31    0.000000  (  0.000000   0.000000   0.000000)
  87:      3091.27    0.000000  (  0.000000   0.000000   0.000000)
  88:      3383.69    0.000000  (  0.000000   0.000000   0.000000)
  89:      3536.73    0.000000  (  0.000000   0.000000   0.000000)

The first frequency considered to be a vibration is 6
The total number of vibrations considered is 84


--------------------------
THERMOCHEMISTRY AT 298.15K
--------------------------

Temperature         ... 298.15 K
Pressure            ... 1.00 atm
Total Mass          ... 179.26 AMU

Throughout the following assumptions are being made:
  (1) The electronic state is orbitally nondegenerate
  (2) There are no thermally accessible electronically excited states
  (3) Hindered rotations indicated by low frequency modes are not
      treated as such but are treated as vibrations and this may
      cause some error
  (4) All equations used are the standard statistical mechanics
      equations for an ideal gas
  (5) All vibrations are strictly harmonic

freq.      19.51  E(vib)   ...       0.57 
freq.      36.08  E(vib)   ...       0.54 
freq.      52.27  E(vib)   ...       0.52 
freq.      68.52  E(vib)   ...       0.50 
freq.      91.65  E(vib)   ...       0.47 
freq.     122.65  E(vib)   ...       0.43 
freq.     182.09  E(vib)   ...       0.37 
freq.     215.43  E(vib)   ...       0.34 
freq.     228.71  E(vib)   ...       0.32 
freq.     231.67  E(vib)   ...       0.32 
freq.     245.53  E(vib)   ...       0.31 
freq.     299.64  E(vib)   ...       0.26 
freq.     340.59  E(vib)   ...       0.23 
freq.     369.36  E(vib)   ...       0.21 
freq.     401.19  E(vib)   ...       0.19 
freq.     439.79  E(vib)   ...       0.17 
freq.     502.81  E(vib)   ...       0.14 
freq.     520.35  E(vib)   ...       0.13 
freq.     589.38  E(vib)   ...       0.10 
freq.     624.03  E(vib)   ...       0.09 
freq.     672.55  E(vib)   ...       0.08 
freq.     752.36  E(vib)   ...       0.06 
freq.     766.77  E(vib)   ...       0.06 
freq.     777.25  E(vib)   ...       0.05 
freq.     819.62  E(vib)   ...       0.05 
freq.     849.73  E(vib)   ...       0.04 
freq.     883.49  E(vib)   ...       0.04 
freq.     907.59  E(vib)   ...       0.03 
freq.     930.39  E(vib)   ...       0.03 
freq.     937.41  E(vib)   ...       0.03 
freq.     940.23  E(vib)   ...       0.03 
freq.     944.44  E(vib)   ...       0.03 
freq.     965.23  E(vib)   ...       0.03 
freq.     993.12  E(vib)   ...       0.02 
freq.    1013.76  E(vib)   ...       0.02 
freq.    1047.62  E(vib)   ...       0.02 
freq.    1082.67  E(vib)   ...       0.02 
freq.    1097.84  E(vib)   ...       0.02 
freq.    1116.34  E(vib)   ...       0.01 
freq.    1124.67  E(vib)   ...       0.01 
freq.    1131.48  E(vib)   ...       0.01 
freq.    1139.42  E(vib)   ...       0.01 
freq.    1182.46  E(vib)   ...       0.01 
freq.    1189.79  E(vib)   ...       0.01 
freq.    1201.35  E(vib)   ...       0.01 
freq.    1212.04  E(vib)   ...       0.01 
freq.    1239.60  E(vib)   ...       0.01 
freq.    1260.08  E(vib)   ...       0.01 
freq.    1270.75  E(vib)   ...       0.01 
freq.    1277.23  E(vib)   ...       0.01 
freq.    1280.57  E(vib)   ...       0.01 
freq.    1301.50  E(vib)   ...       0.01 
freq.    1310.52  E(vib)   ...       0.01 
freq.    1329.59  E(vib)   ...       0.01 
freq.    1336.96  E(vib)   ...       0.01 
freq.    1368.36  E(vib)   ...       0.01 
freq.    1402.36  E(vib)   ...       0.00 
freq.    1412.80  E(vib)   ...       0.00 
freq.    1438.48  E(vib)   ...       0.00 
freq.    1473.81  E(vib)   ...       0.00 
freq.    1474.60  E(vib)   ...       0.00 
freq.    1494.16  E(vib)   ...       0.00 
freq.    1496.94  E(vib)   ...       0.00 
freq.    1500.51  E(vib)   ...       0.00 
freq.    1504.13  E(vib)   ...       0.00 
freq.    1592.90  E(vib)   ...       0.00 
freq.    1601.85  E(vib)   ...       0.00 
freq.    2829.77  E(vib)   ...       0.00 
freq.    2928.25  E(vib)   ...       0.00 
freq.    2950.93  E(vib)   ...       0.00 
freq.    2955.63  E(vib)   ...       0.00 
freq.    2962.91  E(vib)   ...       0.00 
freq.    2974.58  E(vib)   ...       0.00 
freq.    2993.76  E(vib)   ...       0.00 
freq.    3024.20  E(vib)   ...       0.00 
freq.    3026.25  E(vib)   ...       0.00 
freq.    3032.93  E(vib)   ...       0.00 
freq.    3068.44  E(vib)   ...       0.00 
freq.    3071.86  E(vib)   ...       0.00 
freq.    3077.37  E(vib)   ...       0.00 
freq.    3082.31  E(vib)   ...       0.00 
freq.    3091.27  E(vib)   ...       0.00 
freq.    3383.69  E(vib)   ...       0.00 
freq.    3536.73  E(vib)   ...       0.00 

------------
INNER ENERGY
------------

The inner energy is: U= E(el) + E(ZPE) + E(vib) + E(rot) + E(trans)
    E(el)   - is the total energy from the electronic structure calculation
              = E(kin-el) + E(nuc-el) + E(el-el) + E(nuc-nuc)
    E(ZPE)  - the the zero temperature vibrational energy from the frequency calculation
    E(vib)  - the the finite temperature correction to E(ZPE) due to population
              of excited vibrational states
    E(rot)  - is the rotational thermal energy
    E(trans)- is the translational thermal energy

Summary of contributions to the inner energy U:
Electronic energy                ...    -39.21426448 Eh
Zero point energy                ...      0.25656600 Eh     161.00 kcal/mol
Thermal vibrational correction   ...      0.01129565 Eh       7.09 kcal/mol
Thermal rotational correction    ...      0.00141627 Eh       0.89 kcal/mol
Thermal translational correction ...      0.00141627 Eh       0.89 kcal/mol
-----------------------------------------------------------------------
Total thermal energy                    -38.94357029 Eh


Summary of corrections to the electronic energy:
(perhaps to be used in another calculation)
Total thermal correction                  0.01412820 Eh       8.87 kcal/mol
Non-thermal (ZPE) correction              0.25656600 Eh     161.00 kcal/mol
-----------------------------------------------------------------------
Total correction                          0.27069419 Eh     169.86 kcal/mol


--------
ENTHALPY
--------

The enthalpy is H = U + kB*T
                kB is Boltzmann's constant
Total free energy                 ...    -38.94357029 Eh 
Thermal Enthalpy correction       ...      0.00094421 Eh       0.59 kcal/mol
-----------------------------------------------------------------------
Total Enthalpy                    ...    -38.94262608 Eh


Note: Only C1 symmetry has been detected, increase convergence thresholds 
      if your molecule has a higher symmetry. Symmetry factor of 1.0 is   
      used for the rotational entropy correction. 
 

Note: Rotational entropy computed according to Herzberg 
Infrared and Raman Spectra, Chapter V,1, Van Nostrand Reinhold, 1945 
Point Group:  C1, Symmetry Number:   1  
Rotational constants in cm-1:     0.086877     0.009731     0.009303 

Vibrational entropy computed according to the QRRHO of S. Grimme
Chem.Eur.J. 2012 18 9955


-------
ENTROPY
-------

The entropy contributions are T*S = T*(S(el)+S(vib)+S(rot)+S(trans))
     S(el)   - electronic entropy
     S(vib)  - vibrational entropy
     S(rot)  - rotational entropy
     S(trans)- translational entropy
The entropies will be listed as mutliplied by the temperature to get
units of energy

Electronic entropy                ...      0.00000000 Eh      0.00 kcal/mol
Vibrational entropy               ...      0.02019536 Eh     12.67 kcal/mol
Rotational entropy                ...      0.01505934 Eh      9.45 kcal/mol
Translational entropy             ...      0.01969790 Eh     12.36 kcal/mol
-----------------------------------------------------------------------
Final entropy term                ...      0.05495260 Eh     34.48 kcal/mol

In case the symmetry of your molecule has not been determined correctly
or in case you have a reason to use a different symmetry number we print 
out the resulting rotational entropy values for sn=1,12 :
 --------------------------------------------------------
|  sn= 1 | S(rot)=       0.01505934 Eh      9.45 kcal/mol|
|  sn= 2 | S(rot)=       0.01440489 Eh      9.04 kcal/mol|
|  sn= 3 | S(rot)=       0.01402205 Eh      8.80 kcal/mol|
|  sn= 4 | S(rot)=       0.01375043 Eh      8.63 kcal/mol|
|  sn= 5 | S(rot)=       0.01353974 Eh      8.50 kcal/mol|
|  sn= 6 | S(rot)=       0.01336760 Eh      8.39 kcal/mol|
|  sn= 7 | S(rot)=       0.01322205 Eh      8.30 kcal/mol|
|  sn= 8 | S(rot)=       0.01309597 Eh      8.22 kcal/mol|
|  sn= 9 | S(rot)=       0.01298476 Eh      8.15 kcal/mol|
|  sn=10 | S(rot)=       0.01288528 Eh      8.09 kcal/mol|
|  sn=11 | S(rot)=       0.01279529 Eh      8.03 kcal/mol|
|  sn=12 | S(rot)=       0.01271314 Eh      7.98 kcal/mol|
 --------------------------------------------------------


-------------------
GIBBS FREE ENERGY
-------------------

The Gibbs free energy is G = H - T*S

Total enthalpy                    ...    -38.94262608 Eh 
Total entropy correction          ...     -0.05495260 Eh    -34.48 kcal/mol
-----------------------------------------------------------------------
Final Gibbs free energy         ...    -38.99757868 Eh

For completeness - the Gibbs free energy minus the electronic energy
G-E(el)                           ...      0.21668581 Eh    135.97 kcal/mol


Total Time for Numerical Frequencies  :        74.816 sec

Timings for individual modules:

Sum of individual times         ...        3.295 sec (=   0.055 min)
Geometry relaxation             ...        1.689 sec (=   0.028 min)  51.3 %
XTB module                      ...        1.606 sec (=   0.027 min)  48.7 %
                             ****ORCA TERMINATED NORMALLY****
TOTAL RUN TIME: 0 days 0 hours 1 minutes 20 seconds 272 msec
