
                                 *****************
                                 * O   R   C   A *
                                 *****************

           --- An Ab Initio, DFT and Semiempirical electronic structure package ---

                  #######################################################
                  #                        -***-                        #
                  #          Department of theory and spectroscopy      #
                  #               Directorship: Frank Neese             #
                  #        Max Planck Institute fuer Kohlenforschung    #
                  #                Kaiser Wilhelm Platz 1               #
                  #                 D-45470 Muelheim/Ruhr               #
                  #                      Germany                        #
                  #                                                     #
                  #                  All rights reserved                #
                  #                        -***-                        #
                  #######################################################


                         Program Version 4.2.1 -  RELEASE  -


 With contributions from (in alphabetic order):
   Daniel Aravena         : Magnetic Suceptibility
   Michael Atanasov       : Ab Initio Ligand Field Theory (pilot matlab implementation)
   Alexander A. Auer      : GIAO ZORA, VPT2
   Ute Becker             : Parallelization
   Giovanni Bistoni       : ED, misc. LED, open-shell LED, HFLD
   Martin Brehm           : Molecular dynamics
   Dmytro Bykov           : SCF Hessian
   Vijay G. Chilkuri      : MRCI spin determinant printing, contributions to CSF-ICE
   Dipayan Datta          : RHF DLPNO-CCSD density
   Achintya Kumar Dutta   : EOM-CC, STEOM-CC
   Dmitry Ganyushin       : Spin-Orbit,Spin-Spin,Magnetic field MRCI
   Miquel Garcia          : C-PCM Hessian, Gaussian charge scheme
   Yang Guo               : DLPNO-NEVPT2, CIM, IAO-localization
   Andreas Hansen         : Spin unrestricted coupled pair/coupled cluster methods
   Benjamin Helmich-Paris : CASSCF linear response (MC-RPA)
   Lee Huntington         : MR-EOM, pCC
   Robert Izsak           : Overlap fitted RIJCOSX, COSX-SCS-MP3, EOM
   Christian Kollmar      : KDIIS, OOCD, Brueckner-CCSD(T), CCSD density
   Simone Kossmann        : Meta GGA functionals, TD-DFT gradient, OOMP2, MP2 Hessian
   Martin Krupicka        : AUTO-CI
   Lucas Lang             : DCDCAS
   Dagmar Lenk            : GEPOL surface, SMD
   Dimitrios Liakos       : Extrapolation schemes; Compound Job, initial MDCI parallelization
   Dimitrios Manganas     : Further ROCIS development; embedding schemes
   Dimitrios Pantazis     : SARC Basis sets
   Taras Petrenko         : DFT Hessian,TD-DFT gradient, ASA, ECA, R-Raman, ABS, FL, XAS/XES, NRVS
   Peter Pinski           : DLPNO-MP2, DLPNO-MP2 Gradient
   Christoph Reimann      : Effective Core Potentials
   Marius Retegan         : Local ZFS, SOC
   Christoph Riplinger    : Optimizer, TS searches, QM/MM, DLPNO-CCSD(T), (RO)-DLPNO pert. Triples
   Tobias Risthaus        : Range-separated hybrids, TD-DFT gradient, RPA, STAB
   Michael Roemelt        : Original ROCIS implementation
   Masaaki Saitow         : Open-shell DLPNO-CCSD energy and density
   Barbara Sandhoefer     : DKH picture change effects
   Avijit Sen             : IP-ROCIS
   Kantharuban Sivalingam : CASSCF convergence, NEVPT2, FIC-MRCI
   Bernardo de Souza      : ESD, SOC TD-DFT
   Georgi Stoychev        : AutoAux, RI-MP2 NMR
   Willem Van den Heuvel  : Paramagnetic NMR
   Boris Wezisla          : Elementary symmetry handling
   Frank Wennmohs         : Technical directorship


 We gratefully acknowledge several colleagues who have allowed us to
 interface, adapt or use parts of their codes:
   Stefan Grimme, W. Hujo, H. Kruse,             : VdW corrections, initial TS optimization,
                  C. Bannwarth                     DFT functionals, gCP, sTDA/sTD-DF
   Ed Valeev, F. Pavosevic, A. Kumar             : LibInt (2-el integral package), F12 methods
   Garnet Chan, S. Sharma, J. Yang, R. Olivares  : DMRG
   Ulf Ekstrom                                   : XCFun DFT Library
   Mihaly Kallay                                 : mrcc  (arbitrary order and MRCC methods)
   Andreas Klamt, Michael Diedenhofen            : otool_cosmo (COSMO solvation model)
   Jiri Pittner, Ondrej Demel                    : Mk-CCSD
   Frank Weinhold                                : gennbo (NPA and NBO analysis)
   Christopher J. Cramer and Donald G. Truhlar   : smd solvation model
   Lars Goerigk                                  : TD-DFT with DH, B97 family of functionals
   V. Asgeirsson, H. Jonsson                     : NEB implementation
   FAccTs GmbH                                   : IRC, NEB, NEB-TS, Multilevel, MM, QM/MM, CI optimization
   S Lehtola, MJT Oliveira, MAL Marques          : LibXC Library


 Your calculation uses the libint2 library for the computation of 2-el integrals
 For citations please refer to: http://libint.valeyev.net

 Your ORCA version has been built with support for libXC version: 4.2.3
 For citations please refer to: https://tddft.org/programs/libxc/

 This ORCA versions uses:
   CBLAS   interface :  Fast vector & matrix operations
   LAPACKE interface :  Fast linear algebra routines
   SCALAPACK package :  Parallel linear algebra routines




***************************************
The coordinates will be read from file: init.xyz
***************************************


Your calculation utilizes the SMD solvation module
Please cite in your paper:
A.V. Marenich, C.J. Cramer, D.G. Truhlar J. Phys. Chem. B, 113, (2009), 6378 

Your calculation utilizes the semiempirical GFN2-xTB method
Please cite in your paper:
C. Bannwarth, Ehlert S., S. Grimme,  J. Chem. Theory Comput., 15, (2019), 1652.
   

----- Orbital basis set information -----
Your calculation utilizes the basis: def2-SVP
   F. Weigend and R. Ahlrichs, Phys. Chem. Chem. Phys. 7, 3297 (2005).

================================================================================
                                        WARNINGS
                       Please study these warnings very carefully!
================================================================================


WARNING: The environment variable RSH_COMMAND is not set!
  ===> : All Displacements for the Numerical Hessian calculation
         will be started on localhost

WARNING: Geometry Optimization
  ===> : Switching off AutoStart
         For restart on a previous wavefunction, please use MOREAD

WARNING: Found dipole moment calculation with XTB calculation
  ===> : Switching off dipole moment calculation


INFO   : the flag for use of LIBINT has been found!

================================================================================
                                       INPUT FILE
================================================================================
NAME = opt+freq.inp
|  1> ! XTB2 Opt NumFreq
|  2> 
|  3> %cpcm
|  4>  smd true
|  5>  smdsolvent "ch2cl2"
|  6> end
|  7> 
|  8> %pal
|  9>  nprocs 12
| 10> end
| 11> 
| 12> *xyzfile 0 1 init.xyz
| 13> 
| 14> 
| 15>                          ****END OF INPUT****
================================================================================

                       *****************************
                       * Geometry Optimization Run *
                       *****************************

Geometry optimization settings:
Update method            Update   .... BFGS
Choice of coordinates    CoordSys .... Z-matrix Internals
Initial Hessian          InHess   .... Almoef's Model

Convergence Tolerances:
Energy Change            TolE     ....  5.0000e-06 Eh
Max. Gradient            TolMAXG  ....  3.0000e-04 Eh/bohr
RMS Gradient             TolRMSG  ....  1.0000e-04 Eh/bohr
Max. Displacement        TolMAXD  ....  4.0000e-03 bohr
RMS Displacement         TolRMSD  ....  2.0000e-03 bohr
Strict Convergence                ....  False
------------------------------------------------------------------------------
                        ORCA OPTIMIZATION COORDINATE SETUP
------------------------------------------------------------------------------

The optimization will be done in new redundant internal coordinates
Making redundant internal coordinates   ...  (new redundants) done
Evaluating the initial hessian          ...  (Almloef) done
Evaluating the coordinates              ...  done
Calculating the B-matrix                .... done
Calculating the G-matrix                .... done
Diagonalizing the G-matrix              .... done
Small eigenvalue found = 9.780e-03
Small eigenvalue found = 1.551e-02
Small eigenvalue found = 2.015e-02
Small eigenvalue found = 2.350e-02
The first mode is                       ....  161
The number of degrees of freedom        ....  123

    -----------------------------------------------------------------
                    Redundant Internal Coordinates


    -----------------------------------------------------------------
         Definition                    Initial Value    Approx d2E/dq
    -----------------------------------------------------------------
      1. B(C   1,C   0)                  1.3817         0.644037   
      2. B(C   2,C   1)                  1.3965         0.610051   
      3. B(C   3,C   2)                  1.3969         0.609233   
      4. B(C   4,C   3)                  1.3817         0.644051   
      5. B(C   5,C   4)                  1.3869         0.631920   
      6. B(C   5,C   0)                  1.3861         0.633863   
      7. B(H   6,C   1)                  1.0816         0.371449   
      8. B(H   7,C   3)                  1.0784         0.375754   
      9. B(H   8,C   5)                  1.0803         0.373231   
     10. B(C  10,N   9)                  1.4321         0.479413   
     11. B(H  11,C  10)                  1.1037         0.342369   
     12. B(H  12,C  10)                  1.0962         0.352041   
     13. B(H  13,N   9)                  2.0916         0.008139   
     14. B(H  13,H   7)                  2.1798         0.001258   
     15. B(C  15,N   9)                  1.2641         0.888761   
     16. B(C  15,C   2)                  1.4530         0.495695   
     17. B(H  16,C  15)                  1.1028         0.343508   
     18. B(C  17,C  10)                  1.5324         0.370337   
     19. B(H  18,C  17)                  1.0929         0.356332   
     20. B(H  19,C  17)                  1.0915         0.358144   
     21. B(H  19,H  13)                  2.7191         0.000174   
     22. B(C  20,C  17)                  1.5263         0.378672   
     23. B(H  21,C  20)                  1.0927         0.356610   
     24. B(H  22,C  20)                  1.0929         0.356275   
     25. B(H  23,C   0)                  1.0804         0.372958   
     26. B(H  24,C   4)                  1.0800         0.373620   
     27. B(H  26,C  25)                  1.0954         0.353011   
     28. B(H  27,C  25)                  1.0942         0.354607   
     29. B(C  28,C  25)                  1.5350         0.366725   
     30. B(H  29,C  28)                  1.0945         0.354258   
     31. B(H  30,C  28)                  1.0932         0.355937   
     32. B(H  30,H  19)                  2.4796         0.000418   
     33. B(C  31,C  28)                  1.5268         0.378059   
     34. B(H  32,C  31)                  1.0925         0.356773   
     35. B(H  33,C  31)                  1.0927         0.356497   
     36. B(N  34,H   7)                  2.4371         0.002288   
     37. B(N  34,C  25)                  1.4535         0.443184   
     38. B(N  34,H  14)                  1.0156         0.423957   
     39. B(N  34,H  13)                  1.0194         0.418021   
     40. B(C  35,C  31)                  1.5248         0.380770   
     41. B(H  36,C  35)                  1.0878         0.362990   
     42. B(H  37,C  35)                  1.0882         0.362427   
     43. B(H  38,C  35)                  1.0881         0.362567   
     44. B(C  39,C  20)                  1.5243         0.381511   
     45. B(H  40,C  39)                  1.0878         0.363013   
     46. B(H  41,C  39)                  1.0879         0.362886   
     47. B(H  42,C  39)                  1.0880         0.362698   
     48. A(C   1,C   0,H  23)          119.8959         0.357313   
     49. A(C   1,C   0,C   5)          119.9817         0.438796   
     50. A(C   5,C   0,H  23)          120.1224         0.356348   
     51. A(C   2,C   1,H   6)          119.5480         0.353798   
     52. A(C   0,C   1,H   6)          119.9257         0.357067   
     53. A(C   0,C   1,C   2)          120.5262         0.435777   
     54. A(C   1,C   2,C   3)          119.0989         0.431444   
     55. A(C   1,C   2,C  15)          118.9656         0.415826   
     56. A(C   3,C   2,C  15)          121.9350         0.415727   
     57. A(C   2,C   3,C   4)          120.0575         0.435674   
     58. A(C   2,C   3,H   7)          119.2013         0.354409   
     59. A(C   4,C   3,H   7)          120.7409         0.357768   
     60. A(C   5,C   4,H  24)          120.0012         0.356269   
     61. A(C   3,C   4,C   5)          120.4235         0.438555   
     62. A(C   3,C   4,H  24)          119.5753         0.357422   
     63. A(C   0,C   5,H   8)          119.9682         0.356392   
     64. A(C   0,C   5,C   4)          119.9121         0.437295   
     65. A(C   4,C   5,H   8)          120.1197         0.356206   
     66. A(C   3,H   7,N  34)          160.1318         0.153096   
     67. A(H  13,H   7,N  34)           24.7118         0.103109   
     68. A(C   3,H   7,H  13)          142.7745         0.134293   
     69. A(H  13,N   9,C  15)          133.0244         0.208031   
     70. A(C  10,N   9,H  13)          106.4674         0.192511   
     71. A(C  10,N   9,C  15)          119.8642         0.436412   
     72. A(H  11,C  10,H  12)          108.3881         0.287526   
     73. A(N   9,C  10,H  12)          107.3078         0.334676   
     74. A(H  12,C  10,C  17)          109.1203         0.322655   
     75. A(H  11,C  10,C  17)          109.7860         0.321187   
     76. A(N   9,C  10,C  17)          109.9544         0.376331   
     77. A(N   9,C  10,H  11)          112.1989         0.333132   
     78. A(N   9,H  13,H  19)           64.5129         0.101009   
     79. A(N   9,H  13,N  34)          165.8150         0.175491   
     80. A(H  19,H  13,N  34)          128.3060         0.118288   
     81. A(H   7,H  13,N   9)           75.2262         0.107804   
     82. A(H   7,H  13,N  34)           91.9159         0.134858   
     83. A(H   7,H  13,H  19)          117.4535         0.095367   
     84. A(N   9,C  15,H  16)          121.1134         0.369948   
     85. A(C   2,C  15,H  16)          115.1517         0.337212   
     86. A(C   2,C  15,N   9)          123.7340         0.441953   
     87. A(H  19,C  17,C  20)          110.0459         0.324751   
     88. A(H  18,C  17,C  20)          109.8282         0.324480   
     89. A(C  10,C  17,C  20)          111.8464         0.363653   
     90. A(H  18,C  17,H  19)          107.5405         0.290111   
     91. A(C  10,C  17,H  19)          108.7059         0.323566   
     92. A(C  10,C  17,H  18)          108.7632         0.323297   
     93. A(C  17,H  19,H  30)          121.5281         0.123917   
     94. A(H  13,H  19,C  17)          112.0204         0.117614   
     95. A(H  13,H  19,H  30)           59.3786         0.093962   
     96. A(C  17,C  20,H  21)          109.3298         0.324522   
     97. A(H  21,C  20,C  39)          109.4591         0.324921   
     98. A(H  22,C  20,C  39)          109.4749         0.324870   
     99. A(H  21,C  20,H  22)          107.4992         0.289909   
    100. A(C  17,C  20,C  39)          111.6873         0.365507   
    101. A(C  17,C  20,H  22)          109.2959         0.324472   
    102. A(C  28,C  25,N  34)          115.0467         0.370641   
    103. A(H  27,C  25,N  34)          107.2924         0.330743   
    104. A(H  26,C  25,N  34)          107.6249         0.330496   
    105. A(H  27,C  25,C  28)          109.6109         0.322521   
    106. A(H  26,C  25,C  28)          109.2824         0.322283   
    107. A(H  26,C  25,H  27)          107.7280         0.289235   
    108. A(H  30,C  28,C  31)          109.5844         0.324335   
    109. A(H  29,C  28,C  31)          109.4027         0.324083   
    110. A(C  25,C  28,C  31)          112.1738         0.362944   
    111. A(H  29,C  28,H  30)          107.5812         0.289565   
    112. A(C  25,C  28,H  30)          108.9919         0.322719   
    113. A(C  25,C  28,H  29)          108.9952         0.322469   
    114. A(H  19,H  30,C  28)          130.3230         0.123869   
    115. A(H  33,C  31,C  35)          109.4225         0.324800   
    116. A(H  32,C  31,C  35)          109.4420         0.324841   
    117. A(C  28,C  31,C  35)          112.0443         0.365284   
    118. A(H  32,C  31,H  33)          107.5238         0.289958   
    119. A(C  28,C  31,H  33)          109.0916         0.324419   
    120. A(C  28,C  31,H  32)          109.2089         0.324460   
    121. A(H  14,N  34,C  25)          109.7975         0.337783   
    122. A(H  13,N  34,C  25)          110.4634         0.336990   
    123. A(H  13,N  34,H  14)          107.1354         0.300608   
    124. A(H   7,N  34,C  25)          143.8825         0.165296   
    125. A(H   7,N  34,H  14)          105.7692         0.154103   
    126. A(H   7,N  34,H  13)           63.3723         0.153896   
    127. A(H  36,C  35,H  38)          108.3774         0.291518   
    128. A(C  31,C  35,H  38)          110.5772         0.325703   
    129. A(H  36,C  35,H  37)          108.3419         0.291500   
    130. A(C  31,C  35,H  37)          110.5989         0.325682   
    131. A(C  31,C  35,H  36)          110.5281         0.325765   
    132. A(H  37,C  35,H  38)          108.3381         0.291446   
    133. A(H  41,C  39,H  42)          108.3084         0.291521   
    134. A(H  40,C  39,H  42)          108.4402         0.291537   
    135. A(C  20,C  39,H  42)          110.5405         0.325826   
    136. A(H  40,C  39,H  41)          108.4444         0.291561   
    137. A(C  20,C  39,H  41)          110.5577         0.325854   
    138. A(C  20,C  39,H  40)          110.4755         0.325873   
    139. D(H   6,C   1,C   0,H  23)      0.0347         0.028843   
    140. D(C   2,C   1,C   0,C   5)     -0.1527         0.028843   
    141. D(H   6,C   1,C   0,C   5)    179.9653         0.028843   
    142. D(C   2,C   1,C   0,H  23)    179.9167         0.028843   
    143. D(C   3,C   2,C   1,C   0)      0.1540         0.025703   
    144. D(C  15,C   2,C   1,H   6)     -0.2321         0.025703   
    145. D(C   3,C   2,C   1,H   6)   -179.9635         0.025703   
    146. D(C  15,C   2,C   1,C   0)    179.8855         0.025703   
    147. D(H   7,C   3,C   2,C   1)   -179.8576         0.025631   
    148. D(C   4,C   3,C   2,C  15)   -179.7914         0.025631   
    149. D(H   7,C   3,C   2,C  15)      0.4192         0.025631   
    150. D(C   4,C   3,C   2,C   1)     -0.0682         0.025631   
    151. D(H  24,C   4,C   3,C   2)    179.9815         0.028845   
    152. D(H  24,C   4,C   3,H   7)     -0.2324         0.028845   
    153. D(C   5,C   4,C   3,H   7)    179.7679         0.028845   
    154. D(C   5,C   4,C   3,C   2)     -0.0182         0.028845   
    155. D(C   4,C   5,C   0,C   1)      0.0645         0.027880   
    156. D(H   8,C   5,C   4,H  24)      0.0300         0.027698   
    157. D(H   8,C   5,C   0,C   1)   -179.9443         0.027880   
    158. D(H   8,C   5,C   4,C   3)   -179.9703         0.027698   
    159. D(C   4,C   5,C   0,H  23)    179.9949         0.027880   
    160. D(C   0,C   5,C   4,H  24)   -179.9789         0.027698   
    161. D(H   8,C   5,C   0,H  23)     -0.0140         0.027880   
    162. D(C   0,C   5,C   4,C   3)      0.0209         0.027698   
    163. D(N  34,H   7,C   3,C   4)   -120.8930         0.134768   
    164. D(N  34,H   7,C   3,C   2)     58.8950         0.134768   
    165. D(H  13,H   7,C   3,C   2)     19.7965         0.134768   
    166. D(H  13,H   7,C   3,C   4)   -159.9914         0.134768   
    167. D(H  11,C  10,N   9,C  15)      6.5078         0.019657   
    168. D(H  11,C  10,N   9,H  13)   -165.4530         0.019657   
    169. D(H  12,C  10,N   9,C  15)    125.4563         0.019657   
    170. D(C  17,C  10,N   9,C  15)   -115.9798         0.019657   
    171. D(C  17,C  10,N   9,H  13)     72.0595         0.019657   
    172. D(H  12,C  10,N   9,H  13)    -46.5044         0.019657   
    173. D(H  19,H  13,N   9,C  15)    148.1930         0.001542   
    174. D(H  19,H  13,N   9,C  10)    -41.3563         0.001542   
    175. D(H   7,H  13,N   9,C  15)     17.3560         0.001542   
    176. D(H   7,H  13,N   9,C  10)   -172.1933         0.001542   
    177. D(N  34,H  13,N   9,C  10)    162.2646         0.001542   
    178. D(H  19,H  13,H   7,N  34)    135.7494         0.001517   
    179. D(H  19,H  13,H   7,C   3)    -75.0938         0.001517   
    180. D(N  34,H  13,N   9,C  15)     -8.1862         0.001542   
    181. D(N  34,H  13,H   7,C   3)    149.1568         0.001517   
    182. D(N   9,H  13,H   7,C   3)    -24.7745         0.001517   
    183. D(N   9,H  13,H   7,N  34)   -173.9313         0.001517   
    184. D(H  16,C  15,N   9,H  13)    167.7117         0.069219   
    185. D(H  16,C  15,N   9,C  10)     -1.7174         0.069219   
    186. D(C   2,C  15,N   9,H  13)    -11.9232         0.069219   
    187. D(C   2,C  15,N   9,C  10)    178.6477         0.069219   
    188. D(H  16,C  15,C   2,C   3)    177.4785         0.016734   
    189. D(H  16,C  15,C   2,C   1)     -2.2451         0.016734   
    190. D(N   9,C  15,C   2,C   3)     -2.8668         0.016734   
    191. D(N   9,C  15,C   2,C   1)    177.4097         0.016734   
    192. D(C  20,C  17,C  10,N   9)   -175.8721         0.010963   
    193. D(H  19,C  17,C  10,H  12)     63.2813         0.010963   
    194. D(H  19,C  17,C  10,H  11)   -178.0638         0.010963   
    195. D(H  19,C  17,C  10,N   9)    -54.1610         0.010963   
    196. D(C  20,C  17,C  10,H  11)     60.2251         0.010963   
    197. D(H  18,C  17,C  10,H  12)   -179.9064         0.010963   
    198. D(H  18,C  17,C  10,H  11)    -61.2515         0.010963   
    199. D(H  18,C  17,C  10,N   9)     62.6513         0.010963   
    200. D(C  20,C  17,C  10,H  12)    -58.4298         0.010963   
    201. D(C  17,H  19,H  13,N  34)   -170.3385         0.001500   
    202. D(H  30,H  19,C  17,C  20)     69.8540         0.130741   
    203. D(H  30,H  19,C  17,H  18)   -170.5415         0.130741   
    204. D(H  30,H  19,C  17,C  10)    -52.9492         0.130741   
    205. D(H  13,H  19,C  17,C  20)    136.4954         0.130741   
    206. D(H  13,H  19,C  17,H  18)   -103.9000         0.130741   
    207. D(H  13,H  19,C  17,C  10)     13.6923         0.130741   
    208. D(H  30,H  19,H  13,N   9)    131.4370         0.001500   
    209. D(H  30,H  19,H  13,H   7)   -173.0353         0.001500   
    210. D(H  30,H  19,H  13,N  34)    -55.7511         0.001500   
    211. D(C  17,H  19,H  13,N   9)     16.8497         0.001500   
    212. D(C  17,H  19,H  13,H   7)     72.3774         0.001500   
    213. D(C  39,C  20,C  17,H  19)     57.6749         0.011433   
    214. D(C  39,C  20,C  17,H  18)    -60.5283         0.011433   
    215. D(C  39,C  20,C  17,C  10)    178.6116         0.011433   
    216. D(H  22,C  20,C  17,H  19)    178.9658         0.011433   
    217. D(H  22,C  20,C  17,H  18)     60.7626         0.011433   
    218. D(H  22,C  20,C  17,C  10)    -60.0975         0.011433   
    219. D(H  21,C  20,C  17,H  19)    -63.6191         0.011433   
    220. D(H  21,C  20,C  17,H  18)    178.1777         0.011433   
    221. D(H  21,C  20,C  17,C  10)     57.3176         0.011433   
    222. D(C  31,C  28,C  25,N  34)   -179.3084         0.010763   
    223. D(C  31,C  28,C  25,H  26)     59.5229         0.010763   
    224. D(H  30,C  28,C  25,N  34)    -57.7698         0.010763   
    225. D(H  30,C  28,C  25,H  27)     63.2146         0.010763   
    226. D(H  30,C  28,C  25,H  26)   -178.9385         0.010763   
    227. D(H  29,C  28,C  25,N  34)     59.3799         0.010763   
    228. D(C  31,C  28,C  25,H  27)    -58.3240         0.010763   
    229. D(H  29,C  28,C  25,H  27)   -179.6357         0.010763   
    230. D(H  29,C  28,C  25,H  26)    -61.7888         0.010763   
    231. D(H  19,H  30,C  28,C  31)     94.8055         0.118082   
    232. D(H  19,H  30,C  28,H  29)   -146.3383         0.118082   
    233. D(H  19,H  30,C  28,C  25)    -28.2945         0.118082   
    234. D(C  28,H  30,H  19,H  13)     62.6214         0.001502   
    235. D(C  28,H  30,H  19,C  17)    161.1341         0.001502   
    236. D(C  35,C  31,C  28,H  30)     58.6273         0.011398   
    237. D(C  35,C  31,C  28,H  29)    -59.0970         0.011398   
    238. D(C  35,C  31,C  28,C  25)    179.8257         0.011398   
    239. D(H  33,C  31,C  28,H  30)    179.9456         0.011398   
    240. D(H  33,C  31,C  28,H  29)     62.2213         0.011398   
    241. D(H  33,C  31,C  28,C  25)    -58.8560         0.011398   
    242. D(H  32,C  31,C  28,H  30)    -62.7960         0.011398   
    243. D(H  32,C  31,C  28,H  29)    179.4797         0.011398   
    244. D(H  32,C  31,C  28,C  25)     58.4024         0.011398   
    245. D(H   7,N  34,C  25,H  26)   -104.0393         0.017956   
    246. D(H  14,N  34,C  25,C  28)    -56.5787         0.017956   
    247. D(H  14,N  34,C  25,H  27)   -178.8200         0.017956   
    248. D(H  13,N  34,C  25,C  28)     61.3620         0.017956   
    249. D(H  13,N  34,C  25,H  27)    -60.8793         0.017956   
    250. D(H  13,N  34,C  25,H  26)   -176.5709         0.017956   
    251. D(H   7,N  34,H  13,N   9)     24.6550         0.258576   
    252. D(C  25,N  34,H  13,H  19)     13.1273         0.258576   
    253. D(C  25,N  34,H  13,N   9)    165.6809         0.258576   
    254. D(C  25,N  34,H  13,H   7)    141.0259         0.258576   
    255. D(H  14,N  34,H  13,H  19)    132.6885         0.258576   
    256. D(H   7,N  34,H  13,H  19)   -127.8985         0.258576   
    257. D(H  14,N  34,H  13,N   9)    -74.7579         0.258576   
    258. D(H  14,N  34,H  13,H   7)    -99.4129         0.258576   
    259. D(C  25,N  34,H   7,H  13)    -88.6467         0.001504   
    260. D(H  14,N  34,C  25,H  26)     65.4884         0.017956   
    261. D(C  25,N  34,H   7,C   3)   -154.5139         0.001504   
    262. D(H  14,N  34,H   7,H  13)    101.5893         0.001504   
    263. D(H  14,N  34,H   7,C   3)     35.7221         0.001504   
    264. D(H   7,N  34,C  25,H  27)     11.6522         0.017956   
    265. D(H  13,N  34,H   7,C   3)    -65.8672         0.001504   
    266. D(H   7,N  34,C  25,C  28)    133.8935         0.017956   
    267. D(H  38,C  35,C  31,H  33)    -61.5347         0.011553   
    268. D(H  38,C  35,C  31,H  32)   -179.1180         0.011553   
    269. D(H  38,C  35,C  31,C  28)     59.5929         0.011553   
    270. D(H  37,C  35,C  31,H  33)    178.4573         0.011553   
    271. D(H  37,C  35,C  31,H  32)     60.8740         0.011553   
    272. D(H  37,C  35,C  31,C  28)    -60.4151         0.011553   
    273. D(H  36,C  35,C  31,H  33)     58.4765         0.011553   
    274. D(H  36,C  35,C  31,H  32)    -59.1068         0.011553   
    275. D(H  36,C  35,C  31,C  28)    179.6040         0.011553   
    276. D(H  42,C  39,C  20,H  22)    -61.2493         0.011596   
    277. D(H  42,C  39,C  20,H  21)   -178.8433         0.011596   
    278. D(H  42,C  39,C  20,C  17)     59.9378         0.011596   
    279. D(H  41,C  39,C  20,H  22)    178.8304         0.011596   
    280. D(H  41,C  39,C  20,H  21)     61.2364         0.011596   
    281. D(H  41,C  39,C  20,C  17)    -59.9825         0.011596   
    282. D(H  40,C  39,C  20,H  22)     58.7824         0.011596   
    283. D(H  40,C  39,C  20,H  21)    -58.8116         0.011596   
    284. D(H  40,C  39,C  20,C  17)    179.9695         0.011596   
    -----------------------------------------------------------------

Number of atoms                         .... 43
Number of degrees of freedom            .... 284

         *************************************************************
         *                GEOMETRY OPTIMIZATION CYCLE   1            *
         *************************************************************
      -----------------------------------------------------------      
     |                   =====================                   |     
     |                           x T B                           |     
     |                   =====================                   |     
     |                         S. Grimme                         |     
     |          Mulliken Center for Theoretical Chemistry        |     
     |                    University of Bonn                     |     
      -----------------------------------------------------------      

   * xtb version 6.3.0 (49875a8) compiled by 'schneider@apollo14' on 2020-05-23

   xtb is free software: you can redistribute it and/or modify it under
   the terms of the GNU Lesser General Public License as published by
   the Free Software Foundation, either version 3 of the License, or
   (at your option) any later version.
   
   xtb is distributed in the hope that it will be useful,
   but WITHOUT ANY WARRANTY; without even the implied warranty of
   MERCHANTABILITY or FITNESS FOR A PARTICULAR PURPOSE.  See the
   GNU Lesser General Public License for more details.
   
   Cite this work as:
   * S. Grimme, C. Bannwarth, P. Shushkov, J. Chem. Theory Comput., 2017,
     13, 1989-2009. DOI: 10.1021/acs.jctc.7b00118
   * C. Bannwarth, S. Ehlert and S. Grimme., J. Chem. Theory Comput., 2019,
     15, 1652-1671. DOI: 10.1021/acs.jctc.8b01176
   * P. Pracht, E. Caldeweyher, S. Ehlert, S. Grimme, ChemRxiv, 2019, preprint.
     DOI: 10.26434/chemrxiv.8326202.v1
   
   for GFN-FF:
   * S. Spicher and S. Grimme, Angew. Chem. Int. Ed., 2020,
     DOI: 10.1002/anie.202004239
   
   for DFT-D4:
   * E. Caldeweyher, C. Bannwarth and S. Grimme, J. Chem. Phys., 2017,
     147, 034112. DOI: 10.1063/1.4993215
   * E. Caldeweyher, S. Ehlert, A. Hansen, H. Neugebauer, S. Spicher,
     C. Bannwarth and S. Grimme, J. Chem. Phys., 2019, 150, 154122.
     DOI: 10.1063/1.5090222
   
   for sTDA-xTB:
   * S. Grimme and C. Bannwarth, J. Chem. Phys., 2016, 145, 054103.
     DOI: 10.1063/1.4959605
   
   in the mass-spec context:
   * V. Asgeirsson, C. Bauer and S. Grimme, Chem. Sci., 2017, 8, 4879.
     DOI: 10.1039/c7sc00601b
   * J. Koopman and S. Grimme, ACS Omega 2019, 4, 12, 15120-15133.
     DOI: 10.1021/acsomega.9b02011
   
   for metadynamics refer to:
   * S. Grimme, J. Chem. Theory Comput., 2019, 155, 2847-2862
     DOI: 10.1021/acs.jctc.9b00143
   
   with help from (in alphabetical order)
   C. Bannwarth, F. Bohle, G. Brandenburg, E. Caldeweyher, M. Checinski,
   S. Dohm, S. Ehlert, S. Ehrlich, F. März, H. Neugebauer, J. Pisarek,
   P. Pracht, P. Shushkov, and S. Spicher.
   
 * started run on 2020/06/19 at 18:38:00.553     

           -------------------------------------------------
          |                Calculation Setup                |
           -------------------------------------------------

          program call               : /opt/orca/otool_xtb opt+freq_XTB.xyz --grad -c 0 -u 0 -P 12 --namespace opt+freq --gbsa CH2Cl2
          calculation namespace      : opt+freq
          coordinate file            : opt+freq_XTB.xyz
          number of atoms            :                    43
          number of electrons        :                    96
          charge                     :                     0
          spin                       :                   0.0
          first test random number   :      0.25620712162322

   ID    Z sym.   atoms
    1    6 C      1-6, 11, 16, 18, 21, 26, 29, 32, 36, 40
    2    1 H      7-9, 12-15, 17, 19, 20, 22-25, 27, 28, 30, 31, 33, 34,
                  37-39, 41-43
    3    7 N      10, 35

molecular fragmentation (1/2 indicates fragments):
1111111111111221111111111222222222222221111
# atoms in fragment 1/2:    27    16
 fragment masses (1/2) :      161.24       73.14
CMA distance (Bohr)    :   9.826
constraining FC (au)   :  0.0500
########################################################################
[WARNING] Please study the warnings concerning your input carefully
-1- prog_main_parseArguments: Process number higher than OMP_NUM_THREADS, I hope you know what you are doing.
########################################################################
 Solvent             : CH2Cl2
 Using internal parameter file: .param_gbsa2_CH2Cl2
 Gsolv ref. state (COSMO-RS): gsolv [1 M gas/solution]
 temperature (mdtemp)       :    298.14999999999998     
 dielectric constant        :    8.9299999999999997     
 rho                        :    1.3300000000000003     
 mass                       :    84.930000000000007     
 surface tension            :    15.568945408385856     
 probe radius               :   0.71987590000000001     
 Gshift (Eh)                :    4.4408291734517593E-003
 c1                         :    1.4917377599999999     
 soset                      :    0.0000000000000000     
 HB correction              :  F

           -------------------------------------------------
          |                 G F N 2 - x T B                 |
           -------------------------------------------------

        Reference                      10.1021/acs.jctc.8b01176
      * Hamiltonian:
        H0-scaling (s, p, d)           1.850000    2.230000    2.230000
        zeta-weighting                 0.500000
      * Dispersion:
        s8                             2.700000
        a1                             0.520000
        a2                             5.000000
        s9                             5.000000
      * Repulsion:
        kExp                           1.500000    1.000000
        rExp                           1.000000
      * Coulomb:
        alpha                          2.000000
        third order                    shell-resolved
        anisotropic                    true
        a3                             3.000000
        a5                             4.000000
        cn-shift                       1.200000
        cn-exp                         4.000000
        max-rad                        5.000000

q/qsh data taken from xtbrestart
CAMM data taken from xtbrestart

          ...................................................
          :                      SETUP                      :
          :.................................................:
          :  # basis functions                  94          :
          :  # atomic orbitals                  94          :
          :  # shells                           60          :
          :  # electrons                        96          :
          :  max. iterations                   250          :
          :  Hamiltonian                  GFN2-xTB          :
          :  restarted?                       true          :
          :  GBSA solvation                   true          :
          :  PC potential                    false          :
          :  electronic temp.          300.0000000     K    :
          :  accuracy                    1.0000000          :
          :  -> integral cutoff          0.2500000E+02      :
          :  -> integral neglect         0.1000000E-07      :
          :  -> SCF convergence          0.1000000E-05 Eh   :
          :  -> wf. convergence          0.1000000E-03 e    :
          :  Broyden damping             0.4000000          :
          ...................................................

 iter      E             dE          RMSdq      gap      omega  full diag
   1    -52.0066261 -0.520066E+02  0.462E-07    2.45       0.0  T
   2    -52.0066261  0.142109E-13  0.269E-07    2.45   56637.6  T
   3    -52.0066261  0.000000E+00  0.160E-07    2.45   95152.4  T

   *** convergence criteria satisfied after 3 iterations ***

         #    Occupation            Energy/Eh            Energy/eV
      -------------------------------------------------------------
         1        2.0000           -0.6524743             -17.7547
       ...           ...                  ...                  ...
        42        2.0000           -0.4259416             -11.5905
        43        2.0000           -0.4238387             -11.5332
        44        2.0000           -0.4210701             -11.4579
        45        2.0000           -0.4083434             -11.1116
        46        2.0000           -0.3991200             -10.8606
        47        2.0000           -0.3817007             -10.3866
        48        2.0000           -0.3620515              -9.8519 (HOMO)
        49                         -0.2720263              -7.4022 (LUMO)
        50                         -0.2256973              -6.1415
        51                         -0.1869298              -5.0866
        52                         -0.0837489              -2.2789
        53                          0.0405105               1.1023
       ...                                ...                  ...
        94                          0.6677160              18.1695
      -------------------------------------------------------------
                  HL-Gap            0.0900252 Eh            2.4497 eV
             Fermi-level           -0.3170389 Eh           -8.6271 eV

 SCC (total)                   0 d,  0 h,  0 min,  0.099 sec
 SCC setup                      ...        0 min,  0.002 sec (  1.883%)
 Dispersion                     ...        0 min,  0.001 sec (  0.726%)
 classical contributions        ...        0 min,  0.000 sec (  0.238%)
 integral evaluation            ...        0 min,  0.028 sec ( 28.339%)
 iterations                     ...        0 min,  0.020 sec ( 20.549%)
 molecular gradient             ...        0 min,  0.044 sec ( 44.449%)
 printout                       ...        0 min,  0.004 sec (  3.796%)

         :::::::::::::::::::::::::::::::::::::::::::::::::::::
         ::                     SUMMARY                     ::
         :::::::::::::::::::::::::::::::::::::::::::::::::::::
         :: total energy             -51.213634330589 Eh    ::
         :: total w/o Gsasa/hb       -51.190817302057 Eh    ::
         :: gradient norm              0.000454164181 Eh/a0 ::
         :: HOMO-LUMO gap              2.449710392952 eV    ::
         ::.................................................::
         :: SCC energy               -52.029443100365 Eh    ::
         :: -> isotropic ES            0.026716682380 Eh    ::
         :: -> anisotropic ES          0.007791327517 Eh    ::
         :: -> anisotropic XC          0.041179433862 Eh    ::
         :: -> dispersion             -0.033755926473 Eh    ::
         :: -> Gsolv                  -0.025884266330 Eh    ::
         ::    -> Gborn               -0.003067237798 Eh    ::
         ::    -> Gsasa               -0.027257857705 Eh    ::
         ::    -> Ghb                  0.000000000000 Eh    ::
         ::    -> Gshift               0.004440829173 Eh    ::
         :: repulsion energy           0.815579229167 Eh    ::
         :: add. restraining           0.000000000000 Eh    ::
         :::::::::::::::::::::::::::::::::::::::::::::::::::::

           -------------------------------------------------
          |                Property Printout                |
           -------------------------------------------------

    * Orbital Energies and Occupations

         #    Occupation            Energy/Eh            Energy/eV
      -------------------------------------------------------------
         1        2.0000           -0.6524743             -17.7547
       ...           ...                  ...                  ...
        36        2.0000           -0.4483302             -12.1997
        37        2.0000           -0.4418959             -12.0246
        38        2.0000           -0.4396457             -11.9634
        39        2.0000           -0.4355676             -11.8524
        40        2.0000           -0.4346565             -11.8276
        41        2.0000           -0.4301583             -11.7052
        42        2.0000           -0.4259416             -11.5905
        43        2.0000           -0.4238387             -11.5332
        44        2.0000           -0.4210701             -11.4579
        45        2.0000           -0.4083434             -11.1116
        46        2.0000           -0.3991200             -10.8606
        47        2.0000           -0.3817007             -10.3866
        48        2.0000           -0.3620515              -9.8519 (HOMO)
        49                         -0.2720263              -7.4022 (LUMO)
        50                         -0.2256973              -6.1415
        51                         -0.1869298              -5.0866
        52                         -0.0837489              -2.2789
        53                          0.0405105               1.1023
        54                          0.0508493               1.3837
        55                          0.0796430               2.1672
        56                          0.0936028               2.5471
        57                          0.0975193               2.6536
        58                          0.1092002               2.9715
        59                          0.1201524               3.2695
       ...                                ...                  ...
        94                          0.6677160              18.1695
      -------------------------------------------------------------
                  HL-Gap            0.0900252 Eh            2.4497 eV
             Fermi-level           -0.3170389 Eh           -8.6271 eV

     #   Z        covCN         q      C6AA      α(0)
     1   6 C      2.917    -0.029    28.734     8.790
     2   6 C      2.926    -0.031    28.763     8.795
     3   6 C      2.975     0.004    27.941     8.671
     4   6 C      2.922    -0.031    28.765     8.795
     5   6 C      2.918    -0.027    28.671     8.781
     6   6 C      2.920    -0.024    28.615     8.772
     7   1 H      0.925     0.035     2.516     2.481
     8   1 H      0.926     0.068     2.112     2.273
     9   1 H      0.926     0.043     2.414     2.430
    10   7 N      1.829    -0.263    27.674     7.795
    11   6 C      3.768     0.028    20.144     6.396
    12   1 H      0.923     0.004     2.991     2.705
    13   1 H      0.924     0.036     2.497     2.471
    14   1 H      0.860     0.173     1.253     1.754
    15   1 H      0.860     0.131     1.534     1.940
    16   6 C      2.862     0.079    26.223     8.394
    17   1 H      0.923    -0.003     3.117     2.761
    18   6 C      3.805    -0.056    21.585     6.614
    19   1 H      0.924     0.033     2.548     2.496
    20   1 H      0.924     0.044     2.391     2.418
    21   6 C      3.801    -0.052    21.509     6.603
    22   1 H      0.924     0.031     2.568     2.506
    23   1 H      0.924     0.031     2.577     2.510
    24   1 H      0.926     0.040     2.451     2.448
    25   1 H      0.926     0.044     2.394     2.419
    26   6 C      3.731     0.017    20.373     6.443
    27   1 H      0.924     0.027     2.631     2.537
    28   1 H      0.924     0.028     2.619     2.531
    29   6 C      3.800    -0.067    21.786     6.646
    30   1 H      0.924     0.024     2.669     2.555
    31   1 H      0.924     0.029     2.596     2.520
    32   6 C      3.800    -0.054    21.542     6.608
    33   1 H      0.924     0.030     2.591     2.517
    34   1 H      0.924     0.029     2.598     2.521
    35   7 N      2.628    -0.384    29.937     8.126
    36   6 C      3.752    -0.102    22.507     6.766
    37   1 H      0.925     0.035     2.510     2.477
    38   1 H      0.925     0.035     2.513     2.479
    39   1 H      0.925     0.034     2.532     2.488
    40   6 C      3.752    -0.104    22.539     6.770
    41   1 H      0.925     0.039     2.467     2.456
    42   1 H      0.925     0.039     2.466     2.456
    43   1 H      0.925     0.036     2.497     2.471

 Mol. C6AA /au·bohr⁶  :      15751.965526
 Mol. C8AA /au·bohr⁸  :     348629.917263
 Mol. α(0) /au        :        193.384675


Wiberg/Mayer (AO) data.
largest (>0.10) Wiberg bond orders for each atom
          total WBO             WBO to atom ...
     1  C   3.992        C    2 1.458    C    6 1.431    H   24 0.970    C    4 0.106
     2  C   3.987        C    1 1.458    C    3 1.373    H    7 0.968    C    5 0.104
     3  C   3.989        C    2 1.373    C    4 1.367    C   16 1.093
     4  C   3.987        C    5 1.462    C    3 1.367    H    8 0.960    C    1 0.106
     5  C   3.992        C    4 1.462    C    6 1.428    H   25 0.970    C    2 0.104
     6  C   3.987        C    1 1.431    C    5 1.428    H    9 0.971
     7  H   0.999        C    2 0.968
     8  H   0.995        C    4 0.960
     9  H   0.998        C    6 0.971
    10  N   3.091        C   16 1.829    C   11 1.031
    11  C   3.985        N   10 1.031    C   18 0.982    H   12 0.963    H   13 0.957
    12  H   1.000        C   11 0.963
    13  H   0.995        C   11 0.957
    14  H   0.970        N   35 0.934
    15  H   0.983        N   35 0.969
    16  C   3.969        N   10 1.829    C    3 1.093    H   17 0.937
    17  H   0.999        C   16 0.937
    18  C   3.990        C   21 1.006    C   11 0.982    H   19 0.978    H   20 0.974
    19  H   0.999        C   18 0.978
    20  H   0.998        C   18 0.974
    21  C   3.996        C   40 1.019    C   18 1.006    H   23 0.978    H   22 0.978
    22  H   0.999        C   21 0.978
    23  H   0.999        C   21 0.978
    24  H   0.998        C    1 0.970
    25  H   0.998        C    5 0.970
    26  C   3.987        N   35 1.028    C   29 0.993    H   28 0.975    H   27 0.975
    27  H   0.999        C   26 0.975
    28  H   0.999        C   26 0.975
    29  C   3.997        C   32 1.007    C   26 0.993    H   30 0.978    H   31 0.975
    30  H   0.999        C   29 0.978
    31  H   0.999        C   29 0.975
    32  C   3.998        C   36 1.019    C   29 1.007    H   34 0.979    H   33 0.978
    33  H   0.999        C   32 0.978
    34  H   0.999        C   32 0.979
    35  N   3.000        C   26 1.028    H   15 0.969    H   14 0.934
    36  C   3.997        C   32 1.019    H   39 0.988    H   38 0.988    H   37 0.987
    37  H   0.998        C   36 0.987
    38  H   0.999        C   36 0.988
    39  H   0.999        C   36 0.988
    40  C   3.995        C   21 1.019    H   43 0.988    H   42 0.988    H   41 0.987
    41  H   0.998        C   40 0.987
    42  H   0.998        C   40 0.988
    43  H   0.999        C   40 0.988
Topologies differ in total number of bonds
Writing topology from bond orders to xtbtopo.mol

molecular dipole:
                 x           y           z       tot (Debye)
 q only:        0.091       0.195       0.064
   full:       -0.245       0.668      -0.238       1.908
molecular quadrupole (traceless):
                xx          xy          yy          xz          yz          zz
 q only:        8.185       1.564      -4.240      -2.112      -0.262      -3.945
  q+dip:        9.038       0.680      -1.048       0.794       1.102      -7.991
   full:        8.481       0.906      -3.745       0.263       1.675      -4.736


           -------------------------------------------------
          | TOTAL ENERGY              -51.213634330589 Eh   |
          | GRADIENT NORM               0.000454164181 Eh/α |
          | HOMO-LUMO GAP               2.449710392952 eV   |
           -------------------------------------------------

------------------------------------------------------------------------
 * finished run on 2020/06/19 at 18:38:00.715     
------------------------------------------------------------------------
 total:
 * wall-time:     0 d,  0 h,  0 min,  0.162 sec
 *  cpu-time:     0 d,  0 h,  0 min,  1.598 sec
 * ratio c/w:     9.869 speedup
 SCF:
 * wall-time:     0 d,  0 h,  0 min,  0.101 sec
 *  cpu-time:     0 d,  0 h,  0 min,  1.030 sec
 * ratio c/w:    10.248 speedup


-------------------------   --------------------
FINAL SINGLE POINT ENERGY       -51.213634330590
-------------------------   --------------------

------------------------------------------------------------------------------
                         ORCA GEOMETRY RELAXATION STEP
------------------------------------------------------------------------------

Reading the OPT-File                    .... done
Getting information on internals        .... done
Copying old internal coords+grads       .... done
Making the new internal coordinates     .... (new redundants).... done
Validating the new internal coordinates .... (new redundants).... done
Calculating the B-matrix                .... done
Calculating the G,G- and P matrices     .... done
Transforming gradient to internals      .... done
Projecting the internal gradient        .... done
Number of atoms                         ....  43
Number of internal coordinates          .... 284
Current Energy                          ....   -51.213634331 Eh
Current gradient norm                   ....     0.000454164 Eh/bohr
Maximum allowed component of the step   ....  0.300
Current trust radius                    ....  0.300
Evaluating the initial hessian          ....  (Almloef) done
Projecting the Hessian                  .... done
Forming the augmented Hessian           .... done
Diagonalizing the augmented Hessian     .... done
Last element of RFO vector              ....  0.999992729
Lowest eigenvalues of augmented Hessian:
 -0.000000591  0.006824095  0.011397576  0.011432559  0.011552944
Length of the computed step             ....  0.003813380
The final length of the internal step   ....  0.003813380
Converting the step to cartesian space:
 Initial RMS(Int)=    0.0002262825
Transforming coordinates:
 Iter   0:  RMS(Cart)=    0.0007054057 RMS(Int)=    0.0002262849
 Iter   1:  RMS(Cart)=    0.0000002194 RMS(Int)=    0.0000000742
 Iter   2:  RMS(Cart)=    0.0000000001 RMS(Int)=    0.0000000000
done
Storing new coordinates                 .... done

                                .--------------------.
          ----------------------|Geometry convergence|-------------------------
          Item                value                   Tolerance       Converged
          ---------------------------------------------------------------------
          RMS gradient        0.0000178253            0.0001000000      YES
          MAX gradient        0.0001161791            0.0003000000      YES
          RMS step            0.0002262825            0.0020000000      YES
          MAX step            0.0015106499            0.0040000000      YES
          ........................................................
          Max(Bonds)      0.0008      Max(Angles)    0.02
          Max(Dihed)        0.05      Max(Improp)    0.00
          ---------------------------------------------------------------------

                    ***********************HURRAY********************
                    ***        THE OPTIMIZATION HAS CONVERGED     ***
                    *************************************************


    ---------------------------------------------------------------------------
                         Redundant Internal Coordinates

                          --- Optimized Parameters ---  
                            (Angstroem and degrees)

        Definition                    OldVal   dE/dq     Step     FinalVal
    ----------------------------------------------------------------------------
     1. B(C   1,C   0)                1.3817 -0.000017  0.0000    1.3818   
     2. B(C   2,C   1)                1.3965 -0.000004  0.0000    1.3965   
     3. B(C   3,C   2)                1.3969  0.000006  0.0000    1.3969   
     4. B(C   4,C   3)                1.3817  0.000011 -0.0000    1.3817   
     5. B(C   5,C   4)                1.3869  0.000014 -0.0000    1.3869   
     6. B(C   5,C   0)                1.3861  0.000001 -0.0000    1.3861   
     7. B(H   6,C   1)                1.0816  0.000026 -0.0000    1.0815   
     8. B(H   7,C   3)                1.0784  0.000000  0.0000    1.0784   
     9. B(H   8,C   5)                1.0803 -0.000002  0.0000    1.0803   
    10. B(C  10,N   9)                1.4321 -0.000031  0.0000    1.4321   
    11. B(H  11,C  10)                1.1037  0.000002 -0.0000    1.1037   
    12. B(H  12,C  10)                1.0962 -0.000001  0.0000    1.0962   
    13. B(H  13,N   9)                2.0916 -0.000005  0.0002    2.0918   
    14. B(H  13,H   7)                2.1798  0.000006  0.0002    2.1800   
    15. B(C  15,N   9)                1.2641 -0.000010  0.0000    1.2641   
    16. B(C  15,C   2)                1.4530  0.000004 -0.0000    1.4530   
    17. B(H  16,C  15)                1.1028 -0.000013  0.0000    1.1029   
    18. B(C  17,C  10)                1.5324  0.000006  0.0000    1.5324   
    19. B(H  18,C  17)                1.0929  0.000009 -0.0000    1.0928   
    20. B(H  19,C  17)                1.0915  0.000002 -0.0000    1.0915   
    21. B(H  19,H  13)                2.7191 -0.000013  0.0008    2.7199   
    22. B(C  20,C  17)                1.5263 -0.000005  0.0000    1.5263   
    23. B(H  21,C  20)                1.0927 -0.000013  0.0000    1.0927   
    24. B(H  22,C  20)                1.0929 -0.000006  0.0000    1.0929   
    25. B(H  23,C   0)                1.0804  0.000019 -0.0000    1.0804   
    26. B(H  24,C   4)                1.0800 -0.000020  0.0000    1.0800   
    27. B(H  26,C  25)                1.0954  0.000016 -0.0000    1.0954   
    28. B(H  27,C  25)                1.0942 -0.000009  0.0000    1.0942   
    29. B(C  28,C  25)                1.5350  0.000022  0.0000    1.5350   
    30. B(H  29,C  28)                1.0945 -0.000015  0.0000    1.0945   
    31. B(H  30,C  28)                1.0932  0.000001  0.0000    1.0932   
    32. B(H  30,H  19)                2.4796 -0.000015  0.0005    2.4802   
    33. B(C  31,C  28)                1.5268  0.000029 -0.0000    1.5267   
    34. B(H  32,C  31)                1.0925 -0.000071  0.0001    1.0926   
    35. B(H  33,C  31)                1.0927  0.000009 -0.0000    1.0927   
    36. B(N  34,H   7)                2.4371  0.000006  0.0003    2.4374   
    37. B(N  34,C  25)                1.4535  0.000057 -0.0001    1.4534   
    38. B(N  34,H  14)                1.0156 -0.000013  0.0000    1.0156   
    39. B(N  34,H  13)                1.0194  0.000085 -0.0001    1.0193   
    40. B(C  35,C  31)                1.5248  0.000027 -0.0000    1.5248   
    41. B(H  36,C  35)                1.0878 -0.000038  0.0001    1.0879   
    42. B(H  37,C  35)                1.0882  0.000097 -0.0001    1.0881   
    43. B(H  38,C  35)                1.0881 -0.000116  0.0002    1.0883   
    44. B(C  39,C  20)                1.5243  0.000003 -0.0000    1.5243   
    45. B(H  40,C  39)                1.0878 -0.000008  0.0000    1.0878   
    46. B(H  41,C  39)                1.0879 -0.000005  0.0000    1.0879   
    47. B(H  42,C  39)                1.0880  0.000008 -0.0000    1.0880   
    48. A(C   1,C   0,H  23)          119.90 -0.000004    0.00    119.90   
    49. A(C   1,C   0,C   5)          119.98  0.000004   -0.00    119.98   
    50. A(C   5,C   0,H  23)          120.12  0.000000   -0.00    120.12   
    51. A(C   2,C   1,H   6)          119.55 -0.000002   -0.00    119.55   
    52. A(C   0,C   1,H   6)          119.93 -0.000003    0.00    119.93   
    53. A(C   0,C   1,C   2)          120.53  0.000004   -0.00    120.53   
    54. A(C   1,C   2,C   3)          119.10  0.000003   -0.00    119.10   
    55. A(C   1,C   2,C  15)          118.97 -0.000013    0.00    118.97   
    56. A(C   3,C   2,C  15)          121.94  0.000009   -0.00    121.93   
    57. A(C   2,C   3,C   4)          120.06 -0.000006    0.00    120.06   
    58. A(C   2,C   3,H   7)          119.20 -0.000008    0.00    119.21   
    59. A(C   4,C   3,H   7)          120.74  0.000015   -0.00    120.74   
    60. A(C   5,C   4,H  24)          120.00  0.000005   -0.00    120.00   
    61. A(C   3,C   4,C   5)          120.42 -0.000003    0.00    120.42   
    62. A(C   3,C   4,H  24)          119.58 -0.000002    0.00    119.58   
    63. A(C   0,C   5,H   8)          119.97 -0.000001    0.00    119.97   
    64. A(C   0,C   5,C   4)          119.91 -0.000002    0.00    119.91   
    65. A(C   4,C   5,H   8)          120.12  0.000003   -0.00    120.12   
    66. A(C   3,H   7,N  34)          160.13  0.000012   -0.01    160.12   
    67. A(H  13,H   7,N  34)           24.71  0.000020   -0.01     24.70   
    68. A(C   3,H   7,H  13)          142.77 -0.000006   -0.00    142.77   
    69. A(H  13,N   9,C  15)          133.02 -0.000019    0.00    133.03   
    70. A(C  10,N   9,H  13)          106.47  0.000012   -0.00    106.46   
    71. A(C  10,N   9,C  15)          119.86  0.000009   -0.00    119.86   
    72. A(H  11,C  10,H  12)          108.39  0.000002   -0.00    108.39   
    73. A(N   9,C  10,H  12)          107.31 -0.000018    0.00    107.31   
    74. A(H  12,C  10,C  17)          109.12  0.000003    0.00    109.12   
    75. A(H  11,C  10,C  17)          109.79 -0.000003   -0.00    109.78   
    76. A(N   9,C  10,C  17)          109.95  0.000008    0.00    109.96   
    77. A(N   9,C  10,H  11)          112.20  0.000007   -0.00    112.20   
    78. A(N   9,H  13,H  19)           64.51 -0.000004   -0.01     64.50   
    79. A(N   9,H  13,N  34)          165.81 -0.000006    0.01    165.82   
    80. A(H  19,H  13,N  34)          128.31  0.000009    0.00    128.31   
    81. A(H   7,H  13,N   9)           75.23  0.000017   -0.01     75.22   
    82. A(H   7,H  13,N  34)           91.92 -0.000022    0.02     91.93   
    83. A(H   7,H  13,H  19)          117.45  0.000010   -0.01    117.44   
    84. A(N   9,C  15,H  16)          121.11 -0.000006    0.00    121.11   
    85. A(C   2,C  15,H  16)          115.15 -0.000007    0.00    115.15   
    86. A(C   2,C  15,N   9)          123.73  0.000013   -0.00    123.73   
    87. A(H  19,C  17,C  20)          110.05  0.000001    0.00    110.05   
    88. A(H  18,C  17,C  20)          109.83 -0.000006   -0.00    109.83   
    89. A(C  10,C  17,C  20)          111.85  0.000004   -0.00    111.84   
    90. A(H  18,C  17,H  19)          107.54  0.000005   -0.00    107.54   
    91. A(C  10,C  17,H  19)          108.71 -0.000014    0.01    108.71   
    92. A(C  10,C  17,H  18)          108.76  0.000010   -0.00    108.76   
    93. A(C  17,H  19,H  30)          121.53  0.000031   -0.02    121.51   
    94. A(H  13,H  19,C  17)          112.02  0.000012   -0.02    112.00   
    95. A(H  13,H  19,H  30)           59.38 -0.000006   -0.00     59.38   
    96. A(C  17,C  20,H  21)          109.33  0.000003    0.00    109.33   
    97. A(H  21,C  20,C  39)          109.46  0.000004    0.00    109.46   
    98. A(H  22,C  20,C  39)          109.47  0.000005   -0.00    109.47   
    99. A(H  21,C  20,H  22)          107.50 -0.000001   -0.00    107.50   
   100. A(C  17,C  20,C  39)          111.69 -0.000020    0.00    111.69   
   101. A(C  17,C  20,H  22)          109.30  0.000010   -0.00    109.29   
   102. A(C  28,C  25,N  34)          115.05 -0.000045    0.01    115.06   
   103. A(H  27,C  25,N  34)          107.29  0.000020   -0.01    107.29   
   104. A(H  26,C  25,N  34)          107.62  0.000026   -0.01    107.62   
   105. A(H  27,C  25,C  28)          109.61  0.000005    0.00    109.61   
   106. A(H  26,C  25,C  28)          109.28  0.000003   -0.00    109.28   
   107. A(H  26,C  25,H  27)          107.73 -0.000006   -0.00    107.73   
   108. A(H  30,C  28,C  31)          109.58 -0.000008    0.00    109.59   
   109. A(H  29,C  28,C  31)          109.40 -0.000004    0.00    109.40   
   110. A(C  25,C  28,C  31)          112.17 -0.000003   -0.01    112.17   
   111. A(H  29,C  28,H  30)          107.58 -0.000015    0.01    107.59   
   112. A(C  25,C  28,H  30)          108.99  0.000016    0.00    109.00   
   113. A(C  25,C  28,H  29)          109.00  0.000014   -0.00    108.99   
   114. A(H  19,H  30,C  28)          130.32 -0.000001    0.00    130.33   
   115. A(H  33,C  31,C  35)          109.42  0.000010   -0.00    109.42   
   116. A(H  32,C  31,C  35)          109.44  0.000001    0.00    109.44   
   117. A(C  28,C  31,C  35)          112.04 -0.000032    0.01    112.05   
   118. A(H  32,C  31,H  33)          107.52 -0.000003   -0.00    107.52   
   119. A(C  28,C  31,H  33)          109.09  0.000010   -0.00    109.09   
   120. A(C  28,C  31,H  32)          109.21  0.000014   -0.00    109.21   
   121. A(H  14,N  34,C  25)          109.80  0.000042   -0.01    109.79   
   122. A(H  13,N  34,C  25)          110.46 -0.000012   -0.00    110.46   
   123. A(H  13,N  34,H  14)          107.14 -0.000000    0.00    107.14   
   124. A(H   7,N  34,C  25)          143.88 -0.000047    0.01    143.90   
   125. A(H   7,N  34,H  14)          105.77  0.000004   -0.00    105.77   
   126. A(H   7,N  34,H  13)           63.37  0.000002   -0.01     63.36   
   127. A(H  36,C  35,H  38)          108.38 -0.000010    0.00    108.38   
   128. A(C  31,C  35,H  38)          110.58 -0.000004    0.00    110.58   
   129. A(H  36,C  35,H  37)          108.34 -0.000001    0.00    108.34   
   130. A(C  31,C  35,H  37)          110.60 -0.000030    0.01    110.60   
   131. A(C  31,C  35,H  36)          110.53  0.000022   -0.00    110.53   
   132. A(H  37,C  35,H  38)          108.34  0.000024   -0.01    108.33   
   133. A(H  41,C  39,H  42)          108.31  0.000001   -0.00    108.31   
   134. A(H  40,C  39,H  42)          108.44 -0.000002    0.00    108.44   
   135. A(C  20,C  39,H  42)          110.54  0.000001   -0.00    110.54   
   136. A(H  40,C  39,H  41)          108.44 -0.000001    0.00    108.44   
   137. A(C  20,C  39,H  41)          110.56 -0.000003    0.00    110.56   
   138. A(C  20,C  39,H  40)          110.48  0.000004   -0.00    110.47   
   139. D(H   6,C   1,C   0,H  23)      0.03  0.000001   -0.00      0.03   
   140. D(C   2,C   1,C   0,C   5)     -0.15 -0.000004    0.01     -0.14   
   141. D(H   6,C   1,C   0,C   5)    179.97 -0.000002    0.00    179.97   
   142. D(C   2,C   1,C   0,H  23)    179.92 -0.000001    0.00    179.92   
   143. D(C   3,C   2,C   1,C   0)      0.15  0.000003   -0.01      0.15   
   144. D(C  15,C   2,C   1,H   6)     -0.23 -0.000000   -0.00     -0.24   
   145. D(C   3,C   2,C   1,H   6)   -179.96  0.000000    0.00   -179.96   
   146. D(C  15,C   2,C   1,C   0)    179.89  0.000002   -0.01    179.88   
   147. D(H   7,C   3,C   2,C   1)   -179.86  0.000000    0.00   -179.86   
   148. D(C   4,C   3,C   2,C  15)   -179.79  0.000003    0.00   -179.79   
   149. D(H   7,C   3,C   2,C  15)      0.42  0.000001    0.00      0.42   
   150. D(C   4,C   3,C   2,C   1)     -0.07  0.000002   -0.00     -0.07   
   151. D(H  24,C   4,C   3,C   2)    179.98 -0.000003    0.00    179.99   
   152. D(H  24,C   4,C   3,H   7)     -0.23 -0.000001    0.00     -0.23   
   153. D(C   5,C   4,C   3,H   7)    179.77 -0.000004    0.01    179.77   
   154. D(C   5,C   4,C   3,C   2)     -0.02 -0.000005    0.01     -0.01   
   155. D(C   4,C   5,C   0,C   1)      0.06  0.000001   -0.00      0.06   
   156. D(H   8,C   5,C   4,H  24)      0.03 -0.000000    0.00      0.03   
   157. D(H   8,C   5,C   0,C   1)   -179.94  0.000003   -0.00   -179.95   
   158. D(H   8,C   5,C   4,C   3)   -179.97  0.000002   -0.00   -179.97   
   159. D(C   4,C   5,C   0,H  23)    179.99 -0.000002    0.00    180.00   
   160. D(C   0,C   5,C   4,H  24)   -179.98  0.000001   -0.00   -179.98   
   161. D(H   8,C   5,C   0,H  23)     -0.01 -0.000000    0.00     -0.01   
   162. D(C   0,C   5,C   4,C   3)      0.02  0.000004   -0.01      0.01   
   163. D(N  34,H   7,C   3,C   4)   -120.89  0.000009   -0.01   -120.90   
   164. D(N  34,H   7,C   3,C   2)     58.89  0.000011   -0.01     58.89   
   165. D(H  13,H   7,C   3,C   2)     19.80 -0.000024    0.01     19.81   
   166. D(H  13,H   7,C   3,C   4)   -159.99 -0.000025    0.02   -159.98   
   167. D(H  11,C  10,N   9,C  15)      6.51  0.000006    0.00      6.51   
   168. D(H  11,C  10,N   9,H  13)   -165.45 -0.000000    0.02   -165.43   
   169. D(H  12,C  10,N   9,C  15)    125.46  0.000002    0.00    125.46   
   170. D(C  17,C  10,N   9,C  15)   -115.98 -0.000000    0.01   -115.97   
   171. D(C  17,C  10,N   9,H  13)     72.06 -0.000007    0.02     72.08   
   172. D(H  12,C  10,N   9,H  13)    -46.50 -0.000005    0.02    -46.49   
   173. D(H  19,H  13,N   9,C  15)    148.19 -0.000008    0.02    148.21   
   174. D(H  19,H  13,N   9,C  10)    -41.36  0.000005   -0.01    -41.36   
   175. D(H   7,H  13,N   9,C  15)     17.36 -0.000010    0.02     17.37   
   176. D(H   7,H  13,N   9,C  10)   -172.19  0.000002   -0.01   -172.20   
   177. D(N  34,H  13,N   9,C  10)    162.26  0.000008   -0.01    162.26   
   178. D(H  19,H  13,H   7,N  34)    135.75 -0.000000    0.01    135.76   
   179. D(H  19,H  13,H   7,C   3)    -75.09  0.000020   -0.01    -75.10   
   180. D(N  34,H  13,N   9,C  15)     -8.19 -0.000005    0.02     -8.17   
   181. D(N  34,H  13,H   7,C   3)    149.16  0.000021   -0.01    149.14   
   182. D(N   9,H  13,H   7,C   3)    -24.77  0.000022   -0.02    -24.79   
   183. D(N   9,H  13,H   7,N  34)   -173.93  0.000001   -0.00   -173.94   
   184. D(H  16,C  15,N   9,H  13)    167.71  0.000021   -0.03    167.68   
   185. D(H  16,C  15,N   9,C  10)     -1.72  0.000007   -0.00     -1.72   
   186. D(C   2,C  15,N   9,H  13)    -11.92  0.000001   -0.01    -11.93   
   187. D(C   2,C  15,N   9,C  10)    178.65 -0.000012    0.02    178.67   
   188. D(H  16,C  15,C   2,C   3)    177.48 -0.000010    0.01    177.49   
   189. D(H  16,C  15,C   2,C   1)     -2.25 -0.000010    0.02     -2.23   
   190. D(N   9,C  15,C   2,C   3)     -2.87  0.000008   -0.01     -2.87   
   191. D(N   9,C  15,C   2,C   1)    177.41  0.000009   -0.00    177.41   
   192. D(C  20,C  17,C  10,N   9)   -175.87  0.000016   -0.02   -175.89   
   193. D(H  19,C  17,C  10,H  12)     63.28 -0.000005   -0.01     63.28   
   194. D(H  19,C  17,C  10,H  11)   -178.06 -0.000002   -0.01   -178.07   
   195. D(H  19,C  17,C  10,N   9)    -54.16  0.000010   -0.01    -54.17   
   196. D(C  20,C  17,C  10,H  11)     60.23  0.000005   -0.01     60.21   
   197. D(H  18,C  17,C  10,H  12)   -179.91 -0.000000   -0.01   -179.91   
   198. D(H  18,C  17,C  10,H  11)    -61.25  0.000002   -0.01    -61.26   
   199. D(H  18,C  17,C  10,N   9)     62.65  0.000014   -0.02     62.64   
   200. D(C  20,C  17,C  10,H  12)    -58.43  0.000002   -0.01    -58.44   
   201. D(C  17,H  19,H  13,N  34)   -170.34 -0.000013    0.01   -170.33   
   202. D(H  30,H  19,C  17,C  20)     69.85 -0.000012    0.02     69.87   
   203. D(H  30,H  19,C  17,H  18)   -170.54 -0.000016    0.02   -170.53   
   204. D(H  30,H  19,C  17,C  10)    -52.95 -0.000008    0.01    -52.94   
   205. D(H  13,H  19,C  17,C  20)    136.50 -0.000008    0.00    136.50   
   206. D(H  13,H  19,C  17,H  18)   -103.90 -0.000011   -0.00   -103.90   
   207. D(H  13,H  19,C  17,C  10)     13.69 -0.000003   -0.00     13.69   
   208. D(H  30,H  19,H  13,N   9)    131.44  0.000021   -0.01    131.43   
   209. D(H  30,H  19,H  13,H   7)   -173.04  0.000032   -0.02   -173.05   
   210. D(H  30,H  19,H  13,N  34)    -55.75  0.000017   -0.00    -55.75   
   211. D(C  17,H  19,H  13,N   9)     16.85 -0.000008    0.01     16.86   
   212. D(C  17,H  19,H  13,H   7)     72.38  0.000003   -0.00     72.38   
   213. D(C  39,C  20,C  17,H  19)     57.67  0.000006   -0.01     57.66   
   214. D(C  39,C  20,C  17,H  18)    -60.53  0.000003   -0.01    -60.54   
   215. D(C  39,C  20,C  17,C  10)    178.61 -0.000009   -0.00    178.61   
   216. D(H  22,C  20,C  17,H  19)    178.97  0.000006   -0.01    178.95   
   217. D(H  22,C  20,C  17,H  18)     60.76  0.000002   -0.01     60.75   
   218. D(H  22,C  20,C  17,C  10)    -60.10 -0.000009   -0.00    -60.10   
   219. D(H  21,C  20,C  17,H  19)    -63.62  0.000011   -0.01    -63.63   
   220. D(H  21,C  20,C  17,H  18)    178.18  0.000008   -0.01    178.17   
   221. D(H  21,C  20,C  17,C  10)     57.32 -0.000003   -0.01     57.31   
   222. D(C  31,C  28,C  25,N  34)   -179.31  0.000012   -0.03   -179.34   
   223. D(C  31,C  28,C  25,H  26)     59.52  0.000006   -0.03     59.50   
   224. D(H  30,C  28,C  25,N  34)    -57.77  0.000010   -0.03    -57.80   
   225. D(H  30,C  28,C  25,H  27)     63.21  0.000008   -0.02     63.19   
   226. D(H  30,C  28,C  25,H  26)   -178.94  0.000005   -0.03   -178.97   
   227. D(H  29,C  28,C  25,N  34)     59.38  0.000009   -0.02     59.36   
   228. D(C  31,C  28,C  25,H  27)    -58.32  0.000009   -0.02    -58.35   
   229. D(H  29,C  28,C  25,H  27)   -179.64  0.000007   -0.02   -179.65   
   230. D(H  29,C  28,C  25,H  26)    -61.79  0.000004   -0.02    -61.81   
   231. D(H  19,H  30,C  28,C  31)     94.81 -0.000026    0.03     94.83   
   232. D(H  19,H  30,C  28,H  29)   -146.34 -0.000045    0.03   -146.31   
   233. D(H  19,H  30,C  28,C  25)    -28.29 -0.000028    0.03    -28.26   
   234. D(C  28,H  30,H  19,H  13)     62.62  0.000042   -0.04     62.59   
   235. D(C  28,H  30,H  19,C  17)    161.13  0.000039   -0.05    161.08   
   236. D(C  35,C  31,C  28,H  30)     58.63 -0.000015    0.00     58.63   
   237. D(C  35,C  31,C  28,H  29)    -59.10  0.000010   -0.00    -59.10   
   238. D(C  35,C  31,C  28,C  25)    179.83 -0.000003    0.01    179.83   
   239. D(H  33,C  31,C  28,H  30)    179.95 -0.000017    0.00    179.95   
   240. D(H  33,C  31,C  28,H  29)     62.22  0.000009   -0.00     62.22   
   241. D(H  33,C  31,C  28,C  25)    -58.86 -0.000004    0.01    -58.85   
   242. D(H  32,C  31,C  28,H  30)    -62.80 -0.000006   -0.00    -62.80   
   243. D(H  32,C  31,C  28,H  29)    179.48  0.000019   -0.01    179.47   
   244. D(H  32,C  31,C  28,C  25)     58.40  0.000006    0.00     58.40   
   245. D(H   7,N  34,C  25,H  26)   -104.04 -0.000001   -0.02   -104.06   
   246. D(H  14,N  34,C  25,C  28)    -56.58 -0.000001    0.01    -56.57   
   247. D(H  14,N  34,C  25,H  27)   -178.82  0.000008   -0.00   -178.82   
   248. D(H  13,N  34,C  25,C  28)     61.36  0.000017    0.00     61.36   
   249. D(H  13,N  34,C  25,H  27)    -60.88  0.000026   -0.01    -60.89   
   250. D(H  13,N  34,C  25,H  26)   -176.57  0.000010    0.00   -176.57   
   251. D(H   7,N  34,H  13,N   9)     24.66 -0.000003   -0.00     24.65   
   252. D(C  25,N  34,H  13,H  19)     13.13 -0.000045    0.01     13.14   
   253. D(C  25,N  34,H  13,N   9)    165.68 -0.000051    0.01    165.69   
   254. D(C  25,N  34,H  13,H   7)    141.03 -0.000048    0.02    141.04   
   255. D(H  14,N  34,H  13,H  19)    132.69 -0.000002    0.00    132.69   
   256. D(H   7,N  34,H  13,H  19)   -127.90  0.000003   -0.00   -127.90   
   257. D(H  14,N  34,H  13,N   9)    -74.76 -0.000008    0.00    -74.76   
   258. D(H  14,N  34,H  13,H   7)    -99.41 -0.000005    0.00    -99.41   
   259. D(C  25,N  34,H   7,H  13)    -88.65 -0.000006    0.03    -88.62   
   260. D(H  14,N  34,C  25,H  26)     65.49 -0.000007    0.01     65.49   
   261. D(C  25,N  34,H   7,C   3)   -154.51 -0.000018    0.03   -154.48   
   262. D(H  14,N  34,H   7,H  13)    101.59 -0.000002    0.00    101.59   
   263. D(H  14,N  34,H   7,C   3)     35.72 -0.000014    0.01     35.73   
   264. D(H   7,N  34,C  25,H  27)     11.65  0.000015   -0.03     11.62   
   265. D(H  13,N  34,H   7,C   3)    -65.87 -0.000012    0.01    -65.86   
   266. D(H   7,N  34,C  25,C  28)    133.89  0.000006   -0.02    133.87   
   267. D(H  38,C  35,C  31,H  33)    -61.53  0.000008   -0.02    -61.55   
   268. D(H  38,C  35,C  31,H  32)   -179.12  0.000004   -0.02   -179.13   
   269. D(H  38,C  35,C  31,C  28)     59.59  0.000006   -0.02     59.57   
   270. D(H  37,C  35,C  31,H  33)    178.46  0.000000   -0.01    178.44   
   271. D(H  37,C  35,C  31,H  32)     60.87 -0.000003   -0.01     60.86   
   272. D(H  37,C  35,C  31,C  28)    -60.42 -0.000001   -0.01    -60.43   
   273. D(H  36,C  35,C  31,H  33)     58.48  0.000007   -0.02     58.46   
   274. D(H  36,C  35,C  31,H  32)    -59.11  0.000004   -0.02    -59.12   
   275. D(H  36,C  35,C  31,C  28)    179.60  0.000005   -0.02    179.59   
   276. D(H  42,C  39,C  20,H  22)    -61.25 -0.000004    0.02    -61.23   
   277. D(H  42,C  39,C  20,H  21)   -178.84 -0.000007    0.02   -178.82   
   278. D(H  42,C  39,C  20,C  17)     59.94 -0.000001    0.02     59.96   
   279. D(H  41,C  39,C  20,H  22)    178.83 -0.000004    0.02    178.85   
   280. D(H  41,C  39,C  20,H  21)     61.24 -0.000008    0.02     61.26   
   281. D(H  41,C  39,C  20,C  17)    -59.98 -0.000002    0.02    -59.96   
   282. D(H  40,C  39,C  20,H  22)     58.78 -0.000003    0.02     58.80   
   283. D(H  40,C  39,C  20,H  21)    -58.81 -0.000007    0.02    -58.79   
   284. D(H  40,C  39,C  20,C  17)    179.97 -0.000001    0.02    179.99   
    ----------------------------------------------------------------------------
                 *******************************************************
                 *** FINAL ENERGY EVALUATION AT THE STATIONARY POINT ***
                 ***               (AFTER    1 CYCLES)               ***
                 *******************************************************
      -----------------------------------------------------------      
     |                   =====================                   |     
     |                           x T B                           |     
     |                   =====================                   |     
     |                         S. Grimme                         |     
     |          Mulliken Center for Theoretical Chemistry        |     
     |                    University of Bonn                     |     
      -----------------------------------------------------------      

   * xtb version 6.3.0 (49875a8) compiled by 'schneider@apollo14' on 2020-05-23

   xtb is free software: you can redistribute it and/or modify it under
   the terms of the GNU Lesser General Public License as published by
   the Free Software Foundation, either version 3 of the License, or
   (at your option) any later version.
   
   xtb is distributed in the hope that it will be useful,
   but WITHOUT ANY WARRANTY; without even the implied warranty of
   MERCHANTABILITY or FITNESS FOR A PARTICULAR PURPOSE.  See the
   GNU Lesser General Public License for more details.
   
   Cite this work as:
   * S. Grimme, C. Bannwarth, P. Shushkov, J. Chem. Theory Comput., 2017,
     13, 1989-2009. DOI: 10.1021/acs.jctc.7b00118
   * C. Bannwarth, S. Ehlert and S. Grimme., J. Chem. Theory Comput., 2019,
     15, 1652-1671. DOI: 10.1021/acs.jctc.8b01176
   * P. Pracht, E. Caldeweyher, S. Ehlert, S. Grimme, ChemRxiv, 2019, preprint.
     DOI: 10.26434/chemrxiv.8326202.v1
   
   for GFN-FF:
   * S. Spicher and S. Grimme, Angew. Chem. Int. Ed., 2020,
     DOI: 10.1002/anie.202004239
   
   for DFT-D4:
   * E. Caldeweyher, C. Bannwarth and S. Grimme, J. Chem. Phys., 2017,
     147, 034112. DOI: 10.1063/1.4993215
   * E. Caldeweyher, S. Ehlert, A. Hansen, H. Neugebauer, S. Spicher,
     C. Bannwarth and S. Grimme, J. Chem. Phys., 2019, 150, 154122.
     DOI: 10.1063/1.5090222
   
   for sTDA-xTB:
   * S. Grimme and C. Bannwarth, J. Chem. Phys., 2016, 145, 054103.
     DOI: 10.1063/1.4959605
   
   in the mass-spec context:
   * V. Asgeirsson, C. Bauer and S. Grimme, Chem. Sci., 2017, 8, 4879.
     DOI: 10.1039/c7sc00601b
   * J. Koopman and S. Grimme, ACS Omega 2019, 4, 12, 15120-15133.
     DOI: 10.1021/acsomega.9b02011
   
   for metadynamics refer to:
   * S. Grimme, J. Chem. Theory Comput., 2019, 155, 2847-2862
     DOI: 10.1021/acs.jctc.9b00143
   
   with help from (in alphabetical order)
   C. Bannwarth, F. Bohle, G. Brandenburg, E. Caldeweyher, M. Checinski,
   S. Dohm, S. Ehlert, S. Ehrlich, F. März, H. Neugebauer, J. Pisarek,
   P. Pracht, P. Shushkov, and S. Spicher.
   
 * started run on 2020/06/19 at 18:38:01.744     

           -------------------------------------------------
          |                Calculation Setup                |
           -------------------------------------------------

          program call               : /opt/orca/otool_xtb opt+freq_XTB.xyz --grad -c 0 -u 0 -P 12 --namespace opt+freq --gbsa CH2Cl2
          calculation namespace      : opt+freq
          coordinate file            : opt+freq_XTB.xyz
          number of atoms            :                    43
          number of electrons        :                    96
          charge                     :                     0
          spin                       :                   0.0
          first test random number   :      0.84142659786220

   ID    Z sym.   atoms
    1    6 C      1-6, 11, 16, 18, 21, 26, 29, 32, 36, 40
    2    1 H      7-9, 12-15, 17, 19, 20, 22-25, 27, 28, 30, 31, 33, 34,
                  37-39, 41-43
    3    7 N      10, 35

molecular fragmentation (1/2 indicates fragments):
1111111111111221111111111222222222222221111
# atoms in fragment 1/2:    27    16
 fragment masses (1/2) :      161.24       73.14
CMA distance (Bohr)    :   9.826
constraining FC (au)   :  0.0500
########################################################################
[WARNING] Please study the warnings concerning your input carefully
-1- prog_main_parseArguments: Process number higher than OMP_NUM_THREADS, I hope you know what you are doing.
########################################################################
 Solvent             : CH2Cl2
 Using internal parameter file: .param_gbsa2_CH2Cl2
 Gsolv ref. state (COSMO-RS): gsolv [1 M gas/solution]
 temperature (mdtemp)       :    298.14999999999998     
 dielectric constant        :    8.9299999999999997     
 rho                        :    1.3300000000000003     
 mass                       :    84.930000000000007     
 surface tension            :    15.568945408385856     
 probe radius               :   0.71987590000000001     
 Gshift (Eh)                :    4.4408291734517593E-003
 c1                         :    1.4917377599999999     
 soset                      :    0.0000000000000000     
 HB correction              :  F

           -------------------------------------------------
          |                 G F N 2 - x T B                 |
           -------------------------------------------------

        Reference                      10.1021/acs.jctc.8b01176
      * Hamiltonian:
        H0-scaling (s, p, d)           1.850000    2.230000    2.230000
        zeta-weighting                 0.500000
      * Dispersion:
        s8                             2.700000
        a1                             0.520000
        a2                             5.000000
        s9                             5.000000
      * Repulsion:
        kExp                           1.500000    1.000000
        rExp                           1.000000
      * Coulomb:
        alpha                          2.000000
[...]
    121      -0.000044  -0.000007   0.000043
    122       0.000024   0.000028  -0.000033
    123      -0.000039  -0.000006   0.000082
    124       0.000193  -0.000097   0.000174
    125      -0.000013  -0.000018  -0.000055
    126      -0.000139  -0.000003  -0.000038
    127      -0.000206   0.000077  -0.000133
    128      -0.000245   0.000137  -0.000143


-----------
IR SPECTRUM  
-----------

 Mode    freq (cm**-1)   T**2         TX         TY         TZ
-------------------------------------------------------------------
   6:         2.88    0.000000  (  0.000000   0.000000   0.000000)
   7:        28.77    0.000000  (  0.000000   0.000000   0.000000)
   8:        31.83    0.000000  (  0.000000   0.000000   0.000000)
   9:        38.17    0.000000  (  0.000000   0.000000   0.000000)
  10:        45.57    0.000000  (  0.000000   0.000000   0.000000)
  11:        55.45    0.000000  (  0.000000   0.000000   0.000000)
  12:        63.48    0.000000  (  0.000000   0.000000   0.000000)
  13:        69.10    0.000000  (  0.000000   0.000000   0.000000)
  14:        85.22    0.000000  (  0.000000   0.000000   0.000000)
  15:        96.75    0.000000  (  0.000000   0.000000   0.000000)
  16:       117.51    0.000000  (  0.000000   0.000000   0.000000)
  17:       132.01    0.000000  (  0.000000   0.000000   0.000000)
  18:       137.64    0.000000  (  0.000000   0.000000   0.000000)
  19:       151.29    0.000000  (  0.000000   0.000000   0.000000)
  20:       195.21    0.000000  (  0.000000   0.000000   0.000000)
  21:       205.45    0.000000  (  0.000000   0.000000   0.000000)
  22:       233.52    0.000000  (  0.000000   0.000000   0.000000)
  23:       240.91    0.000000  (  0.000000   0.000000   0.000000)
  24:       264.67    0.000000  (  0.000000   0.000000   0.000000)
  25:       284.60    0.000000  (  0.000000   0.000000   0.000000)
  26:       368.81    0.000000  (  0.000000   0.000000   0.000000)
  27:       377.55    0.000000  (  0.000000   0.000000   0.000000)
  28:       389.09    0.000000  (  0.000000   0.000000   0.000000)
  29:       393.74    0.000000  (  0.000000   0.000000   0.000000)
  30:       428.30    0.000000  (  0.000000   0.000000   0.000000)
  31:       442.74    0.000000  (  0.000000   0.000000   0.000000)
  32:       461.88    0.000000  (  0.000000   0.000000   0.000000)
  33:       504.39    0.000000  (  0.000000   0.000000   0.000000)
  34:       588.33    0.000000  (  0.000000   0.000000   0.000000)
  35:       625.21    0.000000  (  0.000000   0.000000   0.000000)
  36:       661.39    0.000000  (  0.000000   0.000000   0.000000)
  37:       752.75    0.000000  (  0.000000   0.000000   0.000000)
  38:       773.31    0.000000  (  0.000000   0.000000   0.000000)
  39:       777.31    0.000000  (  0.000000   0.000000   0.000000)
  40:       824.49    0.000000  (  0.000000   0.000000   0.000000)
  41:       833.39    0.000000  (  0.000000   0.000000   0.000000)
  42:       862.79    0.000000  (  0.000000   0.000000   0.000000)
  43:       876.87    0.000000  (  0.000000   0.000000   0.000000)
  44:       907.52    0.000000  (  0.000000   0.000000   0.000000)
  45:       924.35    0.000000  (  0.000000   0.000000   0.000000)
  46:       927.50    0.000000  (  0.000000   0.000000   0.000000)
  47:       930.45    0.000000  (  0.000000   0.000000   0.000000)
  48:       935.71    0.000000  (  0.000000   0.000000   0.000000)
  49:       940.83    0.000000  (  0.000000   0.000000   0.000000)
  50:       946.19    0.000000  (  0.000000   0.000000   0.000000)
  51:       954.01    0.000000  (  0.000000   0.000000   0.000000)
  52:       985.14    0.000000  (  0.000000   0.000000   0.000000)
  53:       989.71    0.000000  (  0.000000   0.000000   0.000000)
  54:      1023.53    0.000000  (  0.000000   0.000000   0.000000)
  55:      1047.80    0.000000  (  0.000000   0.000000   0.000000)
  56:      1055.35    0.000000  (  0.000000   0.000000   0.000000)
  57:      1075.53    0.000000  (  0.000000   0.000000   0.000000)
  58:      1081.79    0.000000  (  0.000000   0.000000   0.000000)
  59:      1091.26    0.000000  (  0.000000   0.000000   0.000000)
  60:      1100.50    0.000000  (  0.000000   0.000000   0.000000)
  61:      1115.74    0.000000  (  0.000000   0.000000   0.000000)
  62:      1124.35    0.000000  (  0.000000   0.000000   0.000000)
  63:      1126.78    0.000000  (  0.000000   0.000000   0.000000)
  64:      1141.63    0.000000  (  0.000000   0.000000   0.000000)
  65:      1161.20    0.000000  (  0.000000   0.000000   0.000000)
  66:      1181.29    0.000000  (  0.000000   0.000000   0.000000)
  67:      1193.11    0.000000  (  0.000000   0.000000   0.000000)
  68:      1210.19    0.000000  (  0.000000   0.000000   0.000000)
  69:      1213.97    0.000000  (  0.000000   0.000000   0.000000)
  70:      1239.88    0.000000  (  0.000000   0.000000   0.000000)
  71:      1252.55    0.000000  (  0.000000   0.000000   0.000000)
  72:      1263.01    0.000000  (  0.000000   0.000000   0.000000)
  73:      1268.28    0.000000  (  0.000000   0.000000   0.000000)
  74:      1271.29    0.000000  (  0.000000   0.000000   0.000000)
  75:      1274.95    0.000000  (  0.000000   0.000000   0.000000)
  76:      1279.91    0.000000  (  0.000000   0.000000   0.000000)
  77:      1280.49    0.000000  (  0.000000   0.000000   0.000000)
  78:      1321.30    0.000000  (  0.000000   0.000000   0.000000)
  79:      1322.43    0.000000  (  0.000000   0.000000   0.000000)
  80:      1329.12    0.000000  (  0.000000   0.000000   0.000000)
  81:      1334.70    0.000000  (  0.000000   0.000000   0.000000)
  82:      1360.87    0.000000  (  0.000000   0.000000   0.000000)
  83:      1366.30    0.000000  (  0.000000   0.000000   0.000000)
  84:      1369.52    0.000000  (  0.000000   0.000000   0.000000)
  85:      1413.35    0.000000  (  0.000000   0.000000   0.000000)
  86:      1415.87    0.000000  (  0.000000   0.000000   0.000000)
  87:      1434.42    0.000000  (  0.000000   0.000000   0.000000)
  88:      1469.01    0.000000  (  0.000000   0.000000   0.000000)
  89:      1472.24    0.000000  (  0.000000   0.000000   0.000000)
  90:      1486.92    0.000000  (  0.000000   0.000000   0.000000)
  91:      1489.20    0.000000  (  0.000000   0.000000   0.000000)
  92:      1495.82    0.000000  (  0.000000   0.000000   0.000000)
  93:      1497.93    0.000000  (  0.000000   0.000000   0.000000)
  94:      1498.98    0.000000  (  0.000000   0.000000   0.000000)
  95:      1500.56    0.000000  (  0.000000   0.000000   0.000000)
  96:      1502.54    0.000000  (  0.000000   0.000000   0.000000)
  97:      1504.20    0.000000  (  0.000000   0.000000   0.000000)
  98:      1506.12    0.000000  (  0.000000   0.000000   0.000000)
  99:      1572.60    0.000000  (  0.000000   0.000000   0.000000)
 100:      1577.43    0.000000  (  0.000000   0.000000   0.000000)
 101:      1590.42    0.000000  (  0.000000   0.000000   0.000000)
 102:      1699.29    0.000000  (  0.000000   0.000000   0.000000)
 103:      2798.09    0.000000  (  0.000000   0.000000   0.000000)
 104:      2821.70    0.000000  (  0.000000   0.000000   0.000000)
 105:      2920.94    0.000000  (  0.000000   0.000000   0.000000)
 106:      2932.31    0.000000  (  0.000000   0.000000   0.000000)
 107:      2945.47    0.000000  (  0.000000   0.000000   0.000000)
 108:      2953.57    0.000000  (  0.000000   0.000000   0.000000)
 109:      2957.02    0.000000  (  0.000000   0.000000   0.000000)
 110:      2963.54    0.000000  (  0.000000   0.000000   0.000000)
 111:      2969.86    0.000000  (  0.000000   0.000000   0.000000)
 112:      2970.52    0.000000  (  0.000000   0.000000   0.000000)
 113:      2976.44    0.000000  (  0.000000   0.000000   0.000000)
 114:      2979.38    0.000000  (  0.000000   0.000000   0.000000)
 115:      2991.61    0.000000  (  0.000000   0.000000   0.000000)
 116:      3024.11    0.000000  (  0.000000   0.000000   0.000000)
 117:      3026.72    0.000000  (  0.000000   0.000000   0.000000)
 118:      3027.63    0.000000  (  0.000000   0.000000   0.000000)
 119:      3030.14    0.000000  (  0.000000   0.000000   0.000000)
 120:      3034.37    0.000000  (  0.000000   0.000000   0.000000)
 121:      3036.95    0.000000  (  0.000000   0.000000   0.000000)
 122:      3062.51    0.000000  (  0.000000   0.000000   0.000000)
 123:      3074.43    0.000000  (  0.000000   0.000000   0.000000)
 124:      3080.95    0.000000  (  0.000000   0.000000   0.000000)
 125:      3090.65    0.000000  (  0.000000   0.000000   0.000000)
 126:      3117.95    0.000000  (  0.000000   0.000000   0.000000)
 127:      3316.56    0.000000  (  0.000000   0.000000   0.000000)
 128:      3389.63    0.000000  (  0.000000   0.000000   0.000000)

The first frequency considered to be a vibration is 6
The total number of vibrations considered is 123


--------------------------
THERMOCHEMISTRY AT 298.15K
--------------------------

Temperature         ... 298.15 K
Pressure            ... 1.00 atm
Total Mass          ... 234.39 AMU

Throughout the following assumptions are being made:
  (1) The electronic state is orbitally nondegenerate
  (2) There are no thermally accessible electronically excited states
  (3) Hindered rotations indicated by low frequency modes are not
      treated as such but are treated as vibrations and this may
      cause some error
  (4) All equations used are the standard statistical mechanics
      equations for an ideal gas
  (5) All vibrations are strictly harmonic

freq.       2.88  E(vib)   ...       0.59 
freq.      28.77  E(vib)   ...       0.55 
freq.      31.83  E(vib)   ...       0.55 
freq.      38.17  E(vib)   ...       0.54 
freq.      45.57  E(vib)   ...       0.53 
freq.      55.45  E(vib)   ...       0.52 
freq.      63.48  E(vib)   ...       0.51 
freq.      69.10  E(vib)   ...       0.50 
freq.      85.22  E(vib)   ...       0.48 
freq.      96.75  E(vib)   ...       0.46 
freq.     117.51  E(vib)   ...       0.44 
freq.     132.01  E(vib)   ...       0.42 
freq.     137.64  E(vib)   ...       0.42 
freq.     151.29  E(vib)   ...       0.40 
freq.     195.21  E(vib)   ...       0.36 
freq.     205.45  E(vib)   ...       0.35 
freq.     233.52  E(vib)   ...       0.32 
freq.     240.91  E(vib)   ...       0.31 
freq.     264.67  E(vib)   ...       0.29 
freq.     284.60  E(vib)   ...       0.28 
freq.     368.81  E(vib)   ...       0.21 
freq.     377.55  E(vib)   ...       0.21 
freq.     389.09  E(vib)   ...       0.20 
freq.     393.74  E(vib)   ...       0.20 
freq.     428.30  E(vib)   ...       0.18 
freq.     442.74  E(vib)   ...       0.17 
freq.     461.88  E(vib)   ...       0.16 
freq.     504.39  E(vib)   ...       0.14 
freq.     588.33  E(vib)   ...       0.10 
freq.     625.21  E(vib)   ...       0.09 
freq.     661.39  E(vib)   ...       0.08 
freq.     752.75  E(vib)   ...       0.06 
freq.     773.31  E(vib)   ...       0.05 
freq.     777.31  E(vib)   ...       0.05 
freq.     824.49  E(vib)   ...       0.04 
freq.     833.39  E(vib)   ...       0.04 
freq.     862.79  E(vib)   ...       0.04 
freq.     876.87  E(vib)   ...       0.04 
freq.     907.52  E(vib)   ...       0.03 
freq.     924.35  E(vib)   ...       0.03 
freq.     927.50  E(vib)   ...       0.03 
freq.     930.45  E(vib)   ...       0.03 
freq.     935.71  E(vib)   ...       0.03 
freq.     940.83  E(vib)   ...       0.03 
freq.     946.19  E(vib)   ...       0.03 
freq.     954.01  E(vib)   ...       0.03 
freq.     985.14  E(vib)   ...       0.02 
freq.     989.71  E(vib)   ...       0.02 
freq.    1023.53  E(vib)   ...       0.02 
freq.    1047.80  E(vib)   ...       0.02 
freq.    1055.35  E(vib)   ...       0.02 
freq.    1075.53  E(vib)   ...       0.02 
freq.    1081.79  E(vib)   ...       0.02 
freq.    1091.26  E(vib)   ...       0.02 
freq.    1100.50  E(vib)   ...       0.02 
freq.    1115.74  E(vib)   ...       0.01 
freq.    1124.35  E(vib)   ...       0.01 
freq.    1126.78  E(vib)   ...       0.01 
freq.    1141.63  E(vib)   ...       0.01 
freq.    1161.20  E(vib)   ...       0.01 
freq.    1181.29  E(vib)   ...       0.01 
freq.    1193.11  E(vib)   ...       0.01 
freq.    1210.19  E(vib)   ...       0.01 
freq.    1213.97  E(vib)   ...       0.01 
freq.    1239.88  E(vib)   ...       0.01 
freq.    1252.55  E(vib)   ...       0.01 
freq.    1263.01  E(vib)   ...       0.01 
freq.    1268.28  E(vib)   ...       0.01 
freq.    1271.29  E(vib)   ...       0.01 
freq.    1274.95  E(vib)   ...       0.01 
freq.    1279.91  E(vib)   ...       0.01 
freq.    1280.49  E(vib)   ...       0.01 
freq.    1321.30  E(vib)   ...       0.01 
freq.    1322.43  E(vib)   ...       0.01 
freq.    1329.12  E(vib)   ...       0.01 
freq.    1334.70  E(vib)   ...       0.01 
freq.    1360.87  E(vib)   ...       0.01 
freq.    1366.30  E(vib)   ...       0.01 
freq.    1369.52  E(vib)   ...       0.01 
freq.    1413.35  E(vib)   ...       0.00 
freq.    1415.87  E(vib)   ...       0.00 
freq.    1434.42  E(vib)   ...       0.00 
freq.    1469.01  E(vib)   ...       0.00 
freq.    1472.24  E(vib)   ...       0.00 
freq.    1486.92  E(vib)   ...       0.00 
freq.    1489.20  E(vib)   ...       0.00 
freq.    1495.82  E(vib)   ...       0.00 
freq.    1497.93  E(vib)   ...       0.00 
freq.    1498.98  E(vib)   ...       0.00 
freq.    1500.56  E(vib)   ...       0.00 
freq.    1502.54  E(vib)   ...       0.00 
freq.    1504.20  E(vib)   ...       0.00 
freq.    1506.12  E(vib)   ...       0.00 
freq.    1572.60  E(vib)   ...       0.00 
freq.    1577.43  E(vib)   ...       0.00 
freq.    1590.42  E(vib)   ...       0.00 
freq.    1699.29  E(vib)   ...       0.00 
freq.    2798.09  E(vib)   ...       0.00 
freq.    2821.70  E(vib)   ...       0.00 
freq.    2920.94  E(vib)   ...       0.00 
freq.    2932.31  E(vib)   ...       0.00 
freq.    2945.47  E(vib)   ...       0.00 
freq.    2953.57  E(vib)   ...       0.00 
freq.    2957.02  E(vib)   ...       0.00 
freq.    2963.54  E(vib)   ...       0.00 
freq.    2969.86  E(vib)   ...       0.00 
freq.    2970.52  E(vib)   ...       0.00 
freq.    2976.44  E(vib)   ...       0.00 
freq.    2979.38  E(vib)   ...       0.00 
freq.    2991.61  E(vib)   ...       0.00 
freq.    3024.11  E(vib)   ...       0.00 
freq.    3026.72  E(vib)   ...       0.00 
freq.    3027.63  E(vib)   ...       0.00 
freq.    3030.14  E(vib)   ...       0.00 
freq.    3034.37  E(vib)   ...       0.00 
freq.    3036.95  E(vib)   ...       0.00 
freq.    3062.51  E(vib)   ...       0.00 
freq.    3074.43  E(vib)   ...       0.00 
freq.    3080.95  E(vib)   ...       0.00 
freq.    3090.65  E(vib)   ...       0.00 
freq.    3117.95  E(vib)   ...       0.00 
freq.    3316.56  E(vib)   ...       0.00 
freq.    3389.63  E(vib)   ...       0.00 

------------
INNER ENERGY
------------

The inner energy is: U= E(el) + E(ZPE) + E(vib) + E(rot) + E(trans)
    E(el)   - is the total energy from the electronic structure calculation
              = E(kin-el) + E(nuc-el) + E(el-el) + E(nuc-nuc)
    E(ZPE)  - the the zero temperature vibrational energy from the frequency calculation
    E(vib)  - the the finite temperature correction to E(ZPE) due to population
              of excited vibrational states
    E(rot)  - is the rotational thermal energy
    E(trans)- is the translational thermal energy

Summary of contributions to the inner energy U:
Electronic energy                ...    -51.21363482 Eh
Zero point energy                ...      0.37809002 Eh     237.25 kcal/mol
Thermal vibrational correction   ...      0.01844177 Eh      11.57 kcal/mol
Thermal rotational correction    ...      0.00141627 Eh       0.89 kcal/mol
Thermal translational correction ...      0.00141627 Eh       0.89 kcal/mol
-----------------------------------------------------------------------
Total thermal energy                    -50.81427050 Eh


Summary of corrections to the electronic energy:
(perhaps to be used in another calculation)
Total thermal correction                  0.02127431 Eh      13.35 kcal/mol
Non-thermal (ZPE) correction              0.37809002 Eh     237.25 kcal/mol
-----------------------------------------------------------------------
Total correction                          0.39936432 Eh     250.60 kcal/mol


--------
ENTHALPY
--------

The enthalpy is H = U + kB*T
                kB is Boltzmann's constant
Total free energy                 ...    -50.81427050 Eh 
Thermal Enthalpy correction       ...      0.00094421 Eh       0.59 kcal/mol
-----------------------------------------------------------------------
Total Enthalpy                    ...    -50.81332629 Eh


Note: Only C1 symmetry has been detected, increase convergence thresholds 
      if your molecule has a higher symmetry. Symmetry factor of 1.0 is   
      used for the rotational entropy correction. 
 

Note: Rotational entropy computed according to Herzberg 
Infrared and Raman Spectra, Chapter V,1, Van Nostrand Reinhold, 1945 
Point Group:  C1, Symmetry Number:   1  
Rotational constants in cm-1:     0.019964     0.006256     0.005008 

Vibrational entropy computed according to the QRRHO of S. Grimme
Chem.Eur.J. 2012 18 9955


-------
ENTROPY
-------

The entropy contributions are T*S = T*(S(el)+S(vib)+S(rot)+S(trans))
     S(el)   - electronic entropy
     S(vib)  - vibrational entropy
     S(rot)  - rotational entropy
     S(trans)- translational entropy
The entropies will be listed as mutliplied by the temperature to get
units of energy

Electronic entropy                ...      0.00000000 Eh      0.00 kcal/mol
Vibrational entropy               ...      0.03504756 Eh     21.99 kcal/mol
Rotational entropy                ...      0.01625451 Eh     10.20 kcal/mol
Translational entropy             ...      0.02007763 Eh     12.60 kcal/mol
-----------------------------------------------------------------------
Final entropy term                ...      0.07137970 Eh     44.79 kcal/mol

In case the symmetry of your molecule has not been determined correctly
or in case you have a reason to use a different symmetry number we print 
out the resulting rotational entropy values for sn=1,12 :
 --------------------------------------------------------
|  sn= 1 | S(rot)=       0.01625451 Eh     10.20 kcal/mol|
|  sn= 2 | S(rot)=       0.01560006 Eh      9.79 kcal/mol|
|  sn= 3 | S(rot)=       0.01521723 Eh      9.55 kcal/mol|
|  sn= 4 | S(rot)=       0.01494560 Eh      9.38 kcal/mol|
|  sn= 5 | S(rot)=       0.01473491 Eh      9.25 kcal/mol|
|  sn= 6 | S(rot)=       0.01456277 Eh      9.14 kcal/mol|
|  sn= 7 | S(rot)=       0.01441722 Eh      9.05 kcal/mol|
|  sn= 8 | S(rot)=       0.01429115 Eh      8.97 kcal/mol|
|  sn= 9 | S(rot)=       0.01417994 Eh      8.90 kcal/mol|
|  sn=10 | S(rot)=       0.01408046 Eh      8.84 kcal/mol|
|  sn=11 | S(rot)=       0.01399047 Eh      8.78 kcal/mol|
|  sn=12 | S(rot)=       0.01390831 Eh      8.73 kcal/mol|
 --------------------------------------------------------


-------------------
GIBBS FREE ENERGY
-------------------

The Gibbs free energy is G = H - T*S

Total enthalpy                    ...    -50.81332629 Eh 
Total entropy correction          ...     -0.07137970 Eh    -44.79 kcal/mol
-----------------------------------------------------------------------
Final Gibbs free energy         ...    -50.88470598 Eh

For completeness - the Gibbs free energy minus the electronic energy
G-E(el)                           ...      0.32892884 Eh    206.41 kcal/mol


Total Time for Numerical Frequencies  :       122.386 sec

Timings for individual modules:

Sum of individual times         ...        1.059 sec (=   0.018 min)
Geometry relaxation             ...        0.565 sec (=   0.009 min)  53.3 %
XTB module                      ...        0.494 sec (=   0.008 min)  46.7 %
                             ****ORCA TERMINATED NORMALLY****
TOTAL RUN TIME: 0 days 0 hours 2 minutes 4 seconds 600 msec
