
                                 *****************
                                 * O   R   C   A *
                                 *****************

           --- An Ab Initio, DFT and Semiempirical electronic structure package ---

                  #######################################################
                  #                        -***-                        #
                  #          Department of theory and spectroscopy      #
                  #               Directorship: Frank Neese             #
                  #        Max Planck Institute fuer Kohlenforschung    #
                  #                Kaiser Wilhelm Platz 1               #
                  #                 D-45470 Muelheim/Ruhr               #
                  #                      Germany                        #
                  #                                                     #
                  #                  All rights reserved                #
                  #                        -***-                        #
                  #######################################################


                         Program Version 4.2.1 -  RELEASE  -


 With contributions from (in alphabetic order):
   Daniel Aravena         : Magnetic Suceptibility
   Michael Atanasov       : Ab Initio Ligand Field Theory (pilot matlab implementation)
   Alexander A. Auer      : GIAO ZORA, VPT2
   Ute Becker             : Parallelization
   Giovanni Bistoni       : ED, misc. LED, open-shell LED, HFLD
   Martin Brehm           : Molecular dynamics
   Dmytro Bykov           : SCF Hessian
   Vijay G. Chilkuri      : MRCI spin determinant printing, contributions to CSF-ICE
   Dipayan Datta          : RHF DLPNO-CCSD density
   Achintya Kumar Dutta   : EOM-CC, STEOM-CC
   Dmitry Ganyushin       : Spin-Orbit,Spin-Spin,Magnetic field MRCI
   Miquel Garcia          : C-PCM Hessian, Gaussian charge scheme
   Yang Guo               : DLPNO-NEVPT2, CIM, IAO-localization
   Andreas Hansen         : Spin unrestricted coupled pair/coupled cluster methods
   Benjamin Helmich-Paris : CASSCF linear response (MC-RPA)
   Lee Huntington         : MR-EOM, pCC
   Robert Izsak           : Overlap fitted RIJCOSX, COSX-SCS-MP3, EOM
   Christian Kollmar      : KDIIS, OOCD, Brueckner-CCSD(T), CCSD density
   Simone Kossmann        : Meta GGA functionals, TD-DFT gradient, OOMP2, MP2 Hessian
   Martin Krupicka        : AUTO-CI
   Lucas Lang             : DCDCAS
   Dagmar Lenk            : GEPOL surface, SMD
   Dimitrios Liakos       : Extrapolation schemes; Compound Job, initial MDCI parallelization
   Dimitrios Manganas     : Further ROCIS development; embedding schemes
   Dimitrios Pantazis     : SARC Basis sets
   Taras Petrenko         : DFT Hessian,TD-DFT gradient, ASA, ECA, R-Raman, ABS, FL, XAS/XES, NRVS
   Peter Pinski           : DLPNO-MP2, DLPNO-MP2 Gradient
   Christoph Reimann      : Effective Core Potentials
   Marius Retegan         : Local ZFS, SOC
   Christoph Riplinger    : Optimizer, TS searches, QM/MM, DLPNO-CCSD(T), (RO)-DLPNO pert. Triples
   Tobias Risthaus        : Range-separated hybrids, TD-DFT gradient, RPA, STAB
   Michael Roemelt        : Original ROCIS implementation
   Masaaki Saitow         : Open-shell DLPNO-CCSD energy and density
   Barbara Sandhoefer     : DKH picture change effects
   Avijit Sen             : IP-ROCIS
   Kantharuban Sivalingam : CASSCF convergence, NEVPT2, FIC-MRCI
   Bernardo de Souza      : ESD, SOC TD-DFT
   Georgi Stoychev        : AutoAux, RI-MP2 NMR
   Willem Van den Heuvel  : Paramagnetic NMR
   Boris Wezisla          : Elementary symmetry handling
   Frank Wennmohs         : Technical directorship


 We gratefully acknowledge several colleagues who have allowed us to
 interface, adapt or use parts of their codes:
   Stefan Grimme, W. Hujo, H. Kruse,             : VdW corrections, initial TS optimization,
                  C. Bannwarth                     DFT functionals, gCP, sTDA/sTD-DF
   Ed Valeev, F. Pavosevic, A. Kumar             : LibInt (2-el integral package), F12 methods
   Garnet Chan, S. Sharma, J. Yang, R. Olivares  : DMRG
   Ulf Ekstrom                                   : XCFun DFT Library
   Mihaly Kallay                                 : mrcc  (arbitrary order and MRCC methods)
   Andreas Klamt, Michael Diedenhofen            : otool_cosmo (COSMO solvation model)
   Jiri Pittner, Ondrej Demel                    : Mk-CCSD
   Frank Weinhold                                : gennbo (NPA and NBO analysis)
   Christopher J. Cramer and Donald G. Truhlar   : smd solvation model
   Lars Goerigk                                  : TD-DFT with DH, B97 family of functionals
   V. Asgeirsson, H. Jonsson                     : NEB implementation
   FAccTs GmbH                                   : IRC, NEB, NEB-TS, Multilevel, MM, QM/MM, CI optimization
   S Lehtola, MJT Oliveira, MAL Marques          : LibXC Library


 Your calculation uses the libint2 library for the computation of 2-el integrals
 For citations please refer to: http://libint.valeyev.net

 Your ORCA version has been built with support for libXC version: 4.2.3
 For citations please refer to: https://tddft.org/programs/libxc/

 This ORCA versions uses:
   CBLAS   interface :  Fast vector & matrix operations
   LAPACKE interface :  Fast linear algebra routines
   SCALAPACK package :  Parallel linear algebra routines




***************************************
The coordinates will be read from file: init.xyz
***************************************


Your calculation utilizes the SMD solvation module
Please cite in your paper:
A.V. Marenich, C.J. Cramer, D.G. Truhlar J. Phys. Chem. B, 113, (2009), 6378 

Your calculation utilizes the semiempirical GFN2-xTB method
Please cite in your paper:
C. Bannwarth, Ehlert S., S. Grimme,  J. Chem. Theory Comput., 15, (2019), 1652.
   

----- Orbital basis set information -----
Your calculation utilizes the basis: def2-SVP
   F. Weigend and R. Ahlrichs, Phys. Chem. Chem. Phys. 7, 3297 (2005).

================================================================================
                                        WARNINGS
                       Please study these warnings very carefully!
================================================================================


WARNING: The environment variable RSH_COMMAND is not set!
  ===> : All Displacements for the Numerical Hessian calculation
         will be started on localhost

WARNING: Geometry Optimization
  ===> : Switching off AutoStart
         For restart on a previous wavefunction, please use MOREAD

WARNING: Found dipole moment calculation with XTB calculation
  ===> : Switching off dipole moment calculation


INFO   : the flag for use of LIBINT has been found!

================================================================================
                                       INPUT FILE
================================================================================
NAME = opt+freq.inp
|  1> ! XTB2 Opt NumFreq
|  2> 
|  3> %cpcm
|  4>  smd true
|  5>  smdsolvent "ch2cl2"
|  6> end
|  7> 
|  8> %pal
|  9>  nprocs 12
| 10> end
| 11> 
| 12> *xyzfile 0 1 init.xyz
| 13> 
| 14>                          ****END OF INPUT****
================================================================================

                       *****************************
                       * Geometry Optimization Run *
                       *****************************

Geometry optimization settings:
Update method            Update   .... BFGS
Choice of coordinates    CoordSys .... Z-matrix Internals
Initial Hessian          InHess   .... Almoef's Model

Convergence Tolerances:
Energy Change            TolE     ....  5.0000e-06 Eh
Max. Gradient            TolMAXG  ....  3.0000e-04 Eh/bohr
RMS Gradient             TolRMSG  ....  1.0000e-04 Eh/bohr
Max. Displacement        TolMAXD  ....  4.0000e-03 bohr
RMS Displacement         TolRMSD  ....  2.0000e-03 bohr
Strict Convergence                ....  False
------------------------------------------------------------------------------
                        ORCA OPTIMIZATION COORDINATE SETUP
------------------------------------------------------------------------------

The optimization will be done in new redundant internal coordinates
Making redundant internal coordinates   ...  (new redundants) done
Evaluating the initial hessian          ...  (Almloef) done
Evaluating the coordinates              ...  done
Calculating the B-matrix                .... done
Calculating the G-matrix                .... done
Diagonalizing the G-matrix              .... done
Small eigenvalue found = 7.138e-03
Small eigenvalue found = 8.705e-03
Small eigenvalue found = 1.622e-02
Small eigenvalue found = 1.992e-02
The first mode is                       ....  171
The number of degrees of freedom        ....  132

    -----------------------------------------------------------------
                    Redundant Internal Coordinates


    -----------------------------------------------------------------
         Definition                    Initial Value    Approx d2E/dq
    -----------------------------------------------------------------
      1. B(C   1,C   0)                  1.3823         0.642809   
      2. B(C   2,C   1)                  1.3959         0.611489   
      3. B(C   3,C   2)                  1.3957         0.611797   
      4. B(C   4,C   3)                  1.3809         0.646152   
      5. B(C   5,C   0)                  1.3858         0.634570   
      6. B(C   5,C   4)                  1.3872         0.631290   
      7. B(H   6,C   1)                  1.0811         0.372126   
      8. B(H   7,C   3)                  1.0776         0.376943   
      9. B(H   8,C   5)                  1.0801         0.373498   
     10. B(C  11,N   9)                  1.4335         0.476980   
     11. B(H  12,C  11)                  1.0949         0.353656   
     12. B(H  13,C  11)                  1.1032         0.343080   
     13. B(H  14,H  10)                  2.3153         0.000765   
     14. B(H  14,H   7)                  2.3237         0.000742   
     15. B(H  14,N   9)                  2.0158         0.010754   
     16. B(N  15,H  14)                  1.0208         0.415827   
     17. B(N  15,H  10)                  1.7855         0.025059   
     18. B(C  17,N  15)                  1.4610         0.431068   
     19. B(H  18,C  17)                  1.1017         0.344939   
     20. B(H  18,H   7)                  2.5164         0.000365   
     21. B(H  19,C  17)                  1.0934         0.355627   
     22. B(C  20,N   9)                  1.2648         0.886287   
     23. B(C  20,C   2)                  1.4534         0.494977   
     24. B(H  21,C  20)                  1.1015         0.345153   
     25. B(O  22,H  16)                  0.9602         0.519525   
     26. B(O  22,H  10)                  0.9860         0.472528   
     27. B(H  23,N  15)                  1.0160         0.423266   
     28. B(C  24,C  11)                  1.5317         0.371208   
     29. B(H  25,C  24)                  1.0900         0.360072   
     30. B(H  25,H  14)                  2.3729         0.000619   
     31. B(H  26,C  24)                  1.0932         0.355890   
     32. B(C  27,C  17)                  1.5277         0.376794   
     33. B(H  28,C  27)                  1.0934         0.355678   
     34. B(H  29,C  27)                  1.0915         0.358102   
     35. B(C  30,C  27)                  1.5268         0.377934   
     36. B(H  31,C  30)                  1.0931         0.356050   
     37. B(H  32,C  30)                  1.0923         0.357038   
     38. B(C  33,C  24)                  1.5262         0.378873   
     39. B(H  34,C  33)                  1.0920         0.357455   
     40. B(H  35,C  33)                  1.0932         0.355933   
     41. B(H  36,C   4)                  1.0803         0.373158   
     42. B(H  37,C   0)                  1.0802         0.373252   
     43. B(C  38,C  30)                  1.5245         0.381141   
     44. B(H  39,C  38)                  1.0878         0.363029   
     45. B(H  40,C  38)                  1.0879         0.362838   
     46. B(H  41,C  38)                  1.0878         0.362991   
     47. B(C  42,C  33)                  1.5240         0.381875   
     48. B(H  43,C  42)                  1.0877         0.363141   
     49. B(H  44,C  42)                  1.0878         0.363034   
     50. B(H  45,C  42)                  1.0882         0.362440   
     51. A(C   5,C   0,H  37)          120.0690         0.356463   
     52. A(C   1,C   0,H  37)          119.8470         0.357245   
     53. A(C   1,C   0,C   5)          120.0839         0.438733   
     54. A(C   2,C   1,H   6)          119.4972         0.354048   
     55. A(C   0,C   1,C   2)          120.5187         0.435813   
     56. A(C   0,C   1,H   6)          119.9841         0.357061   
     57. A(C   1,C   2,C  20)          119.2740         0.415893   
     58. A(C   1,C   2,C   3)          118.8587         0.431953   
     59. A(C   3,C   2,C  20)          121.8672         0.415931   
     60. A(C   2,C   3,H   7)          118.6119         0.354851   
     61. A(C   4,C   3,H   7)          120.9041         0.358159   
     62. A(C   2,C   3,C   4)          120.4840         0.436260   
     63. A(C   3,C   4,C   5)          120.1557         0.438734   
     64. A(C   3,C   4,H  36)          119.9083         0.357545   
     65. A(C   5,C   4,H  36)          119.9360         0.356134   
     66. A(C   0,C   5,C   4)          119.8986         0.437305   
     67. A(C   4,C   5,H   8)          120.0713         0.356189   
     68. A(C   0,C   5,H   8)          120.0301         0.356503   
     69. A(C   3,H   7,H  14)          143.1273         0.129216   
     70. A(C   3,H   7,H  18)          140.6454         0.123262   
     71. A(H  14,H   7,H  18)           60.5857         0.095687   
     72. A(H  14,N   9,C  20)          139.6038         0.215696   
     73. A(C  11,N   9,H  14)          100.8329         0.199119   
     74. A(C  11,N   9,C  20)          119.5583         0.435794   
     75. A(H  14,H  10,O  22)          156.4306         0.131126   
     76. A(H  14,H  10,N  15)           24.7829         0.110670   
     77. A(H  12,C  11,C  24)          108.7173         0.323022   
     78. A(N   9,C  11,C  24)          110.6363         0.376153   
     79. A(N   9,C  11,H  13)          111.7211         0.332965   
     80. A(H  13,C  11,C  24)          109.8128         0.321419   
     81. A(H  12,C  11,H  13)          108.6387         0.287825   
     82. A(N   9,C  11,H  12)          107.2151         0.334648   
     83. A(H  10,H  14,N  15)           47.1525         0.129925   
     84. A(N   9,H  14,H  25)           74.9708         0.106057   
     85. A(H   7,H  14,H  25)          134.4155         0.096534   
     86. A(N  15,H  14,H  25)          104.2699         0.128010   
     87. A(N   9,H  14,H  10)          131.4977         0.106894   
     88. A(H   7,H  14,H  10)          154.8122         0.096904   
     89. A(H   7,H  14,N   9)           73.0218         0.106770   
     90. A(H   7,H  14,N  15)          108.2671         0.129640   
     91. A(H  10,H  14,H  25)           67.3250         0.096587   
     92. A(C  17,N  15,H  23)          109.8228         0.336136   
     93. A(H  14,N  15,H  23)          107.8990         0.300278   
     94. A(H  10,N  15,H  23)          112.2668         0.200876   
     95. A(H  10,N  15,C  17)          108.4059         0.219338   
     96. A(H  10,N  15,H  14)          108.0646         0.200428   
     97. A(H  14,N  15,C  17)          110.3695         0.335146   
     98. A(H  18,C  17,H  19)          107.5687         0.288319   
     99. A(H  19,C  17,C  27)          109.5769         0.324110   
    100. A(N  15,C  17,H  19)          107.2611         0.329387   
    101. A(H  18,C  17,C  27)          109.3421         0.322492   
    102. A(N  15,C  17,C  27)          110.3800         0.370600   
    103. A(N  15,C  17,H  18)          112.6214         0.327732   
    104. A(H   7,H  18,C  17)          111.6144         0.122581   
    105. A(N   9,C  20,H  21)          121.1665         0.370075   
    106. A(C   2,C  20,H  21)          115.0796         0.337399   
    107. A(C   2,C  20,N   9)          123.7520         0.441614   
    108. A(H  10,O  22,H  16)          105.5384         0.316805   
    109. A(H  26,C  24,C  33)          109.8245         0.324442   
    110. A(H  25,C  24,C  33)          109.2551         0.325066   
    111. A(C  11,C  24,C  33)          111.5715         0.363832   
    112. A(H  25,C  24,H  26)          108.2554         0.290299   
    113. A(C  11,C  24,H  26)          108.9591         0.323356   
    114. A(C  11,C  24,H  25)          108.9089         0.323976   
    115. A(H  14,H  25,C  24)          111.5444         0.127204   
    116. A(H  29,C  27,C  30)          109.6024         0.324641   
    117. A(H  28,C  27,C  30)          109.4303         0.324279   
    118. A(C  17,C  27,C  30)          112.1026         0.364608   
    119. A(H  28,C  27,H  29)          107.8698         0.290022   
    120. A(C  17,C  27,H  29)          108.6149         0.324479   
    121. A(C  17,C  27,H  28)          109.1236         0.324118   
    122. A(H  32,C  30,C  38)          109.4035         0.324933   
    123. A(H  31,C  30,C  38)          109.4585         0.324785   
    124. A(C  27,C  30,C  38)          111.7118         0.365324   
    125. A(H  31,C  30,H  32)          107.6593         0.289935   
    126. A(C  27,C  30,H  32)          109.1224         0.324482   
    127. A(C  27,C  30,H  31)          109.3958         0.324334   
    128. A(H  34,C  33,H  35)          107.8882         0.289973   
    129. A(C  24,C  33,H  35)          109.5738         0.324449   
    130. A(C  24,C  33,H  34)          109.0348         0.324676   
    131. A(H  35,C  33,C  42)          109.5834         0.324870   
    132. A(H  34,C  33,C  42)          109.2394         0.325098   
    133. A(C  24,C  33,C  42)          111.4474         0.365600   
    134. A(C  30,C  38,H  41)          110.4078         0.325817   
    135. A(H  39,C  38,H  40)          108.3730         0.291557   
    136. A(C  30,C  38,H  40)          110.6266         0.325795   
    137. A(C  30,C  38,H  39)          110.5604         0.325823   
    138. A(H  40,C  38,H  41)          108.3513         0.291552   
    139. A(H  39,C  38,H  41)          108.4466         0.291576   
    140. A(H  44,C  42,H  45)          108.4608         0.291507   
    141. A(H  43,C  42,H  45)          108.5135         0.291521   
    142. A(C  33,C  42,H  45)          110.6864         0.325839   
    143. A(H  43,C  42,H  44)          108.4295         0.291596   
    144. A(C  33,C  42,H  44)          110.4913         0.325927   
    145. A(C  33,C  42,H  43)          110.1922         0.325943   
    146. D(C   2,C   1,C   0,H  37)    179.9937         0.028726   
    147. D(H   6,C   1,C   0,C   5)   -179.9457         0.028726   
    148. D(H   6,C   1,C   0,H  37)     -0.0123         0.028726   
    149. D(C   2,C   1,C   0,C   5)      0.0603         0.028726   
    150. D(C  20,C   2,C   1,H   6)     -0.0007         0.025832   
    151. D(C  20,C   2,C   1,C   0)    179.9934         0.025832   
    152. D(C   3,C   2,C   1,C   0)      0.1100         0.025832   
    153. D(C   3,C   2,C   1,H   6)   -179.8840         0.025832   
    154. D(H   7,C   3,C   2,C  20)     -0.1407         0.025859   
    155. D(C   4,C   3,C   2,C   1)     -0.1888         0.025859   
    156. D(H   7,C   3,C   2,C   1)    179.7395         0.025859   
    157. D(C   4,C   3,C   2,C  20)    179.9311         0.025859   
    158. D(H  36,C   4,C   3,C   2)   -179.9099         0.029046   
    159. D(H  36,C   4,C   3,H   7)      0.1635         0.029046   
    160. D(C   5,C   4,C   3,C   2)      0.0973         0.029046   
    161. D(C   5,C   4,C   3,H   7)   -179.8293         0.029046   
    162. D(H   8,C   5,C   4,C   3)   -179.9576         0.027639   
    163. D(H   8,C   5,C   0,C   1)    179.8790         0.027946   
    164. D(C   0,C   5,C   4,H  36)   -179.9173         0.027639   
    165. D(H   8,C   5,C   4,H  36)      0.0496         0.027639   
    166. D(H   8,C   5,C   0,H  37)     -0.0543         0.027946   
    167. D(C   0,C   5,C   4,C   3)      0.0755         0.027639   
    168. D(C   4,C   5,C   0,C   1)     -0.1540         0.027946   
    169. D(C   4,C   5,C   0,H  37)    179.9127         0.027946   
    170. D(H  18,H   7,C   3,C   4)    -69.1413         0.135814   
    171. D(H  14,H   7,C   3,C   2)      1.3617         0.135814   
    172. D(H  18,H   7,C   3,C   2)    110.9308         0.135814   
    173. D(H  14,H   7,C   3,C   4)   -178.7103         0.135814   
    174. D(H  12,C  11,N   9,H  14)     57.8318         0.019453   
    175. D(H  12,C  11,N   9,C  20)   -122.8244         0.019453   
    176. D(H  13,C  11,N   9,C  20)     -3.9040         0.019453   
    177. D(C  24,C  11,N   9,H  14)    -60.5712         0.019453   
    178. D(C  24,C  11,N   9,C  20)    118.7727         0.019453   
    179. D(H  13,C  11,N   9,H  14)    176.7522         0.019453   
    180. D(H  25,H  14,H  10,O  22)    -50.8377         0.001507   
    181. D(N   9,H  14,H  10,N  15)   -179.3896         0.001507   
    182. D(N   9,H  14,H  10,O  22)     -8.9818         0.001507   
    183. D(H   7,H  14,H  10,N  15)    -14.6064         0.001507   
    184. D(H   7,H  14,H  10,O  22)    155.8014         0.001507   
    185. D(N  15,H  14,H  10,O  22)    170.4078         0.001507   
    186. D(H  10,H  14,N   9,C  20)    174.3707         0.001579   
    187. D(H  10,H  14,N   9,C  11)     -6.5100         0.001579   
    188. D(H  25,H  14,N   9,C  11)     33.0949         0.001579   
    189. D(H   7,H  14,N   9,C  20)      1.0779         0.001579   
    190. D(H  25,H  14,N   9,C  20)   -146.0243         0.001579   
    191. D(H   7,H  14,N   9,C  11)   -179.8029         0.001579   
    192. D(H  10,H  14,H   7,H  18)     53.5976         0.001507   
    193. D(H  10,H  14,H   7,C   3)   -169.7097         0.001507   
    194. D(H  25,H  14,H   7,H  18)    -91.0082         0.001507   
    195. D(N   9,H  14,H   7,H  18)   -138.2639         0.001507   
    196. D(H  25,H  14,H   7,C   3)     45.6846         0.001507   
    197. D(N  15,H  14,H   7,H  18)     42.3704         0.001507   
    198. D(N   9,H  14,H   7,C   3)     -1.5711         0.001507   
    199. D(H  25,H  14,H  10,N  15)    138.7545         0.001507   
    200. D(N  15,H  14,H   7,C   3)    179.0631         0.001507   
    201. D(C  17,N  15,H  10,H  14)   -119.6301         0.001909   
    202. D(H  10,N  15,N   9,C  20)    174.4533         0.001500   
    203. D(H  10,N  15,N   9,C  11)     -6.1587         0.001500   
    204. D(H  23,N  15,N   9,C  20)     53.2359         0.001500   
    205. D(H  23,N  15,N   9,C  11)   -127.3761         0.001500   
    206. D(C  17,N  15,N   9,C  20)    -67.3106         0.001500   
    207. D(H  23,N  15,H  10,H  14)    118.8733         0.001909   
    208. D(C  17,N  15,N   9,C  11)    112.0774         0.001500   
    209. D(H  10,N  15,H  14,H   7)    173.5106         0.272786   
    210. D(H  23,N  15,H  14,H  10)   -121.6131         0.272786   
    211. D(H  23,N  15,H  14,H  25)   -160.4934         0.272786   
    212. D(H  23,N  15,H  14,H   7)     51.8975         0.272786   
    213. D(C  17,N  15,H  14,H  10)    118.3838         0.272786   
    214. D(C  17,N  15,H  14,H  25)     79.5035         0.272786   
    215. D(H  10,N  15,H  14,H  25)    -38.8803         0.272786   
    216. D(C  17,N  15,H  14,H   7)    -68.1056         0.272786   
    217. D(C  27,C  17,N  15,H  10)    -59.5388         0.016977   
    218. D(C  27,C  17,N  15,H  14)   -177.7135         0.016977   
    219. D(H  19,C  17,N  15,H  10)     59.7845         0.016977   
    220. D(H  19,C  17,N  15,H  23)   -177.2279         0.016977   
    221. D(C  27,C  17,N  15,H  23)     63.4488         0.016977   
    222. D(H  19,C  17,N  15,H  14)    -58.3902         0.016977   
    223. D(H  18,C  17,N  15,H  23)    -59.0699         0.016977   
    224. D(H  18,C  17,N  15,H  14)     59.7678         0.016977   
    225. D(H  18,C  17,N  15,H  10)    177.9426         0.016977   
    226. D(H   7,H  18,C  17,C  27)   -138.8076         0.109425   
    227. D(H   7,H  18,C  17,H  19)    102.2697         0.109425   
    228. D(H   7,H  18,C  17,N  15)    -15.7074         0.109425   
    229. D(C  17,H  18,H   7,H  14)     -8.2911         0.001501   
    230. D(C  17,H  18,H   7,C   3)   -147.8212         0.001501   
    231. D(H  21,C  20,N   9,H  14)    179.7597         0.068781   
    232. D(H  21,C  20,N   9,C  11)      0.7542         0.068781   
    233. D(C   2,C  20,N   9,H  14)     -0.7632         0.068781   
    234. D(C   2,C  20,N   9,C  11)   -179.7687         0.068781   
    235. D(H  21,C  20,C   2,C   3)    179.3604         0.016685   
    236. D(H  21,C  20,C   2,C   1)     -0.5193         0.016685   
    237. D(N   9,C  20,C   2,C   3)     -0.1457         0.016685   
    238. D(N   9,C  20,C   2,C   1)    179.9746         0.016685   
    239. D(H  16,O  22,N  15,H  23)     -1.0998         0.001501   
    240. D(H  16,O  22,N  15,C  17)    120.0807         0.001501   
    241. D(H  16,O  22,N  15,H  14)   -119.4485         0.001501   
    242. D(H  16,O  22,H  10,H  14)   -111.2433         0.270378   
    243. D(C  33,C  24,C  11,H  13)    -55.0435         0.011011   
    244. D(C  33,C  24,C  11,H  12)     63.6906         0.011011   
    245. D(C  33,C  24,C  11,N   9)   -178.8248         0.011011   
    246. D(H  26,C  24,C  11,H  13)     66.3839         0.011011   
    247. D(H  26,C  24,C  11,H  12)   -174.8821         0.011011   
    248. D(H  26,C  24,C  11,N   9)    -57.3975         0.011011   
    249. D(H  25,C  24,C  11,H  13)   -175.7251         0.011011   
    250. D(H  25,C  24,C  11,H  12)    -56.9911         0.011011   
    251. D(H  25,C  24,C  11,N   9)     60.4935         0.011011   
    252. D(H  14,H  25,C  24,C  33)   -146.8770         0.121447   
    253. D(H  14,H  25,C  24,H  26)     93.5523         0.121447   
    254. D(H  14,H  25,C  24,C  11)    -24.7822         0.121447   
    255. D(C  24,H  25,H  14,H  10)    144.0497         0.001504   
    256. D(C  24,H  25,H  14,N   9)     -4.7879         0.001504   
    257. D(C  24,H  25,H  14,H   7)    -51.4450         0.001504   
    258. D(C  24,H  25,H  14,N  15)    173.9674         0.001504   
    259. D(C  30,C  27,C  17,H  19)     59.7794         0.011326   
    260. D(C  30,C  27,C  17,H  18)    -57.8898         0.011326   
    261. D(C  30,C  27,C  17,N  15)    177.6890         0.011326   
    262. D(H  29,C  27,C  17,H  19)    -61.4777         0.011326   
    263. D(H  29,C  27,C  17,H  18)   -179.1469         0.011326   
    264. D(H  29,C  27,C  17,N  15)     56.4319         0.011326   
    265. D(H  28,C  27,C  17,H  19)   -178.8325         0.011326   
    266. D(H  28,C  27,C  17,H  18)     63.4983         0.011326   
    267. D(H  28,C  27,C  17,N  15)    -60.9229         0.011326   
    268. D(H  32,C  30,C  27,H  28)   -179.7570         0.011390   
    269. D(H  32,C  30,C  27,C  17)    -58.5453         0.011390   
    270. D(H  31,C  30,C  27,H  29)    179.6878         0.011390   
    271. D(H  31,C  30,C  27,H  28)    -62.2109         0.011390   
    272. D(H  31,C  30,C  27,C  17)     59.0008         0.011390   
    273. D(C  38,C  30,C  27,H  29)    -58.9581         0.011390   
    274. D(C  38,C  30,C  27,H  28)     59.1432         0.011390   
    275. D(C  38,C  30,C  27,C  17)   -179.6451         0.011390   
    276. D(H  32,C  30,C  27,H  29)     62.1418         0.011390   
    277. D(C  42,C  33,C  24,H  26)     61.2451         0.011444   
    278. D(C  42,C  33,C  24,H  25)    -57.3520         0.011444   
    279. D(C  42,C  33,C  24,C  11)   -177.8310         0.011444   
    280. D(H  35,C  33,C  24,H  26)    -60.2139         0.011444   
    281. D(H  35,C  33,C  24,H  25)   -178.8110         0.011444   
    282. D(H  35,C  33,C  24,C  11)     60.7100         0.011444   
    283. D(H  34,C  33,C  24,H  26)   -178.0880         0.011444   
    284. D(H  34,C  33,C  24,H  25)     63.3149         0.011444   
    285. D(H  34,C  33,C  24,C  11)    -57.1641         0.011444   
    286. D(H  41,C  38,C  30,H  32)    -60.8411         0.011574   
    287. D(H  41,C  38,C  30,H  31)   -178.5869         0.011574   
    288. D(H  41,C  38,C  30,C  27)     60.0953         0.011574   
    289. D(H  40,C  38,C  30,H  32)    179.2264         0.011574   
    290. D(H  40,C  38,C  30,H  31)     61.4806         0.011574   
    291. D(H  40,C  38,C  30,C  27)    -59.8372         0.011574   
    292. D(H  39,C  38,C  30,H  32)     59.1676         0.011574   
    293. D(H  39,C  38,C  30,H  31)    -58.5782         0.011574   
    294. D(H  39,C  38,C  30,C  27)   -179.8960         0.011574   
    295. D(H  45,C  42,C  33,H  35)     61.8510         0.011617   
    296. D(H  45,C  42,C  33,H  34)    179.8508         0.011617   
    297. D(H  45,C  42,C  33,C  24)    -59.6024         0.011617   
    298. D(H  44,C  42,C  33,H  35)    -58.3114         0.011617   
    299. D(H  44,C  42,C  33,H  34)     59.6883         0.011617   
    300. D(H  44,C  42,C  33,C  24)   -179.7649         0.011617   
    301. D(H  43,C  42,C  33,H  35)   -178.1154         0.011617   
    302. D(H  43,C  42,C  33,H  34)    -60.1157         0.011617   
    303. D(H  43,C  42,C  33,C  24)     60.4312         0.011617   
    -----------------------------------------------------------------

Number of atoms                         .... 46
Number of degrees of freedom            .... 303

         *************************************************************
         *                GEOMETRY OPTIMIZATION CYCLE   1            *
         *************************************************************
      -----------------------------------------------------------      
     |                   =====================                   |     
     |                           x T B                           |     
     |                   =====================                   |     
     |                         S. Grimme                         |     
     |          Mulliken Center for Theoretical Chemistry        |     
     |                    University of Bonn                     |     
      -----------------------------------------------------------      

   * xtb version 6.3.0 (49875a8) compiled by 'schneider@apollo14' on 2020-05-23

   xtb is free software: you can redistribute it and/or modify it under
   the terms of the GNU Lesser General Public License as published by
   the Free Software Foundation, either version 3 of the License, or
   (at your option) any later version.
   
   xtb is distributed in the hope that it will be useful,
   but WITHOUT ANY WARRANTY; without even the implied warranty of
   MERCHANTABILITY or FITNESS FOR A PARTICULAR PURPOSE.  See the
   GNU Lesser General Public License for more details.
   
   Cite this work as:
   * S. Grimme, C. Bannwarth, P. Shushkov, J. Chem. Theory Comput., 2017,
     13, 1989-2009. DOI: 10.1021/acs.jctc.7b00118
   * C. Bannwarth, S. Ehlert and S. Grimme., J. Chem. Theory Comput., 2019,
     15, 1652-1671. DOI: 10.1021/acs.jctc.8b01176
   * P. Pracht, E. Caldeweyher, S. Ehlert, S. Grimme, ChemRxiv, 2019, preprint.
     DOI: 10.26434/chemrxiv.8326202.v1
   
   for GFN-FF:
   * S. Spicher and S. Grimme, Angew. Chem. Int. Ed., 2020,
     DOI: 10.1002/anie.202004239
   
   for DFT-D4:
   * E. Caldeweyher, C. Bannwarth and S. Grimme, J. Chem. Phys., 2017,
     147, 034112. DOI: 10.1063/1.4993215
   * E. Caldeweyher, S. Ehlert, A. Hansen, H. Neugebauer, S. Spicher,
     C. Bannwarth and S. Grimme, J. Chem. Phys., 2019, 150, 154122.
     DOI: 10.1063/1.5090222
   
   for sTDA-xTB:
   * S. Grimme and C. Bannwarth, J. Chem. Phys., 2016, 145, 054103.
     DOI: 10.1063/1.4959605
   
   in the mass-spec context:
   * V. Asgeirsson, C. Bauer and S. Grimme, Chem. Sci., 2017, 8, 4879.
     DOI: 10.1039/c7sc00601b
   * J. Koopman and S. Grimme, ACS Omega 2019, 4, 12, 15120-15133.
     DOI: 10.1021/acsomega.9b02011
   
   for metadynamics refer to:
   * S. Grimme, J. Chem. Theory Comput., 2019, 155, 2847-2862
     DOI: 10.1021/acs.jctc.9b00143
   
   with help from (in alphabetical order)
   C. Bannwarth, F. Bohle, G. Brandenburg, E. Caldeweyher, M. Checinski,
   S. Dohm, S. Ehlert, S. Ehrlich, F. März, H. Neugebauer, J. Pisarek,
   P. Pracht, P. Shushkov, and S. Spicher.
   
 * started run on 2020/06/24 at 11:14:20.307     

           -------------------------------------------------
          |                Calculation Setup                |
           -------------------------------------------------

          program call               : /opt/orca/otool_xtb opt+freq_XTB.xyz --grad -c 0 -u 0 -P 12 --namespace opt+freq --gbsa CH2Cl2
          calculation namespace      : opt+freq
          coordinate file            : opt+freq_XTB.xyz
          number of atoms            :                    46
          number of electrons        :                   104
          charge                     :                     0
          spin                       :                   0.0
          first test random number   :      0.64927345848245

   ID    Z sym.   atoms
    1    6 C      1-6, 12, 18, 21, 25, 28, 31, 34, 39, 43
    2    1 H      7-9, 11, 13-15, 17, 19, 20, 22, 24, 26, 27, 29, 30, 32, 33,
                  35-38, 40-42, 44-46
    3    7 N      10, 16
    4    8 O      23

molecular fragmentation (1/2 indicates fragments):
1111111111211122222211221112222221111122221111
# atoms in fragment 1/2:    27    19
 fragment masses (1/2) :      161.24       91.15
CMA distance (Bohr)    :   9.742
constraining FC (au)   :  0.0500
########################################################################
[WARNING] Please study the warnings concerning your input carefully
-1- prog_main_parseArguments: Process number higher than OMP_NUM_THREADS, I hope you know what you are doing.
########################################################################
 Solvent             : CH2Cl2
 Using internal parameter file: .param_gbsa2_CH2Cl2
 Gsolv ref. state (COSMO-RS): gsolv [1 M gas/solution]
 temperature (mdtemp)       :    298.14999999999998     
 dielectric constant        :    8.9299999999999997     
 rho                        :    1.3300000000000003     
 mass                       :    84.930000000000007     
 surface tension            :    15.568945408385856     
 probe radius               :   0.71987590000000001     
 Gshift (Eh)                :    4.4408291734517593E-003
 c1                         :    1.4917377599999999     
 soset                      :    0.0000000000000000     
 HB correction              :  F

           -------------------------------------------------
          |                 G F N 2 - x T B                 |
           -------------------------------------------------

        Reference                      10.1021/acs.jctc.8b01176
      * Hamiltonian:
        H0-scaling (s, p, d)           1.850000    2.230000    2.230000
        zeta-weighting                 0.500000
      * Dispersion:
        s8                             2.700000
        a1                             0.520000
        a2                             5.000000
        s9                             5.000000
      * Repulsion:
        kExp                           1.500000    1.000000
        rExp                           1.000000
      * Coulomb:
        alpha                          2.000000
        third order                    shell-resolved
        anisotropic                    true
        a3                             3.000000
        a5                             4.000000
        cn-shift                       1.200000
        cn-exp                         4.000000
        max-rad                        5.000000

q/qsh data taken from xtbrestart
CAMM data taken from xtbrestart

          ...................................................
          :                      SETUP                      :
          :.................................................:
          :  # basis functions                 100          :
          :  # atomic orbitals                 100          :
          :  # shells                           64          :
          :  # electrons                       104          :
          :  max. iterations                   250          :
          :  Hamiltonian                  GFN2-xTB          :
          :  restarted?                       true          :
          :  GBSA solvation                   true          :
          :  PC potential                    false          :
          :  electronic temp.          300.0000000     K    :
          :  accuracy                    1.0000000          :
          :  -> integral cutoff          0.2500000E+02      :
          :  -> integral neglect         0.1000000E-07      :
          :  -> SCF convergence          0.1000000E-05 Eh   :
          :  -> wf. convergence          0.1000000E-03 e    :
          :  Broyden damping             0.4000000          :
          ...................................................

 iter      E             dE          RMSdq      gap      omega  full diag
   1    -57.1201530 -0.571202E+02  0.622E-07    2.72       0.0  T
   2    -57.1201530  0.142109E-13  0.374E-07    2.72   39384.8  T
   3    -57.1201530 -0.355271E-13  0.233E-07    2.72   63214.5  T

   *** convergence criteria satisfied after 3 iterations ***

         #    Occupation            Energy/Eh            Energy/eV
      -------------------------------------------------------------
         1        2.0000           -0.6591001             -17.9350
       ...           ...                  ...                  ...
        46        2.0000           -0.4252068             -11.5705
        47        2.0000           -0.4223461             -11.4926
        48        2.0000           -0.4218942             -11.4803
        49        2.0000           -0.4154905             -11.3061
        50        2.0000           -0.4040459             -10.9946
        51        2.0000           -0.3878246             -10.5532
        52        2.0000           -0.3772123             -10.2645 (HOMO)
        53                         -0.2771828              -7.5425 (LUMO)
        54                         -0.2327125              -6.3324
        55                         -0.1923430              -5.2339
        56                         -0.0901901              -2.4542
        57                          0.0176453               0.4802
       ...                                ...                  ...
       100                          0.6613232              17.9955
      -------------------------------------------------------------
                  HL-Gap            0.1000295 Eh            2.7219 eV
             Fermi-level           -0.3271976 Eh           -8.9035 eV

 SCC (total)                   0 d,  0 h,  0 min,  0.099 sec
 SCC setup                      ...        0 min,  0.002 sec (  2.444%)
 Dispersion                     ...        0 min,  0.001 sec (  0.806%)
 classical contributions        ...        0 min,  0.000 sec (  0.300%)
 integral evaluation            ...        0 min,  0.029 sec ( 29.240%)
 iterations                     ...        0 min,  0.016 sec ( 16.362%)
 molecular gradient             ...        0 min,  0.049 sec ( 49.198%)
 printout                       ...        0 min,  0.002 sec (  1.626%)

         :::::::::::::::::::::::::::::::::::::::::::::::::::::
         ::                     SUMMARY                     ::
         :::::::::::::::::::::::::::::::::::::::::::::::::::::
         :: total energy             -56.298146301413 Eh    ::
         :: total w/o Gsasa/hb       -56.273499764389 Eh    ::
         :: gradient norm              0.000599193286 Eh/a0 ::
         :: HOMO-LUMO gap              2.721941137730 eV    ::
         ::.................................................::
         :: SCC energy               -57.144799542497 Eh    ::
         :: -> isotropic ES            0.063858200263 Eh    ::
         :: -> anisotropic ES          0.003162956347 Eh    ::
         :: -> anisotropic XC          0.040294035229 Eh    ::
         :: -> dispersion             -0.035546763537 Eh    ::
         :: -> Gsolv                  -0.030634582420 Eh    ::
         ::    -> Gborn               -0.005988045396 Eh    ::
         ::    -> Gsasa               -0.029087366197 Eh    ::
         ::    -> Ghb                  0.000000000000 Eh    ::
         ::    -> Gshift               0.004440829173 Eh    ::
         :: repulsion energy           0.846453744130 Eh    ::
         :: add. restraining           0.000000000000 Eh    ::
         :::::::::::::::::::::::::::::::::::::::::::::::::::::

           -------------------------------------------------
          |                Property Printout                |
           -------------------------------------------------

    * Orbital Energies and Occupations

         #    Occupation            Energy/Eh            Energy/eV
      -------------------------------------------------------------
         1        2.0000           -0.6591001             -17.9350
       ...           ...                  ...                  ...
        40        2.0000           -0.4402955             -11.9811
        41        2.0000           -0.4367740             -11.8852
        42        2.0000           -0.4355223             -11.8512
        43        2.0000           -0.4338444             -11.8055
        44        2.0000           -0.4314879             -11.7414
        45        2.0000           -0.4291063             -11.6766
        46        2.0000           -0.4252068             -11.5705
        47        2.0000           -0.4223461             -11.4926
        48        2.0000           -0.4218942             -11.4803
        49        2.0000           -0.4154905             -11.3061
        50        2.0000           -0.4040459             -10.9946
        51        2.0000           -0.3878246             -10.5532
        52        2.0000           -0.3772123             -10.2645 (HOMO)
        53                         -0.2771828              -7.5425 (LUMO)
        54                         -0.2327125              -6.3324
        55                         -0.1923430              -5.2339
        56                         -0.0901901              -2.4542
        57                          0.0176453               0.4802
        58                          0.0462466               1.2584
        59                          0.0798096               2.1717
        60                          0.0959582               2.6112
        61                          0.1017971               2.7700
        62                          0.1054664               2.8699
        63                          0.1107450               3.0135
       ...                                ...                  ...
       100                          0.6613232              17.9955
      -------------------------------------------------------------
                  HL-Gap            0.1000295 Eh            2.7219 eV
             Fermi-level           -0.3271976 Eh           -8.9035 eV

     #   Z        covCN         q      C6AA      α(0)
     1   6 C      2.917    -0.028    28.690     8.783
     2   6 C      2.926    -0.029    28.732     8.790
     3   6 C      2.974     0.004    27.932     8.669
     4   6 C      2.924    -0.027    28.677     8.782
     5   6 C      2.917    -0.027    28.686     8.783
     6   6 C      2.920    -0.024    28.605     8.771
     7   1 H      0.926     0.038     2.473     2.459
     8   1 H      0.926     0.048     2.350     2.397
     9   1 H      0.926     0.045     2.389     2.417
    10   7 N      1.828    -0.260    27.614     7.787
    11   1 H      0.803     0.306     0.704     1.318
    12   6 C      3.770     0.022    20.242     6.412
    13   1 H      0.924     0.046     2.377     2.411
    14   1 H      0.923     0.008     2.930     2.677
    15   1 H      0.860     0.183     1.198     1.715
    16   7 N      2.629    -0.381    29.862     8.116
    17   1 H      0.805     0.274     0.803     1.408
    18   6 C      3.731     0.020    20.324     6.435
    19   1 H      0.923     0.008     2.924     2.674
    20   1 H      0.924     0.033     2.550     2.497
    21   6 C      2.862     0.078    26.250     8.398
    22   1 H      0.923    -0.000     3.064     2.737
    23   8 O      1.607    -0.633    25.995     6.881
    24   1 H      0.860     0.142     1.459     1.892
    25   6 C      3.804    -0.062    21.692     6.630
    26   1 H      0.925     0.054     2.271     2.357
    27   1 H      0.924     0.033     2.549     2.497
    28   6 C      3.803    -0.069    21.821     6.650
    29   1 H      0.924     0.035     2.520     2.483
    30   1 H      0.924     0.048     2.346     2.395
    31   6 C      3.801    -0.055    21.562     6.611
    32   1 H      0.924     0.031     2.577     2.511
    33   1 H      0.924     0.032     2.558     2.501
    34   6 C      3.801    -0.054    21.546     6.609
    35   1 H      0.924     0.036     2.506     2.476
    36   1 H      0.924     0.030     2.583     2.513
    37   1 H      0.926     0.043     2.408     2.426
    38   1 H      0.926     0.043     2.414     2.430
    39   6 C      3.752    -0.104    22.556     6.773
    40   1 H      0.925     0.036     2.499     2.472
    41   1 H      0.925     0.036     2.500     2.473
    42   1 H      0.925     0.037     2.485     2.465
    43   6 C      3.752    -0.105    22.567     6.774
    44   1 H      0.925     0.041     2.442     2.444
    45   1 H      0.925     0.038     2.480     2.463
    46   1 H      0.925     0.036     2.506     2.475

 Mol. C6AA /au·bohr⁶  :      17441.728824
 Mol. C8AA /au·bohr⁸  :     382451.966737
 Mol. α(0) /au        :        202.637922


Wiberg/Mayer (AO) data.
largest (>0.10) Wiberg bond orders for each atom
          total WBO             WBO to atom ...
     1  C   3.992        C    2 1.456    C    6 1.433    H   38 0.970    C    4 0.106
     2  C   3.986        C    1 1.456    C    3 1.374    H    7 0.968    C    5 0.104
     3  C   3.989        C    2 1.374    C    4 1.367    C   21 1.091
     4  C   3.990        C    5 1.465    C    3 1.367    H    8 0.964    C    1 0.106
     5  C   3.992        C    4 1.465    C    6 1.426    H   37 0.970    C    2 0.104
     6  C   3.987        C    1 1.433    C    5 1.426    H    9 0.971
     7  H   0.999        C    2 0.968
     8  H   0.998        C    4 0.964
     9  H   0.998        C    6 0.971
    10  N   3.099        C   21 1.829    C   12 1.031
    11  H   0.906        O   23 0.834
    12  C   3.984        N   10 1.031    C   25 0.982    H   14 0.963    H   13 0.955
    13  H   0.994        C   12 0.955
    14  H   1.000        C   12 0.963
    15  H   0.966        N   16 0.923
    16  N   3.068        C   18 1.016    H   24 0.966    H   15 0.923
    17  H   0.925        O   23 0.924
    18  C   3.983        N   16 1.016    C   28 1.005    H   20 0.975    H   19 0.970
    19  H   1.000        C   18 0.970
    20  H   0.999        C   18 0.975
    21  C   3.969        N   10 1.829    C    3 1.091    H   22 0.938
    22  H   0.999        C   21 0.938
    23  O   1.797        H   17 0.924    H   11 0.834
    24  H   0.980        N   16 0.966
    25  C   3.990        C   34 1.006    C   12 0.982    H   27 0.978    H   26 0.973
    26  H   0.997        C   25 0.973
    27  H   0.999        C   25 0.978
    28  C   3.996        C   31 1.007    C   18 1.005    H   29 0.976    H   30 0.975
    29  H   0.999        C   28 0.976
    30  H   0.998        C   28 0.975
    31  C   3.998        C   39 1.019    C   28 1.007    H   33 0.979    H   32 0.978
    32  H   0.999        C   31 0.978
    33  H   0.999        C   31 0.979
    34  C   3.996        C   43 1.019    C   25 1.006    H   36 0.978    H   35 0.978
    35  H   0.999        C   34 0.978
    36  H   0.999        C   34 0.978
    37  H   0.998        C    5 0.970
    38  H   0.998        C    1 0.970
    39  C   3.996        C   31 1.019    H   41 0.988    H   42 0.988    H   40 0.987
    40  H   0.998        C   39 0.987
    41  H   0.999        C   39 0.988
    42  H   0.999        C   39 0.988
    43  C   3.995        C   34 1.019    H   46 0.988    H   44 0.988    H   45 0.987
    44  H   0.998        C   43 0.988
    45  H   0.998        C   43 0.987
    46  H   0.999        C   43 0.988
Topologies differ in total number of bonds
Writing topology from bond orders to xtbtopo.mol

molecular dipole:
                 x           y           z       tot (Debye)
 q only:        1.332       0.063      -0.221
   full:        1.829       0.486      -0.080       4.815
molecular quadrupole (traceless):
                xx          xy          yy          xz          yz          zz
 q only:       -9.032      -3.687       6.931       2.030       0.254       2.101
  q+dip:      -15.009      -7.801      14.452      -0.074      -0.106       0.557
   full:      -16.358      -8.013      12.305       1.412      -0.398       4.053


           -------------------------------------------------
          | TOTAL ENERGY              -56.298146301413 Eh   |
          | GRADIENT NORM               0.000599193286 Eh/α |
          | HOMO-LUMO GAP               2.721941137730 eV   |
           -------------------------------------------------

------------------------------------------------------------------------
 * finished run on 2020/06/24 at 11:14:20.474     
------------------------------------------------------------------------
 total:
 * wall-time:     0 d,  0 h,  0 min,  0.167 sec
 *  cpu-time:     0 d,  0 h,  0 min,  1.558 sec
 * ratio c/w:     9.340 speedup
 SCF:
 * wall-time:     0 d,  0 h,  0 min,  0.117 sec
 *  cpu-time:     0 d,  0 h,  0 min,  1.109 sec
 * ratio c/w:     9.494 speedup


-------------------------   --------------------
FINAL SINGLE POINT ENERGY       -56.298146301410
-------------------------   --------------------

------------------------------------------------------------------------------
                         ORCA GEOMETRY RELAXATION STEP
------------------------------------------------------------------------------

Reading the OPT-File                    .... done
Getting information on internals        .... done
Copying old internal coords+grads       .... done
Making the new internal coordinates     .... (new redundants).... done
Validating the new internal coordinates .... (new redundants).... done
Calculating the B-matrix                .... done
Calculating the G,G- and P matrices     .... done
Transforming gradient to internals      .... done
Projecting the internal gradient        .... done
Number of atoms                         ....  46
Number of internal coordinates          .... 303
Current Energy                          ....   -56.298146301 Eh
Current gradient norm                   ....     0.000599193 Eh/bohr
Maximum allowed component of the step   ....  0.300
Current trust radius                    ....  0.300
Evaluating the initial hessian          ....  (Almloef) done
Projecting the Hessian                  .... done
Forming the augmented Hessian           .... done
Diagonalizing the augmented Hessian     .... done
Last element of RFO vector              ....  0.999418056
Lowest eigenvalues of augmented Hessian:
 -0.000007708  0.001506023  0.010608006  0.011325656  0.011390466
Length of the computed step             ....  0.034130687
The final length of the internal step   ....  0.034130687
Converting the step to cartesian space:
 Initial RMS(Int)=    0.0019607567
Transforming coordinates:
 Iter   0:  RMS(Cart)=    0.0072425393 RMS(Int)=    0.5103927692
 Iter   1:  RMS(Cart)=    0.0000146025 RMS(Int)=    0.0000077296
 Iter   2:  RMS(Cart)=    0.0000001276 RMS(Int)=    0.0000001203
 Iter   3:  RMS(Cart)=    0.0000000015 RMS(Int)=    0.0000000010
done
Storing new coordinates                 .... done

                                .--------------------.
          ----------------------|Geometry convergence|-------------------------
          Item                value                   Tolerance       Converged
          ---------------------------------------------------------------------
          RMS gradient        0.0000451253            0.0001000000      YES
          MAX gradient        0.0002143216            0.0003000000      YES
          RMS step            0.0019607567            0.0020000000      YES
          MAX step            0.0119328620            0.0040000000      NO
          ........................................................
          Max(Bonds)      0.0044      Max(Angles)    0.10
          Max(Dihed)        0.68      Max(Improp)    0.00
          ---------------------------------------------------------------------

The optimization has not yet converged - more geometry cycles are needed


    ---------------------------------------------------------------------------
                         Redundant Internal Coordinates
                            (Angstroem and degrees)

        Definition                    Value    dE/dq     Step     New-Value
    ----------------------------------------------------------------------------
     1. B(C   1,C   0)                1.3823  0.000066 -0.0000    1.3822   
     2. B(C   2,C   1)                1.3959 -0.000027  0.0000    1.3959   
     3. B(C   3,C   2)                1.3957  0.000039 -0.0001    1.3957   
     4. B(C   4,C   3)                1.3809  0.000147 -0.0001    1.3807   
     5. B(C   5,C   0)                1.3858 -0.000024  0.0000    1.3858   
     6. B(C   5,C   4)                1.3872  0.000137 -0.0001    1.3871   
     7. B(H   6,C   1)                1.0811 -0.000034  0.0000    1.0811   
     8. B(H   7,C   3)                1.0776  0.000170 -0.0002    1.0774   
     9. B(H   8,C   5)                1.0801  0.000046 -0.0001    1.0800   
    10. B(C  11,N   9)                1.4335  0.000010  0.0001    1.4335   
    11. B(H  12,C  11)                1.0949 -0.000113  0.0002    1.0951   
    12. B(H  13,C  11)                1.1032 -0.000086  0.0001    1.1033   
    13. B(H  14,H  10)                2.3153  0.000002 -0.0000    2.3152   
    14. B(H  14,H   7)                2.3237  0.000015 -0.0023    2.3214   
    15. B(H  14,N   9)                2.0158  0.000009 -0.0004    2.0153   
    16. B(N  15,H  14)                1.0208 -0.000027 -0.0000    1.0208   
    17. B(N  15,H  10)                1.7855 -0.000000  0.0001    1.7856   
    18. B(C  17,N  15)                1.4610 -0.000111  0.0000    1.4611   
    19. B(H  18,C  17)                1.1017  0.000030 -0.0000    1.1017   
    20. B(H  18,H   7)                2.5164  0.000091 -0.0038    2.5126   
    21. B(H  19,C  17)                1.0934 -0.000043  0.0001    1.0935   
    22. B(C  20,N   9)                1.2648 -0.000066  0.0000    1.2649   
    23. B(C  20,C   2)                1.4534 -0.000015 -0.0000    1.4534   
    24. B(H  21,C  20)                1.1015 -0.000035  0.0001    1.1016   
    25. B(O  22,H  16)                0.9602  0.000062 -0.0001    0.9602   
    26. B(O  22,H  10)                0.9860  0.000113 -0.0001    0.9859   
    27. B(H  23,N  15)                1.0160  0.000031 -0.0000    1.0160   
    28. B(C  24,C  11)                1.5317 -0.000010  0.0001    1.5319   
    29. B(H  25,C  24)                1.0900 -0.000132  0.0002    1.0902   
    30. B(H  25,H  14)                2.3729 -0.000092  0.0044    2.3773   
    31. B(H  26,C  24)                1.0932 -0.000056  0.0001    1.0933   
    32. B(C  27,C  17)                1.5277 -0.000008  0.0000    1.5277   
    33. B(H  28,C  27)                1.0934 -0.000009  0.0000    1.0934   
    34. B(H  29,C  27)                1.0915  0.000029 -0.0000    1.0915   
    35. B(C  30,C  27)                1.5268  0.000083 -0.0001    1.5267   
    36. B(H  31,C  30)                1.0931  0.000093 -0.0001    1.0929   
    37. B(H  32,C  30)                1.0923  0.000031 -0.0000    1.0923   
    38. B(C  33,C  24)                1.5262 -0.000007  0.0000    1.5262   
    39. B(H  34,C  33)                1.0920 -0.000002  0.0000    1.0920   
    40. B(H  35,C  33)                1.0932 -0.000010  0.0000    1.0932   
    41. B(H  36,C   4)                1.0803  0.000002 -0.0000    1.0803   
    42. B(H  37,C   0)                1.0802  0.000036 -0.0001    1.0802   
    43. B(C  38,C  30)                1.5245  0.000051 -0.0001    1.5245   
    44. B(H  39,C  38)                1.0878 -0.000012  0.0000    1.0878   
    45. B(H  40,C  38)                1.0879 -0.000146  0.0002    1.0882   
    46. B(H  41,C  38)                1.0878 -0.000071  0.0001    1.0879   
    47. B(C  42,C  33)                1.5240  0.000007 -0.0000    1.5240   
    48. B(H  43,C  42)                1.0877 -0.000017  0.0000    1.0877   
    49. B(H  44,C  42)                1.0878  0.000034 -0.0000    1.0877   
    50. B(H  45,C  42)                1.0882 -0.000040  0.0001    1.0883   
    51. A(C   5,C   0,H  37)          120.07  0.000014   -0.00    120.07   
    52. A(C   1,C   0,H  37)          119.85 -0.000004    0.00    119.85   
    53. A(C   1,C   0,C   5)          120.08 -0.000010    0.00    120.09   
    54. A(C   2,C   1,H   6)          119.50 -0.000023    0.00    119.50   
    55. A(C   0,C   1,C   2)          120.52  0.000044   -0.01    120.51   
    56. A(C   0,C   1,H   6)          119.98 -0.000021    0.00    119.99   
    57. A(C   1,C   2,C  20)          119.27 -0.000079    0.02    119.29   
    58. A(C   1,C   2,C   3)          118.86  0.000036   -0.00    118.86   
    59. A(C   3,C   2,C  20)          121.87  0.000042   -0.02    121.85   
    60. A(C   2,C   3,H   7)          118.61 -0.000056    0.01    118.62   
    61. A(C   4,C   3,H   7)          120.90  0.000130   -0.01    120.89   
    62. A(C   2,C   3,C   4)          120.48 -0.000074    0.01    120.49   
    63. A(C   3,C   4,C   5)          120.16  0.000022   -0.01    120.15   
    64. A(C   3,C   4,H  36)          119.91 -0.000001    0.00    119.91   
    65. A(C   5,C   4,H  36)          119.94 -0.000020    0.00    119.94   
    66. A(C   0,C   5,C   4)          119.90 -0.000018    0.00    119.90   
    67. A(C   4,C   5,H   8)          120.07  0.000041   -0.01    120.06   
    68. A(C   0,C   5,H   8)          120.03 -0.000024    0.00    120.03   
    69. A(C   3,H   7,H  14)          143.13 -0.000026    0.03    143.16   
    70. A(C   3,H   7,H  18)          140.65  0.000046   -0.08    140.56   
    71. A(H  14,H   7,H  18)           60.59 -0.000039    0.06     60.65   
    72. A(H  14,N   9,C  20)          139.60  0.000018   -0.03    139.58   
    73. A(C  11,N   9,H  14)          100.83 -0.000014    0.02    100.86   
    74. A(C  11,N   9,C  20)          119.56 -0.000004    0.00    119.56   
    75. A(H  14,H  10,O  22)          156.43 -0.000016   -0.00    156.43   
    76. A(H  14,H  10,N  15)           24.78 -0.000009    0.00     24.78   
    77. A(H  12,C  11,C  24)          108.72  0.000001    0.01    108.72   
    78. A(N   9,C  11,C  24)          110.64 -0.000001    0.01    110.65   
    79. A(N   9,C  11,H  13)          111.72  0.000001   -0.01    111.71   
    80. A(H  13,C  11,C  24)          109.81  0.000030   -0.02    109.79   
    81. A(H  12,C  11,H  13)          108.64 -0.000009    0.00    108.64   
    82. A(N   9,C  11,H  12)          107.22 -0.000023    0.01    107.23   
    83. A(H  10,H  14,N  15)           47.15 -0.000006    0.01     47.16   
    84. A(N   9,H  14,H  25)           74.97 -0.000002   -0.06     74.92   
    85. A(H   7,H  14,H  25)          134.42  0.000001   -0.01    134.40   
    86. A(N  15,H  14,H  25)          104.27 -0.000076    0.09    104.36   
    87. A(N   9,H  14,H  10)          131.50 -0.000078    0.01    131.51   
    88. A(H   7,H  14,H  10)          154.81  0.000072   -0.05    154.76   
    89. A(H   7,H  14,N   9)           73.02  0.000012    0.03     73.05   
    90. A(H   7,H  14,N  15)          108.27  0.000074   -0.05    108.21   
    91. A(H  10,H  14,H  25)           67.32 -0.000075    0.08     67.40   
    92. A(C  17,N  15,H  23)          109.82  0.000003    0.01    109.83   
    93. A(H  14,N  15,H  23)          107.90  0.000027   -0.01    107.89   
    94. A(H  10,N  15,H  23)          112.27 -0.000009    0.00    112.27   
    95. A(H  10,N  15,C  17)          108.41 -0.000022    0.04    108.44   
    96. A(H  10,N  15,H  14)          108.06  0.000015   -0.01    108.06   
    97. A(H  14,N  15,C  17)          110.37 -0.000013   -0.03    110.34   
    98. A(H  18,C  17,H  19)          107.57 -0.000038   -0.00    107.56   
    99. A(H  19,C  17,C  27)          109.58  0.000025    0.01    109.59   
   100. A(N  15,C  17,H  19)          107.26  0.000034    0.01    107.27   
   101. A(H  18,C  17,C  27)          109.34  0.000174   -0.04    109.30   
   102. A(N  15,C  17,C  27)          110.38 -0.000214    0.06    110.44   
   103. A(N  15,C  17,H  18)          112.62  0.000020   -0.03    112.59   
   104. A(H   7,H  18,C  17)          111.61 -0.000014    0.02    111.63   
   105. A(N   9,C  20,H  21)          121.17  0.000004    0.01    121.17   
   106. A(C   2,C  20,H  21)          115.08 -0.000015    0.01    115.09   
   107. A(C   2,C  20,N   9)          123.75  0.000011   -0.02    123.73   
   108. A(H  10,O  22,H  16)          105.54  0.000142   -0.03    105.51   
   109. A(H  26,C  24,C  33)          109.82  0.000010   -0.01    109.81   
   110. A(H  25,C  24,C  33)          109.26 -0.000071    0.03    109.28   
   111. A(C  11,C  24,C  33)          111.57  0.000053   -0.01    111.56   
   112. A(H  25,C  24,H  26)          108.26 -0.000002    0.01    108.26   
   113. A(C  11,C  24,H  26)          108.96  0.000004   -0.02    108.94   
   114. A(C  11,C  24,H  25)          108.91  0.000004    0.01    108.92   
   115. A(H  14,H  25,C  24)          111.54  0.000044   -0.10    111.45   
   116. A(H  29,C  27,C  30)          109.60 -0.000019    0.00    109.61   
   117. A(H  28,C  27,C  30)          109.43 -0.000021    0.00    109.43   
   118. A(C  17,C  27,C  30)          112.10  0.000074   -0.01    112.09   
   119. A(H  28,C  27,H  29)          107.87  0.000011    0.00    107.87   
   120. A(C  17,C  27,H  29)          108.61 -0.000031    0.01    108.62   
   121. A(C  17,C  27,H  28)          109.12 -0.000016   -0.00    109.12   
   122. A(H  32,C  30,C  38)          109.40  0.000029    0.00    109.41   
   123. A(H  31,C  30,C  38)          109.46  0.000031   -0.01    109.45   
   124. A(C  27,C  30,C  38)          111.71 -0.000159    0.03    111.74   
   125. A(H  31,C  30,H  32)          107.66 -0.000016   -0.01    107.65   
   126. A(C  27,C  30,H  32)          109.12  0.000040   -0.00    109.12   
   127. A(C  27,C  30,H  31)          109.40  0.000079   -0.02    109.38   
   128. A(H  34,C  33,H  35)          107.89 -0.000001   -0.00    107.88   
   129. A(C  24,C  33,H  35)          109.57  0.000018   -0.01    109.56   
   130. A(C  24,C  33,H  34)          109.03  0.000012    0.00    109.04   
   131. A(H  35,C  33,C  42)          109.58  0.000027   -0.01    109.57   
   132. A(H  34,C  33,C  42)          109.24 -0.000015    0.01    109.25   
   133. A(C  24,C  33,C  42)          111.45 -0.000040    0.01    111.46   
   134. A(C  30,C  38,H  41)          110.41 -0.000088    0.02    110.42   
   135. A(H  39,C  38,H  40)          108.37 -0.000062    0.01    108.39   
   136. A(C  30,C  38,H  40)          110.63  0.000065   -0.01    110.62   
   137. A(C  30,C  38,H  39)          110.56  0.000051   -0.01    110.55   
   138. A(H  40,C  38,H  41)          108.35  0.000008   -0.00    108.35   
   139. A(H  39,C  38,H  41)          108.45  0.000024   -0.01    108.44   
   140. A(H  44,C  42,H  45)          108.46 -0.000013   -0.00    108.46   
   141. A(H  43,C  42,H  45)          108.51 -0.000015    0.00    108.52   
   142. A(C  33,C  42,H  45)          110.69  0.000025   -0.01    110.68   
   143. A(H  43,C  42,H  44)          108.43 -0.000018    0.01    108.43   
   144. A(C  33,C  42,H  44)          110.49  0.000019   -0.00    110.49   
   145. A(C  33,C  42,H  43)          110.19  0.000001    0.00    110.19   
   146. D(C   2,C   1,C   0,H  37)    179.99 -0.000012    0.02    180.02   
   147. D(H   6,C   1,C   0,C   5)   -179.95  0.000013   -0.02   -179.97   
   148. D(H   6,C   1,C   0,H  37)     -0.01 -0.000001    0.00     -0.01   
   149. D(C   2,C   1,C   0,C   5)      0.06  0.000001    0.00      0.06   
   150. D(C  20,C   2,C   1,H   6)     -0.00  0.000032   -0.07     -0.07   
   151. D(C  20,C   2,C   1,C   0)    179.99  0.000044   -0.09    179.90   
   152. D(C   3,C   2,C   1,C   0)      0.11  0.000022   -0.04      0.07   
   153. D(C   3,C   2,C   1,H   6)   -179.88  0.000011   -0.02   -179.90   
   154. D(H   7,C   3,C   2,C  20)     -0.14 -0.000031    0.08     -0.06   
   155. D(C   4,C   3,C   2,C   1)     -0.19 -0.000029    0.05     -0.14   
   156. D(H   7,C   3,C   2,C   1)    179.74 -0.000009    0.03    179.77   
   157. D(C   4,C   3,C   2,C  20)    179.93 -0.000050    0.10    180.03   
   158. D(H  36,C   4,C   3,C   2)   -179.91  0.000020   -0.03   -179.94   
   159. D(H  36,C   4,C   3,H   7)      0.16  0.000000   -0.01      0.15   
   160. D(C   5,C   4,C   3,C   2)      0.10  0.000012   -0.01      0.09   
   161. D(C   5,C   4,C   3,H   7)   -179.83 -0.000008    0.01   -179.82   
   162. D(H   8,C   5,C   4,C   3)   -179.96  0.000013   -0.03   -179.99   
   163. D(H   8,C   5,C   0,C   1)    179.88 -0.000020    0.04    179.91   
   164. D(C   0,C   5,C   4,H  36)   -179.92  0.000004   -0.01   -179.93   
   165. D(H   8,C   5,C   4,H  36)      0.05  0.000005   -0.01      0.04   
   166. D(H   8,C   5,C   0,H  37)     -0.05 -0.000006    0.01     -0.04   
   167. D(C   0,C   5,C   4,C   3)      0.08  0.000012   -0.03      0.05   
   168. D(C   4,C   5,C   0,C   1)     -0.15 -0.000019    0.03     -0.12   
   169. D(C   4,C   5,C   0,H  37)    179.91 -0.000005    0.01    179.92   
   170. D(H  18,H   7,C   3,C   4)    -69.14 -0.000026    0.02    -69.12   
   171. D(H  14,H   7,C   3,C   2)      1.36  0.000012   -0.02      1.34   
   172. D(H  18,H   7,C   3,C   2)    110.93 -0.000046    0.03    110.96   
   173. D(H  14,H   7,C   3,C   4)   -178.71  0.000031   -0.03   -178.75   
   174. D(H  12,C  11,N   9,H  14)     57.83  0.000036   -0.13     57.70   
   175. D(H  12,C  11,N   9,C  20)   -122.82  0.000027   -0.11   -122.93   
   176. D(H  13,C  11,N   9,C  20)     -3.90  0.000002   -0.11     -4.01   
   177. D(C  24,C  11,N   9,H  14)    -60.57  0.000049   -0.15    -60.72   
   178. D(C  24,C  11,N   9,C  20)    118.77  0.000040   -0.13    118.64   
   179. D(H  13,C  11,N   9,H  14)    176.75  0.000011   -0.13    176.63   
   180. D(H  25,H  14,H  10,O  22)    -50.84 -0.000012    0.68    -50.15   
   181. D(N   9,H  14,H  10,N  15)   -179.39 -0.000027    0.04   -179.35   
   182. D(N   9,H  14,H  10,O  22)     -8.98 -0.000025    0.68     -8.30   
   183. D(H   7,H  14,H  10,N  15)    -14.61  0.000036   -0.04    -14.64   
   184. D(H   7,H  14,H  10,O  22)    155.80  0.000038    0.60    156.40   
   185. D(N  15,H  14,H  10,O  22)    170.41  0.000002    0.64    171.05   
   186. D(H  10,H  14,N   9,C  20)    174.37  0.000023    0.00    174.37   
   187. D(H  10,H  14,N   9,C  11)     -6.51  0.000011    0.03     -6.48   
   188. D(H  25,H  14,N   9,C  11)     33.09 -0.000028    0.06     33.16   
   189. D(H   7,H  14,N   9,C  20)      1.08 -0.000023    0.04      1.12   
   190. D(H  25,H  14,N   9,C  20)   -146.02 -0.000016    0.03   -145.99   
   191. D(H   7,H  14,N   9,C  11)   -179.80 -0.000035    0.07   -179.73   
   192. D(H  10,H  14,H   7,H  18)     53.60 -0.000037    0.06     53.66   
   193. D(H  10,H  14,H   7,C   3)   -169.71 -0.000024    0.02   -169.69   
   194. D(H  25,H  14,H   7,H  18)    -91.01  0.000011   -0.04    -91.05   
   195. D(N   9,H  14,H   7,H  18)   -138.26 -0.000002    0.01   -138.26   
   196. D(H  25,H  14,H   7,C   3)     45.68  0.000024   -0.08     45.60   
   197. D(N  15,H  14,H   7,H  18)     42.37 -0.000013    0.04     42.41   
   198. D(N   9,H  14,H   7,C   3)     -1.57  0.000011   -0.03     -1.60   
   199. D(H  25,H  14,H  10,N  15)    138.75 -0.000013    0.04    138.80   
   200. D(N  15,H  14,H   7,C   3)    179.06 -0.000001   -0.01    179.06   
   201. D(C  17,N  15,H  10,H  14)   -119.63  0.000020    0.02   -119.61   
   202. D(H  10,N  15,N   9,C  20)    174.45  0.000013    0.01    174.46   
   203. D(H  10,N  15,N   9,C  11)     -6.16 -0.000004    0.05     -6.11   
   204. D(H  23,N  15,N   9,C  20)     53.24  0.000009    0.02     53.26   
   205. D(H  23,N  15,N   9,C  11)   -127.38 -0.000008    0.06   -127.31   
   206. D(C  17,N  15,N   9,C  20)    -67.31 -0.000038    0.05    -67.26   
   207. D(H  23,N  15,H  10,H  14)    118.87  0.000038   -0.02    118.86   
   208. D(C  17,N  15,N   9,C  11)    112.08 -0.000055    0.09    112.17   
   209. D(H  10,N  15,H  14,H   7)    173.51  0.000030   -0.03    173.48   
   210. D(H  23,N  15,H  14,H  10)   -121.61 -0.000013    0.01   -121.61   
   211. D(H  23,N  15,H  14,H  25)   -160.49  0.000015    0.00   -160.49   
   212. D(H  23,N  15,H  14,H   7)     51.90  0.000017   -0.02     51.88   
   213. D(C  17,N  15,H  14,H  10)    118.38 -0.000025    0.02    118.41   
   214. D(C  17,N  15,H  14,H  25)     79.50  0.000003    0.02     79.53   
   215. D(H  10,N  15,H  14,H  25)    -38.88  0.000029   -0.00    -38.88   
   216. D(C  17,N  15,H  14,H   7)    -68.11  0.000005   -0.00    -68.11   
   217. D(C  27,C  17,N  15,H  10)    -59.54  0.000063   -0.04    -59.58   
   218. D(C  27,C  17,N  15,H  14)   -177.71  0.000066   -0.04   -177.75   
   219. D(H  19,C  17,N  15,H  10)     59.78 -0.000007    0.00     59.79   
   220. D(H  19,C  17,N  15,H  23)   -177.23 -0.000030    0.04   -177.19   
   221. D(C  27,C  17,N  15,H  23)     63.45  0.000040   -0.01     63.44   
   222. D(H  19,C  17,N  15,H  14)    -58.39 -0.000004    0.01    -58.38   
   223. D(H  18,C  17,N  15,H  23)    -59.07 -0.000044    0.02    -59.05   
   224. D(H  18,C  17,N  15,H  14)     59.77 -0.000017   -0.01     59.76   
   225. D(H  18,C  17,N  15,H  10)    177.94 -0.000020   -0.01    177.93   
   226. D(H   7,H  18,C  17,C  27)   -138.81  0.000099    0.01   -138.80   
   227. D(H   7,H  18,C  17,H  19)    102.27 -0.000006    0.02    102.29   
   228. D(H   7,H  18,C  17,N  15)    -15.71 -0.000036    0.03    -15.68   
   229. D(C  17,H  18,H   7,H  14)     -8.29  0.000031   -0.04     -8.33   
   230. D(C  17,H  18,H   7,C   3)   -147.82  0.000097   -0.12   -147.94   
   231. D(H  21,C  20,N   9,H  14)    179.76 -0.000002    0.02    179.78   
   232. D(H  21,C  20,N   9,C  11)      0.75  0.000012   -0.02      0.74   
   233. D(C   2,C  20,N   9,H  14)     -0.76  0.000015   -0.01     -0.77   
   234. D(C   2,C  20,N   9,C  11)   -179.77  0.000028   -0.04   -179.81   
   235. D(H  21,C  20,C   2,C   3)    179.36  0.000036   -0.09    179.27   
   236. D(H  21,C  20,C   2,C   1)     -0.52  0.000014   -0.04     -0.56   
   237. D(N   9,C  20,C   2,C   3)     -0.15  0.000021   -0.07     -0.22   
   238. D(N   9,C  20,C   2,C   1)    179.97 -0.000001   -0.02    179.95   
   239. D(H  16,O  22,N  15,H  23)     -1.10 -0.000028    0.59     -0.51   
   240. D(H  16,O  22,N  15,C  17)    120.08 -0.000040    0.63    120.71   
   241. D(H  16,O  22,N  15,H  14)   -119.45 -0.000062    0.56   -118.88   
   242. D(H  16,O  22,H  10,H  14)   -111.24 -0.000070    0.03   -111.21   
   243. D(C  33,C  24,C  11,H  13)    -55.04 -0.000043    0.09    -54.95   
   244. D(C  33,C  24,C  11,H  12)     63.69 -0.000037    0.08     63.77   
   245. D(C  33,C  24,C  11,N   9)   -178.82 -0.000065    0.11   -178.72   
   246. D(H  26,C  24,C  11,H  13)     66.38  0.000006    0.05     66.44   
   247. D(H  26,C  24,C  11,H  12)   -174.88  0.000013    0.05   -174.83   
   248. D(H  26,C  24,C  11,N   9)    -57.40 -0.000015    0.07    -57.32   
   249. D(H  25,C  24,C  11,H  13)   -175.73  0.000009    0.06   -175.67   
   250. D(H  25,C  24,C  11,H  12)    -56.99  0.000015    0.05    -56.94   
   251. D(H  25,C  24,C  11,N   9)     60.49 -0.000013    0.08     60.57   
   252. D(H  14,H  25,C  24,C  33)   -146.88 -0.000040    0.01   -146.86   
   253. D(H  14,H  25,C  24,H  26)     93.55 -0.000010    0.01     93.56   
   254. D(H  14,H  25,C  24,C  11)    -24.78 -0.000017    0.02    -24.76   
   255. D(C  24,H  25,H  14,H  10)    144.05 -0.000010   -0.05    144.00   
   256. D(C  24,H  25,H  14,N   9)     -4.79  0.000023   -0.05     -4.84   
   257. D(C  24,H  25,H  14,H   7)    -51.44  0.000005   -0.03    -51.48   
   258. D(C  24,H  25,H  14,N  15)    173.97 -0.000015   -0.06    173.91   
   259. D(C  30,C  27,C  17,H  19)     59.78  0.000032    0.04     59.82   
   260. D(C  30,C  27,C  17,H  18)    -57.89 -0.000039    0.07    -57.82   
   261. D(C  30,C  27,C  17,N  15)    177.69 -0.000040    0.09    177.78   
   262. D(H  29,C  27,C  17,H  19)    -61.48  0.000030    0.04    -61.44   
   263. D(H  29,C  27,C  17,H  18)   -179.15 -0.000041    0.06   -179.08   
   264. D(H  29,C  27,C  17,N  15)     56.43 -0.000041    0.09     56.52   
   265. D(H  28,C  27,C  17,H  19)   -178.83  0.000043    0.03   -178.80   
   266. D(H  28,C  27,C  17,H  18)     63.50 -0.000028    0.06     63.56   
   267. D(H  28,C  27,C  17,N  15)    -60.92 -0.000028    0.08    -60.84   
   268. D(H  32,C  30,C  27,H  28)   -179.76 -0.000034    0.01   -179.75   
   269. D(H  32,C  30,C  27,C  17)    -58.55 -0.000020   -0.00    -58.55   
   270. D(H  31,C  30,C  27,H  29)    179.69  0.000025   -0.02    179.66   
   271. D(H  31,C  30,C  27,H  28)    -62.21  0.000015   -0.02    -62.23   
   272. D(H  31,C  30,C  27,C  17)     59.00  0.000029   -0.03     58.97   
   273. D(C  38,C  30,C  27,H  29)    -58.96  0.000014   -0.02    -58.98   
   274. D(C  38,C  30,C  27,H  28)     59.14  0.000004   -0.02     59.12   
   275. D(C  38,C  30,C  27,C  17)   -179.65  0.000018   -0.03   -179.67   
   276. D(H  32,C  30,C  27,H  29)     62.14 -0.000024    0.00     62.14   
   277. D(C  42,C  33,C  24,H  26)     61.25  0.000016   -0.12     61.12   
   278. D(C  42,C  33,C  24,H  25)    -57.35  0.000054   -0.14    -57.49   
   279. D(C  42,C  33,C  24,C  11)   -177.83  0.000063   -0.16   -177.99   
   280. D(H  35,C  33,C  24,H  26)    -60.21 -0.000004   -0.11    -60.32   
   281. D(H  35,C  33,C  24,H  25)   -178.81  0.000034   -0.12   -178.94   
   282. D(H  35,C  33,C  24,C  11)     60.71  0.000043   -0.14     60.57   
   283. D(H  34,C  33,C  24,H  26)   -178.09 -0.000021   -0.10   -178.19   
   284. D(H  34,C  33,C  24,H  25)     63.31  0.000018   -0.12     63.20   
   285. D(H  34,C  33,C  24,C  11)    -57.16  0.000026   -0.14    -57.30   
   286. D(H  41,C  38,C  30,H  32)    -60.84  0.000021   -0.05    -60.89   
   287. D(H  41,C  38,C  30,H  31)   -178.59  0.000005   -0.04   -178.63   
   288. D(H  41,C  38,C  30,C  27)     60.10 -0.000011   -0.03     60.06   
   289. D(H  40,C  38,C  30,H  32)    179.23  0.000026   -0.06    179.17   
   290. D(H  40,C  38,C  30,H  31)     61.48  0.000010   -0.04     61.44   
   291. D(H  40,C  38,C  30,C  27)    -59.84 -0.000006   -0.03    -59.87   
   292. D(H  39,C  38,C  30,H  32)     59.17  0.000028   -0.06     59.11   
   293. D(H  39,C  38,C  30,H  31)    -58.58  0.000012   -0.04    -58.62   
   294. D(H  39,C  38,C  30,C  27)   -179.90 -0.000004   -0.04   -179.93   
   295. D(H  45,C  42,C  33,H  35)     61.85 -0.000003    0.05     61.90   
   296. D(H  45,C  42,C  33,H  34)    179.85  0.000003    0.04    179.89   
   297. D(H  45,C  42,C  33,C  24)    -59.60 -0.000017    0.06    -59.54   
   298. D(H  44,C  42,C  33,H  35)    -58.31 -0.000015    0.05    -58.26   
   299. D(H  44,C  42,C  33,H  34)     59.69 -0.000009    0.05     59.74   
   300. D(H  44,C  42,C  33,C  24)   -179.76 -0.000030    0.07   -179.70   
   301. D(H  43,C  42,C  33,H  35)   -178.12 -0.000006    0.05   -178.07   
   302. D(H  43,C  42,C  33,H  34)    -60.12  0.000001    0.04    -60.07   
   303. D(H  43,C  42,C  33,C  24)     60.43 -0.000020    0.06     60.49   
    ----------------------------------------------------------------------------

         *************************************************************
         *                GEOMETRY OPTIMIZATION CYCLE   2            *
         *************************************************************
      -----------------------------------------------------------      
     |                   =====================                   |     
     |                           x T B                           |     
     |                   =====================                   |     
     |                         S. Grimme                         |     
     |          Mulliken Center for Theoretical Chemistry        |     
     |                    University of Bonn                     |     
      -----------------------------------------------------------      

   * xtb version 6.3.0 (49875a8) compiled by 'schneider@apollo14' on 2020-05-23

   xtb is free software: you can redistribute it and/or modify it under
   the terms of the GNU Lesser General Public License as published by
   the Free Software Foundation, either version 3 of the License, or
   (at your option) any later version.
   
   xtb is distributed in the hope that it will be useful,
   but WITHOUT ANY WARRANTY; without even the implied warranty of
   MERCHANTABILITY or FITNESS FOR A PARTICULAR PURPOSE.  See the
   GNU Lesser General Public License for more details.
   
   Cite this work as:
   * S. Grimme, C. Bannwarth, P. Shushkov, J. Chem. Theory Comput., 2017,
     13, 1989-2009. DOI: 10.1021/acs.jctc.7b00118
   * C. Bannwarth, S. Ehlert and S. Grimme., J. Chem. Theory Comput., 2019,
     15, 1652-1671. DOI: 10.1021/acs.jctc.8b01176
   * P. Pracht, E. Caldeweyher, S. Ehlert, S. Grimme, ChemRxiv, 2019, preprint.
     DOI: 10.26434/chemrxiv.8326202.v1
   
   for GFN-FF:
   * S. Spicher and S. Grimme, Angew. Chem. Int. Ed., 2020,
     DOI: 10.1002/anie.202004239
   
   for DFT-D4:
   * E. Caldeweyher, C. Bannwarth and S. Grimme, J. Chem. Phys., 2017,
     147, 034112. DOI: 10.1063/1.4993215
   * E. Caldeweyher, S. Ehlert, A. Hansen, H. Neugebauer, S. Spicher,
     C. Bannwarth and S. Grimme, J. Chem. Phys., 2019, 150, 154122.
     DOI: 10.1063/1.5090222
   
   for sTDA-xTB:
   * S. Grimme and C. Bannwarth, J. Chem. Phys., 2016, 145, 054103.
     DOI: 10.1063/1.4959605
   
   in the mass-spec context:
   * V. Asgeirsson, C. Bauer and S. Grimme, Chem. Sci., 2017, 8, 4879.
     DOI: 10.1039/c7sc00601b
   * J. Koopman and S. Grimme, ACS Omega 2019, 4, 12, 15120-15133.
     DOI: 10.1021/acsomega.9b02011
   
   for metadynamics refer to:
   * S. Grimme, J. Chem. Theory Comput., 2019, 155, 2847-2862
     DOI: 10.1021/acs.jctc.9b00143
   
   with help from (in alphabetical order)
   C. Bannwarth, F. Bohle, G. Brandenburg, E. Caldeweyher, M. Checinski,
   S. Dohm, S. Ehlert, S. Ehrlich, F. März, H. Neugebauer, J. Pisarek,
   P. Pracht, P. Shushkov, and S. Spicher.
   
 * started run on 2020/06/24 at 11:14:21.649     

           -------------------------------------------------
          |                Calculation Setup                |
[...]
  13:        52.58    0.000000  (  0.000000   0.000000   0.000000)
  14:        62.21    0.000000  (  0.000000   0.000000   0.000000)
  15:        63.41    0.000000  (  0.000000   0.000000   0.000000)
  16:        80.05    0.000000  (  0.000000   0.000000   0.000000)
  17:        86.42    0.000000  (  0.000000   0.000000   0.000000)
  18:        95.81    0.000000  (  0.000000   0.000000   0.000000)
  19:       108.75    0.000000  (  0.000000   0.000000   0.000000)
  20:       123.45    0.000000  (  0.000000   0.000000   0.000000)
  21:       128.60    0.000000  (  0.000000   0.000000   0.000000)
  22:       150.51    0.000000  (  0.000000   0.000000   0.000000)
  23:       189.16    0.000000  (  0.000000   0.000000   0.000000)
  24:       211.56    0.000000  (  0.000000   0.000000   0.000000)
  25:       235.07    0.000000  (  0.000000   0.000000   0.000000)
  26:       240.66    0.000000  (  0.000000   0.000000   0.000000)
  27:       253.04    0.000000  (  0.000000   0.000000   0.000000)
  28:       268.29    0.000000  (  0.000000   0.000000   0.000000)
  29:       284.56    0.000000  (  0.000000   0.000000   0.000000)
  30:       366.99    0.000000  (  0.000000   0.000000   0.000000)
  31:       379.56    0.000000  (  0.000000   0.000000   0.000000)
  32:       397.11    0.000000  (  0.000000   0.000000   0.000000)
  33:       400.78    0.000000  (  0.000000   0.000000   0.000000)
  34:       425.14    0.000000  (  0.000000   0.000000   0.000000)
  35:       429.57    0.000000  (  0.000000   0.000000   0.000000)
  36:       462.43    0.000000  (  0.000000   0.000000   0.000000)
  37:       485.22    0.000000  (  0.000000   0.000000   0.000000)
  38:       505.51    0.000000  (  0.000000   0.000000   0.000000)
  39:       588.76    0.000000  (  0.000000   0.000000   0.000000)
  40:       624.70    0.000000  (  0.000000   0.000000   0.000000)
  41:       645.30    0.000000  (  0.000000   0.000000   0.000000)
  42:       660.74    0.000000  (  0.000000   0.000000   0.000000)
  43:       749.97    0.000000  (  0.000000   0.000000   0.000000)
  44:       777.86    0.000000  (  0.000000   0.000000   0.000000)
  45:       781.10    0.000000  (  0.000000   0.000000   0.000000)
  46:       831.10    0.000000  (  0.000000   0.000000   0.000000)
  47:       834.69    0.000000  (  0.000000   0.000000   0.000000)
  48:       864.55    0.000000  (  0.000000   0.000000   0.000000)
  49:       870.30    0.000000  (  0.000000   0.000000   0.000000)
  50:       901.68    0.000000  (  0.000000   0.000000   0.000000)
  51:       922.19    0.000000  (  0.000000   0.000000   0.000000)
  52:       927.79    0.000000  (  0.000000   0.000000   0.000000)
  53:       932.31    0.000000  (  0.000000   0.000000   0.000000)
  54:       932.53    0.000000  (  0.000000   0.000000   0.000000)
  55:       939.16    0.000000  (  0.000000   0.000000   0.000000)
  56:       947.65    0.000000  (  0.000000   0.000000   0.000000)
  57:       957.18    0.000000  (  0.000000   0.000000   0.000000)
  58:       990.87    0.000000  (  0.000000   0.000000   0.000000)
  59:      1002.56    0.000000  (  0.000000   0.000000   0.000000)
  60:      1022.31    0.000000  (  0.000000   0.000000   0.000000)
  61:      1049.19    0.000000  (  0.000000   0.000000   0.000000)
  62:      1075.03    0.000000  (  0.000000   0.000000   0.000000)
  63:      1077.47    0.000000  (  0.000000   0.000000   0.000000)
  64:      1079.89    0.000000  (  0.000000   0.000000   0.000000)
  65:      1102.10    0.000000  (  0.000000   0.000000   0.000000)
  66:      1108.56    0.000000  (  0.000000   0.000000   0.000000)
  67:      1116.65    0.000000  (  0.000000   0.000000   0.000000)
  68:      1124.39    0.000000  (  0.000000   0.000000   0.000000)
  69:      1128.00    0.000000  (  0.000000   0.000000   0.000000)
  70:      1157.66    0.000000  (  0.000000   0.000000   0.000000)
  71:      1161.75    0.000000  (  0.000000   0.000000   0.000000)
  72:      1177.58    0.000000  (  0.000000   0.000000   0.000000)
  73:      1186.56    0.000000  (  0.000000   0.000000   0.000000)
  74:      1204.49    0.000000  (  0.000000   0.000000   0.000000)
  75:      1218.18    0.000000  (  0.000000   0.000000   0.000000)
  76:      1238.94    0.000000  (  0.000000   0.000000   0.000000)
  77:      1242.61    0.000000  (  0.000000   0.000000   0.000000)
  78:      1258.81    0.000000  (  0.000000   0.000000   0.000000)
  79:      1271.78    0.000000  (  0.000000   0.000000   0.000000)
  80:      1276.53    0.000000  (  0.000000   0.000000   0.000000)
  81:      1277.90    0.000000  (  0.000000   0.000000   0.000000)
  82:      1280.86    0.000000  (  0.000000   0.000000   0.000000)
  83:      1283.90    0.000000  (  0.000000   0.000000   0.000000)
  84:      1295.83    0.000000  (  0.000000   0.000000   0.000000)
  85:      1321.58    0.000000  (  0.000000   0.000000   0.000000)
  86:      1332.58    0.000000  (  0.000000   0.000000   0.000000)
  87:      1353.42    0.000000  (  0.000000   0.000000   0.000000)
  88:      1361.38    0.000000  (  0.000000   0.000000   0.000000)
  89:      1369.79    0.000000  (  0.000000   0.000000   0.000000)
  90:      1377.66    0.000000  (  0.000000   0.000000   0.000000)
  91:      1412.45    0.000000  (  0.000000   0.000000   0.000000)
  92:      1413.17    0.000000  (  0.000000   0.000000   0.000000)
  93:      1433.89    0.000000  (  0.000000   0.000000   0.000000)
  94:      1465.48    0.000000  (  0.000000   0.000000   0.000000)
  95:      1468.27    0.000000  (  0.000000   0.000000   0.000000)
  96:      1486.63    0.000000  (  0.000000   0.000000   0.000000)
  97:      1490.26    0.000000  (  0.000000   0.000000   0.000000)
  98:      1490.57    0.000000  (  0.000000   0.000000   0.000000)
  99:      1493.10    0.000000  (  0.000000   0.000000   0.000000)
 100:      1496.48    0.000000  (  0.000000   0.000000   0.000000)
 101:      1499.25    0.000000  (  0.000000   0.000000   0.000000)
 102:      1500.23    0.000000  (  0.000000   0.000000   0.000000)
 103:      1503.34    0.000000  (  0.000000   0.000000   0.000000)
 104:      1503.39    0.000000  (  0.000000   0.000000   0.000000)
 105:      1543.41    0.000000  (  0.000000   0.000000   0.000000)
 106:      1554.89    0.000000  (  0.000000   0.000000   0.000000)
 107:      1579.57    0.000000  (  0.000000   0.000000   0.000000)
 108:      1591.23    0.000000  (  0.000000   0.000000   0.000000)
 109:      1694.45    0.000000  (  0.000000   0.000000   0.000000)
 110:      2813.22    0.000000  (  0.000000   0.000000   0.000000)
 111:      2827.07    0.000000  (  0.000000   0.000000   0.000000)
 112:      2839.55    0.000000  (  0.000000   0.000000   0.000000)
 113:      2935.96    0.000000  (  0.000000   0.000000   0.000000)
 114:      2953.82    0.000000  (  0.000000   0.000000   0.000000)
 115:      2957.45    0.000000  (  0.000000   0.000000   0.000000)
 116:      2961.86    0.000000  (  0.000000   0.000000   0.000000)
 117:      2965.34    0.000000  (  0.000000   0.000000   0.000000)
 118:      2967.02    0.000000  (  0.000000   0.000000   0.000000)
 119:      2978.30    0.000000  (  0.000000   0.000000   0.000000)
 120:      2983.15    0.000000  (  0.000000   0.000000   0.000000)
 121:      2991.06    0.000000  (  0.000000   0.000000   0.000000)
 122:      3007.82    0.000000  (  0.000000   0.000000   0.000000)
 123:      3024.92    0.000000  (  0.000000   0.000000   0.000000)
 124:      3025.40    0.000000  (  0.000000   0.000000   0.000000)
 125:      3028.71    0.000000  (  0.000000   0.000000   0.000000)
 126:      3031.92    0.000000  (  0.000000   0.000000   0.000000)
 127:      3034.96    0.000000  (  0.000000   0.000000   0.000000)
 128:      3037.64    0.000000  (  0.000000   0.000000   0.000000)
 129:      3067.82    0.000000  (  0.000000   0.000000   0.000000)
 130:      3070.87    0.000000  (  0.000000   0.000000   0.000000)
 131:      3075.94    0.000000  (  0.000000   0.000000   0.000000)
 132:      3081.01    0.000000  (  0.000000   0.000000   0.000000)
 133:      3091.78    0.000000  (  0.000000   0.000000   0.000000)
 134:      3124.75    0.000000  (  0.000000   0.000000   0.000000)
 135:      3282.54    0.000000  (  0.000000   0.000000   0.000000)
 136:      3386.12    0.000000  (  0.000000   0.000000   0.000000)
 137:      3641.50    0.000000  (  0.000000   0.000000   0.000000)

The first frequency considered to be a vibration is 6
The total number of vibrations considered is 132


--------------------------
THERMOCHEMISTRY AT 298.15K
--------------------------

Temperature         ... 298.15 K
Pressure            ... 1.00 atm
Total Mass          ... 252.40 AMU

Throughout the following assumptions are being made:
  (1) The electronic state is orbitally nondegenerate
  (2) There are no thermally accessible electronically excited states
  (3) Hindered rotations indicated by low frequency modes are not
      treated as such but are treated as vibrations and this may
      cause some error
  (4) All equations used are the standard statistical mechanics
      equations for an ideal gas
  (5) All vibrations are strictly harmonic

freq.      10.84  E(vib)   ...       0.58 
freq.      16.87  E(vib)   ...       0.57 
freq.      24.12  E(vib)   ...       0.56 
freq.      31.86  E(vib)   ...       0.55 
freq.      40.43  E(vib)   ...       0.54 
freq.      43.80  E(vib)   ...       0.53 
freq.      47.38  E(vib)   ...       0.53 
freq.      52.58  E(vib)   ...       0.52 
freq.      62.21  E(vib)   ...       0.51 
freq.      63.41  E(vib)   ...       0.51 
freq.      80.05  E(vib)   ...       0.49 
freq.      86.42  E(vib)   ...       0.48 
freq.      95.81  E(vib)   ...       0.47 
freq.     108.75  E(vib)   ...       0.45 
freq.     123.45  E(vib)   ...       0.43 
freq.     128.60  E(vib)   ...       0.43 
freq.     150.51  E(vib)   ...       0.40 
freq.     189.16  E(vib)   ...       0.36 
freq.     211.56  E(vib)   ...       0.34 
freq.     235.07  E(vib)   ...       0.32 
freq.     240.66  E(vib)   ...       0.31 
freq.     253.04  E(vib)   ...       0.30 
freq.     268.29  E(vib)   ...       0.29 
freq.     284.56  E(vib)   ...       0.28 
freq.     366.99  E(vib)   ...       0.22 
freq.     379.56  E(vib)   ...       0.21 
freq.     397.11  E(vib)   ...       0.20 
freq.     400.78  E(vib)   ...       0.19 
freq.     425.14  E(vib)   ...       0.18 
freq.     429.57  E(vib)   ...       0.18 
freq.     462.43  E(vib)   ...       0.16 
freq.     485.22  E(vib)   ...       0.15 
freq.     505.51  E(vib)   ...       0.14 
freq.     588.76  E(vib)   ...       0.10 
freq.     624.70  E(vib)   ...       0.09 
freq.     645.30  E(vib)   ...       0.09 
freq.     660.74  E(vib)   ...       0.08 
freq.     749.97  E(vib)   ...       0.06 
freq.     777.86  E(vib)   ...       0.05 
freq.     781.10  E(vib)   ...       0.05 
freq.     831.10  E(vib)   ...       0.04 
freq.     834.69  E(vib)   ...       0.04 
freq.     864.55  E(vib)   ...       0.04 
freq.     870.30  E(vib)   ...       0.04 
freq.     901.68  E(vib)   ...       0.03 
freq.     922.19  E(vib)   ...       0.03 
freq.     927.79  E(vib)   ...       0.03 
freq.     932.31  E(vib)   ...       0.03 
freq.     932.53  E(vib)   ...       0.03 
freq.     939.16  E(vib)   ...       0.03 
freq.     947.65  E(vib)   ...       0.03 
freq.     957.18  E(vib)   ...       0.03 
freq.     990.87  E(vib)   ...       0.02 
freq.    1002.56  E(vib)   ...       0.02 
freq.    1022.31  E(vib)   ...       0.02 
freq.    1049.19  E(vib)   ...       0.02 
freq.    1075.03  E(vib)   ...       0.02 
freq.    1077.47  E(vib)   ...       0.02 
freq.    1079.89  E(vib)   ...       0.02 
freq.    1102.10  E(vib)   ...       0.02 
freq.    1108.56  E(vib)   ...       0.02 
freq.    1116.65  E(vib)   ...       0.01 
freq.    1124.39  E(vib)   ...       0.01 
freq.    1128.00  E(vib)   ...       0.01 
freq.    1157.66  E(vib)   ...       0.01 
freq.    1161.75  E(vib)   ...       0.01 
freq.    1177.58  E(vib)   ...       0.01 
freq.    1186.56  E(vib)   ...       0.01 
freq.    1204.49  E(vib)   ...       0.01 
freq.    1218.18  E(vib)   ...       0.01 
freq.    1238.94  E(vib)   ...       0.01 
freq.    1242.61  E(vib)   ...       0.01 
freq.    1258.81  E(vib)   ...       0.01 
freq.    1271.78  E(vib)   ...       0.01 
freq.    1276.53  E(vib)   ...       0.01 
freq.    1277.90  E(vib)   ...       0.01 
freq.    1280.86  E(vib)   ...       0.01 
freq.    1283.90  E(vib)   ...       0.01 
freq.    1295.83  E(vib)   ...       0.01 
freq.    1321.58  E(vib)   ...       0.01 
freq.    1332.58  E(vib)   ...       0.01 
freq.    1353.42  E(vib)   ...       0.01 
freq.    1361.38  E(vib)   ...       0.01 
freq.    1369.79  E(vib)   ...       0.01 
freq.    1377.66  E(vib)   ...       0.01 
freq.    1412.45  E(vib)   ...       0.00 
freq.    1413.17  E(vib)   ...       0.00 
freq.    1433.89  E(vib)   ...       0.00 
freq.    1465.48  E(vib)   ...       0.00 
freq.    1468.27  E(vib)   ...       0.00 
freq.    1486.63  E(vib)   ...       0.00 
freq.    1490.26  E(vib)   ...       0.00 
freq.    1490.57  E(vib)   ...       0.00 
freq.    1493.10  E(vib)   ...       0.00 
freq.    1496.48  E(vib)   ...       0.00 
freq.    1499.25  E(vib)   ...       0.00 
freq.    1500.23  E(vib)   ...       0.00 
freq.    1503.34  E(vib)   ...       0.00 
freq.    1503.39  E(vib)   ...       0.00 
freq.    1543.41  E(vib)   ...       0.00 
freq.    1554.89  E(vib)   ...       0.00 
freq.    1579.57  E(vib)   ...       0.00 
freq.    1591.23  E(vib)   ...       0.00 
freq.    1694.45  E(vib)   ...       0.00 
freq.    2813.22  E(vib)   ...       0.00 
freq.    2827.07  E(vib)   ...       0.00 
freq.    2839.55  E(vib)   ...       0.00 
freq.    2935.96  E(vib)   ...       0.00 
freq.    2953.82  E(vib)   ...       0.00 
freq.    2957.45  E(vib)   ...       0.00 
freq.    2961.86  E(vib)   ...       0.00 
freq.    2965.34  E(vib)   ...       0.00 
freq.    2967.02  E(vib)   ...       0.00 
freq.    2978.30  E(vib)   ...       0.00 
freq.    2983.15  E(vib)   ...       0.00 
freq.    2991.06  E(vib)   ...       0.00 
freq.    3007.82  E(vib)   ...       0.00 
freq.    3024.92  E(vib)   ...       0.00 
freq.    3025.40  E(vib)   ...       0.00 
freq.    3028.71  E(vib)   ...       0.00 
freq.    3031.92  E(vib)   ...       0.00 
freq.    3034.96  E(vib)   ...       0.00 
freq.    3037.64  E(vib)   ...       0.00 
freq.    3067.82  E(vib)   ...       0.00 
freq.    3070.87  E(vib)   ...       0.00 
freq.    3075.94  E(vib)   ...       0.00 
freq.    3081.01  E(vib)   ...       0.00 
freq.    3091.78  E(vib)   ...       0.00 
freq.    3124.75  E(vib)   ...       0.00 
freq.    3282.54  E(vib)   ...       0.00 
freq.    3386.12  E(vib)   ...       0.00 
freq.    3641.50  E(vib)   ...       0.00 

------------
INNER ENERGY
------------

The inner energy is: U= E(el) + E(ZPE) + E(vib) + E(rot) + E(trans)
    E(el)   - is the total energy from the electronic structure calculation
              = E(kin-el) + E(nuc-el) + E(el-el) + E(nuc-nuc)
    E(ZPE)  - the the zero temperature vibrational energy from the frequency calculation
    E(vib)  - the the finite temperature correction to E(ZPE) due to population
              of excited vibrational states
    E(rot)  - is the rotational thermal energy
    E(trans)- is the translational thermal energy

Summary of contributions to the inner energy U:
Electronic energy                ...    -56.29815909 Eh
Zero point energy                ...      0.40033260 Eh     251.21 kcal/mol
Thermal vibrational correction   ...      0.02186457 Eh      13.72 kcal/mol
Thermal rotational correction    ...      0.00141627 Eh       0.89 kcal/mol
Thermal translational correction ...      0.00141627 Eh       0.89 kcal/mol
-----------------------------------------------------------------------
Total thermal energy                    -55.87312938 Eh


Summary of corrections to the electronic energy:
(perhaps to be used in another calculation)
Total thermal correction                  0.02469711 Eh      15.50 kcal/mol
Non-thermal (ZPE) correction              0.40033260 Eh     251.21 kcal/mol
-----------------------------------------------------------------------
Total correction                          0.42502971 Eh     266.71 kcal/mol


--------
ENTHALPY
--------

The enthalpy is H = U + kB*T
                kB is Boltzmann's constant
Total free energy                 ...    -55.87312938 Eh 
Thermal Enthalpy correction       ...      0.00094421 Eh       0.59 kcal/mol
-----------------------------------------------------------------------
Total Enthalpy                    ...    -55.87218517 Eh


Note: Only C1 symmetry has been detected, increase convergence thresholds 
      if your molecule has a higher symmetry. Symmetry factor of 1.0 is   
      used for the rotational entropy correction. 
 

Note: Rotational entropy computed according to Herzberg 
Infrared and Raman Spectra, Chapter V,1, Van Nostrand Reinhold, 1945 
Point Group:  C1, Symmetry Number:   1  
Rotational constants in cm-1:     0.010650     0.006905     0.004578 

Vibrational entropy computed according to the QRRHO of S. Grimme
Chem.Eur.J. 2012 18 9955


-------
ENTROPY
-------

The entropy contributions are T*S = T*(S(el)+S(vib)+S(rot)+S(trans))
     S(el)   - electronic entropy
     S(vib)  - vibrational entropy
     S(rot)  - rotational entropy
     S(trans)- translational entropy
The entropies will be listed as mutliplied by the temperature to get
units of energy

Electronic entropy                ...      0.00000000 Eh      0.00 kcal/mol
Vibrational entropy               ...      0.04149190 Eh     26.04 kcal/mol
Rotational entropy                ...      0.01654695 Eh     10.38 kcal/mol
Translational entropy             ...      0.02018250 Eh     12.66 kcal/mol
-----------------------------------------------------------------------
Final entropy term                ...      0.07822134 Eh     49.08 kcal/mol

In case the symmetry of your molecule has not been determined correctly
or in case you have a reason to use a different symmetry number we print 
out the resulting rotational entropy values for sn=1,12 :
 --------------------------------------------------------
|  sn= 1 | S(rot)=       0.01654695 Eh     10.38 kcal/mol|
|  sn= 2 | S(rot)=       0.01589249 Eh      9.97 kcal/mol|
|  sn= 3 | S(rot)=       0.01550966 Eh      9.73 kcal/mol|
|  sn= 4 | S(rot)=       0.01523803 Eh      9.56 kcal/mol|
|  sn= 5 | S(rot)=       0.01502735 Eh      9.43 kcal/mol|
|  sn= 6 | S(rot)=       0.01485520 Eh      9.32 kcal/mol|
|  sn= 7 | S(rot)=       0.01470966 Eh      9.23 kcal/mol|
|  sn= 8 | S(rot)=       0.01458358 Eh      9.15 kcal/mol|
|  sn= 9 | S(rot)=       0.01447237 Eh      9.08 kcal/mol|
|  sn=10 | S(rot)=       0.01437289 Eh      9.02 kcal/mol|
|  sn=11 | S(rot)=       0.01428290 Eh      8.96 kcal/mol|
|  sn=12 | S(rot)=       0.01420074 Eh      8.91 kcal/mol|
 --------------------------------------------------------


-------------------
GIBBS FREE ENERGY
-------------------

The Gibbs free energy is G = H - T*S

Total enthalpy                    ...    -55.87218517 Eh 
Total entropy correction          ...     -0.07822134 Eh    -49.08 kcal/mol
-----------------------------------------------------------------------
Final Gibbs free energy         ...    -55.95040651 Eh

For completeness - the Gibbs free energy minus the electronic energy
G-E(el)                           ...      0.34775257 Eh    218.22 kcal/mol


Total Time for Numerical Frequencies  :       146.860 sec

Timings for individual modules:

Sum of individual times         ...        2.479 sec (=   0.041 min)
Geometry relaxation             ...        1.535 sec (=   0.026 min)  61.9 %
XTB module                      ...        0.943 sec (=   0.016 min)  38.1 %
                             ****ORCA TERMINATED NORMALLY****
TOTAL RUN TIME: 0 days 0 hours 2 minutes 31 seconds 170 msec
