
                                 *****************
                                 * O   R   C   A *
                                 *****************

           --- An Ab Initio, DFT and Semiempirical electronic structure package ---

                  #######################################################
                  #                        -***-                        #
                  #          Department of theory and spectroscopy      #
                  #               Directorship: Frank Neese             #
                  #        Max Planck Institute fuer Kohlenforschung    #
                  #                Kaiser Wilhelm Platz 1               #
                  #                 D-45470 Muelheim/Ruhr               #
                  #                      Germany                        #
                  #                                                     #
                  #                  All rights reserved                #
                  #                        -***-                        #
                  #######################################################


                         Program Version 4.2.1 -  RELEASE  -


 With contributions from (in alphabetic order):
   Daniel Aravena         : Magnetic Suceptibility
   Michael Atanasov       : Ab Initio Ligand Field Theory (pilot matlab implementation)
   Alexander A. Auer      : GIAO ZORA, VPT2
   Ute Becker             : Parallelization
   Giovanni Bistoni       : ED, misc. LED, open-shell LED, HFLD
   Martin Brehm           : Molecular dynamics
   Dmytro Bykov           : SCF Hessian
   Vijay G. Chilkuri      : MRCI spin determinant printing, contributions to CSF-ICE
   Dipayan Datta          : RHF DLPNO-CCSD density
   Achintya Kumar Dutta   : EOM-CC, STEOM-CC
   Dmitry Ganyushin       : Spin-Orbit,Spin-Spin,Magnetic field MRCI
   Miquel Garcia          : C-PCM Hessian, Gaussian charge scheme
   Yang Guo               : DLPNO-NEVPT2, CIM, IAO-localization
   Andreas Hansen         : Spin unrestricted coupled pair/coupled cluster methods
   Benjamin Helmich-Paris : CASSCF linear response (MC-RPA)
   Lee Huntington         : MR-EOM, pCC
   Robert Izsak           : Overlap fitted RIJCOSX, COSX-SCS-MP3, EOM
   Christian Kollmar      : KDIIS, OOCD, Brueckner-CCSD(T), CCSD density
   Simone Kossmann        : Meta GGA functionals, TD-DFT gradient, OOMP2, MP2 Hessian
   Martin Krupicka        : AUTO-CI
   Lucas Lang             : DCDCAS
   Dagmar Lenk            : GEPOL surface, SMD
   Dimitrios Liakos       : Extrapolation schemes; Compound Job, initial MDCI parallelization
   Dimitrios Manganas     : Further ROCIS development; embedding schemes
   Dimitrios Pantazis     : SARC Basis sets
   Taras Petrenko         : DFT Hessian,TD-DFT gradient, ASA, ECA, R-Raman, ABS, FL, XAS/XES, NRVS
   Peter Pinski           : DLPNO-MP2, DLPNO-MP2 Gradient
   Christoph Reimann      : Effective Core Potentials
   Marius Retegan         : Local ZFS, SOC
   Christoph Riplinger    : Optimizer, TS searches, QM/MM, DLPNO-CCSD(T), (RO)-DLPNO pert. Triples
   Tobias Risthaus        : Range-separated hybrids, TD-DFT gradient, RPA, STAB
   Michael Roemelt        : Original ROCIS implementation
   Masaaki Saitow         : Open-shell DLPNO-CCSD energy and density
   Barbara Sandhoefer     : DKH picture change effects
   Avijit Sen             : IP-ROCIS
   Kantharuban Sivalingam : CASSCF convergence, NEVPT2, FIC-MRCI
   Bernardo de Souza      : ESD, SOC TD-DFT
   Georgi Stoychev        : AutoAux, RI-MP2 NMR
   Willem Van den Heuvel  : Paramagnetic NMR
   Boris Wezisla          : Elementary symmetry handling
   Frank Wennmohs         : Technical directorship


 We gratefully acknowledge several colleagues who have allowed us to
 interface, adapt or use parts of their codes:
   Stefan Grimme, W. Hujo, H. Kruse,             : VdW corrections, initial TS optimization,
                  C. Bannwarth                     DFT functionals, gCP, sTDA/sTD-DF
   Ed Valeev, F. Pavosevic, A. Kumar             : LibInt (2-el integral package), F12 methods
   Garnet Chan, S. Sharma, J. Yang, R. Olivares  : DMRG
   Ulf Ekstrom                                   : XCFun DFT Library
   Mihaly Kallay                                 : mrcc  (arbitrary order and MRCC methods)
   Andreas Klamt, Michael Diedenhofen            : otool_cosmo (COSMO solvation model)
   Jiri Pittner, Ondrej Demel                    : Mk-CCSD
   Frank Weinhold                                : gennbo (NPA and NBO analysis)
   Christopher J. Cramer and Donald G. Truhlar   : smd solvation model
   Lars Goerigk                                  : TD-DFT with DH, B97 family of functionals
   V. Asgeirsson, H. Jonsson                     : NEB implementation
   FAccTs GmbH                                   : IRC, NEB, NEB-TS, Multilevel, MM, QM/MM, CI optimization
   S Lehtola, MJT Oliveira, MAL Marques          : LibXC Library


 Your calculation uses the libint2 library for the computation of 2-el integrals
 For citations please refer to: http://libint.valeyev.net

 Your ORCA version has been built with support for libXC version: 4.2.3
 For citations please refer to: https://tddft.org/programs/libxc/

 This ORCA versions uses:
   CBLAS   interface :  Fast vector & matrix operations
   LAPACKE interface :  Fast linear algebra routines
   SCALAPACK package :  Parallel linear algebra routines




***************************************
The coordinates will be read from file: init.xyz
***************************************


Your calculation utilizes the SMD solvation module
Please cite in your paper:
A.V. Marenich, C.J. Cramer, D.G. Truhlar J. Phys. Chem. B, 113, (2009), 6378 

Your calculation utilizes the semiempirical GFN2-xTB method
Please cite in your paper:
C. Bannwarth, Ehlert S., S. Grimme,  J. Chem. Theory Comput., 15, (2019), 1652.
   

----- Orbital basis set information -----
Your calculation utilizes the basis: def2-SVP
   F. Weigend and R. Ahlrichs, Phys. Chem. Chem. Phys. 7, 3297 (2005).

================================================================================
                                        WARNINGS
                       Please study these warnings very carefully!
================================================================================


WARNING: The environment variable RSH_COMMAND is not set!
  ===> : All Displacements for the Numerical Hessian calculation
         will be started on localhost

WARNING: Geometry Optimization
  ===> : Switching off AutoStart
         For restart on a previous wavefunction, please use MOREAD

WARNING: Found dipole moment calculation with XTB calculation
  ===> : Switching off dipole moment calculation


INFO   : the flag for use of LIBINT has been found!

================================================================================
                                       INPUT FILE
================================================================================
NAME = opt+freq.inp
|  1> ! XTB2 Opt NumFreq
|  2> 
|  3> %cpcm
|  4>  smd true
|  5>  smdsolvent "ch2cl2"
|  6> end
|  7> 
|  8> %pal
|  9>  nprocs 12
| 10> end
| 11> 
| 12> *xyzfile 0 1 init.xyz
| 13> 
| 14> 
| 15>                          ****END OF INPUT****
================================================================================

                       *****************************
                       * Geometry Optimization Run *
                       *****************************

Geometry optimization settings:
Update method            Update   .... BFGS
Choice of coordinates    CoordSys .... Z-matrix Internals
Initial Hessian          InHess   .... Almoef's Model

Convergence Tolerances:
Energy Change            TolE     ....  5.0000e-06 Eh
Max. Gradient            TolMAXG  ....  3.0000e-04 Eh/bohr
RMS Gradient             TolRMSG  ....  1.0000e-04 Eh/bohr
Max. Displacement        TolMAXD  ....  4.0000e-03 bohr
RMS Displacement         TolRMSD  ....  2.0000e-03 bohr
Strict Convergence                ....  False
------------------------------------------------------------------------------
                        ORCA OPTIMIZATION COORDINATE SETUP
------------------------------------------------------------------------------

The optimization will be done in new redundant internal coordinates
Making redundant internal coordinates   ...  (new redundants) done
Evaluating the initial hessian          ...  (Almloef) done
Evaluating the coordinates              ...  done
Calculating the B-matrix                .... done
Calculating the G-matrix                .... done
Diagonalizing the G-matrix              .... done
Small eigenvalue found = 8.118e-03
Small eigenvalue found = 8.728e-03
Small eigenvalue found = 1.373e-02
Small eigenvalue found = 1.510e-02
Small eigenvalue found = 2.092e-02
Small eigenvalue found = 2.205e-02
The first mode is                       ....  181
The number of degrees of freedom        ....  141

    -----------------------------------------------------------------
                    Redundant Internal Coordinates


    -----------------------------------------------------------------
         Definition                    Initial Value    Approx d2E/dq
    -----------------------------------------------------------------
      1. B(C   1,C   0)                  1.3957         0.611754   
      2. B(C   2,C   1)                  1.3807         0.646460   
      3. B(C   3,C   2)                  1.3869         0.632019   
      4. B(C   4,C   3)                  1.3857         0.634789   
      5. B(C   5,C   0)                  1.3944         0.614733   
      6. B(C   5,C   4)                  1.3822         0.642973   
      7. B(C   6,C   0)                  1.4540         0.493834   
      8. B(H   7,C   1)                  1.0790         0.374915   
      9. B(H   8,C   5)                  1.0807         0.372567   
     10. B(H   9,C   3)                  1.0800         0.373539   
     11. B(N  10,C   6)                  1.2648         0.886439   
     12. B(C  11,N  10)                  1.4327         0.478341   
     13. B(H  12,N  10)                  1.9930         0.011694   
     14. B(H  12,H   7)                  2.5259         0.000353   
     15. B(C  13,C  11)                  1.5322         0.370606   
     16. B(H  14,C  11)                  1.1023         0.344210   
     17. B(H  15,C  11)                  1.0951         0.353401   
     18. B(H  16,C  13)                  1.0919         0.357622   
     19. B(H  17,C  13)                  1.0929         0.356291   
     20. B(H  19,C   6)                  1.0997         0.347504   
     21. B(H  20,O  18)                  0.9608         0.518518   
     22. B(H  22,O  21)                  1.7720         0.026336   
     23. B(H  22,O  18)                  0.9788         0.485330   
     24. B(H  23,O  21)                  0.9612         0.517702   
     25. B(H  23,H  22)                  2.2986         0.000813   
     26. B(H  24,H  22)                  2.2395         0.001010   
     27. B(H  24,H  12)                  2.1774         0.001269   
     28. B(H  24,O  21)                  0.9933         0.460014   
     29. B(H  26,C   2)                  1.0802         0.373274   
     30. B(H  27,C   4)                  1.0801         0.373423   
     31. B(C  28,C  13)                  1.5262         0.378798   
     32. B(H  29,C  28)                  1.0926         0.356618   
     33. B(H  30,C  28)                  1.0928         0.356475   
     34. B(N  31,H  25)                  1.0155         0.424099   
     35. B(N  31,H  12)                  1.0219         0.414210   
     36. B(N  31,H  24)                  1.7167         0.032258   
     37. B(C  32,N  31)                  1.4597         0.433109   
     38. B(H  33,C  32)                  1.0940         0.354865   
     39. B(H  34,C  32)                  1.0948         0.353744   
     40. B(C  35,C  32)                  1.5312         0.371914   
     41. B(H  36,H  16)                  2.4845         0.000411   
     42. B(H  36,C  35)                  1.0925         0.356873   
     43. B(H  37,C  35)                  1.0940         0.354889   
     44. B(C  38,C  35)                  1.5270         0.377710   
     45. B(H  39,C  38)                  1.0926         0.356676   
     46. B(H  40,C  38)                  1.0927         0.356579   
     47. B(C  41,C  28)                  1.5246         0.380996   
     48. B(H  42,C  41)                  1.0881         0.362677   
     49. B(H  43,C  41)                  1.0878         0.363075   
     50. B(H  44,C  41)                  1.0881         0.362654   
     51. B(C  45,C  38)                  1.5246         0.381097   
     52. B(H  46,C  45)                  1.0882         0.362464   
     53. B(H  47,C  45)                  1.0878         0.363065   
     54. B(H  48,C  45)                  1.0879         0.362883   
     55. A(C   5,C   0,C   6)          119.7161         0.416114   
     56. A(C   1,C   0,C   6)          121.1973         0.415754   
     57. A(C   1,C   0,C   5)          119.0864         0.432358   
     58. A(C   2,C   1,H   7)          120.9709         0.357859   
     59. A(C   0,C   1,H   7)          118.6673         0.354522   
     60. A(C   0,C   1,C   2)          120.3546         0.436291   
     61. A(C   1,C   2,H  26)          119.9374         0.357593   
     62. A(C   1,C   2,C   3)          120.1232         0.438863   
     63. A(C   3,C   2,H  26)          119.9394         0.356223   
     64. A(C   2,C   3,C   4)          119.9625         0.437423   
     65. A(C   4,C   3,H   9)          120.0089         0.356530   
     66. A(C   2,C   3,H   9)          120.0281         0.356266   
     67. A(C   3,C   4,C   5)          120.0998         0.438781   
     68. A(C   3,C   4,H  27)          120.0486         0.356511   
     69. A(C   5,C   4,H  27)          119.8515         0.357288   
     70. A(C   4,C   5,H   8)          120.1903         0.357149   
     71. A(C   0,C   5,C   4)          120.3667         0.436248   
     72. A(C   0,C   5,H   8)          119.4368         0.354437   
     73. A(C   0,C   6,N  10)          122.2816         0.441444   
     74. A(N  10,C   6,H  19)          121.7166         0.370518   
     75. A(C   0,C   6,H  19)          115.9858         0.337651   
     76. A(C   1,H   7,H  12)          101.0752         0.122950   
     77. A(C   6,N  10,H  12)          109.1608         0.218127   
     78. A(C   6,N  10,C  11)          120.1686         0.436031   
     79. A(C  11,N  10,H  12)          114.3554         0.201300   
     80. A(N  10,C  11,H  15)          107.2472         0.334766   
     81. A(N  10,C  11,H  14)          112.1048         0.333305   
     82. A(C  13,C  11,H  15)          109.1855         0.322898   
     83. A(C  13,C  11,H  14)          110.2017         0.321507   
     84. A(N  10,C  11,C  13)          109.8115         0.376233   
     85. A(H  14,C  11,H  15)          108.1947         0.287941   
     86. A(H   7,H  12,N  10)           68.5078         0.104307   
     87. A(H   7,H  12,H  24)          116.3409         0.096492   
     88. A(H  24,H  12,N  31)           50.3723         0.134853   
     89. A(N  10,H  12,N  31)          174.5900         0.182689   
     90. A(H   7,H  12,N  31)          116.3620         0.123320   
     91. A(N  10,H  12,H  24)          126.0476         0.109451   
     92. A(H  16,C  13,H  17)          107.5218         0.290040   
     93. A(H  17,C  13,C  28)          109.8498         0.324492   
     94. A(H  16,C  13,C  28)          109.9159         0.324691   
     95. A(C  11,C  13,C  28)          111.9372         0.363718   
     96. A(C  11,C  13,H  17)          108.8005         0.323330   
     97. A(C  11,C  13,H  16)          108.7020         0.323527   
     98. A(C  13,H  16,H  36)          125.3488         0.123765   
     99. A(H  20,O  18,H  22)          104.9946         0.318087   
    100. A(H  23,O  21,H  24)          105.9253         0.315245   
    101. A(H  22,O  21,H  24)          104.6253         0.204293   
    102. A(H  22,O  21,H  23)          110.9825         0.207418   
    103. A(O  18,H  22,H  23)          155.1662         0.131974   
    104. A(H  23,H  22,H  24)           40.1936         0.097595   
    105. A(O  21,H  22,H  24)           25.4156         0.112340   
    106. A(O  21,H  22,H  23)           22.9816         0.111222   
    107. A(O  18,H  22,H  24)          156.1589         0.134137   
    108. A(O  21,H  23,H  22)           46.0358         0.132607   
    109. A(H  12,H  24,H  22)          104.4050         0.098506   
    110. A(O  21,H  24,H  22)           49.9591         0.133593   
    111. A(H  12,H  24,N  31)           27.2882         0.114731   
    112. A(H  12,H  24,O  21)          151.9208         0.135955   
    113. A(H  22,H  24,N  31)          127.8995         0.113437   
    114. A(H  30,C  28,C  41)          109.4855         0.324828   
    115. A(H  29,C  28,C  41)          109.4644         0.324850   
    116. A(C  13,C  28,C  41)          111.7045         0.365443   
    117. A(H  29,C  28,H  30)          107.5614         0.289935   
    118. A(C  13,C  28,H  30)          109.2458         0.324520   
    119. A(C  13,C  28,H  29)          109.2862         0.324541   
    120. A(H  24,N  31,H  25)          112.2104         0.207509   
    121. A(H  12,N  31,H  24)          102.3395         0.206878   
    122. A(H  25,N  31,C  32)          109.8604         0.336510   
    123. A(H  12,N  31,C  32)          109.8142         0.335192   
    124. A(H  12,N  31,H  25)          107.2576         0.300186   
    125. A(H  24,N  31,C  32)          114.8501         0.227153   
    126. A(H  34,C  32,C  35)          109.6471         0.323136   
    127. A(H  33,C  32,C  35)          109.7033         0.323304   
    128. A(N  31,C  32,C  35)          114.2197         0.370071   
    129. A(H  33,C  32,H  34)          107.9983         0.289362   
    130. A(N  31,C  32,H  34)          107.8482         0.329355   
    131. A(N  31,C  32,H  33)          107.2208         0.329527   
    132. A(H  37,C  35,C  38)          109.4087         0.324129   
    133. A(H  36,C  35,C  38)          109.6425         0.324426   
    134. A(C  32,C  35,C  38)          112.1179         0.363759   
    135. A(H  36,C  35,H  37)          107.7465         0.289765   
    136. A(C  32,C  35,H  37)          109.1220         0.323307   
    137. A(C  32,C  35,H  36)          108.7006         0.323603   
    138. L(H  16,H  36,C  35,C  32, 2) 185.0425         0.123749   
    139. L(H  16,H  36,C  35,C  32, 1) 180.1639         0.123749   
    140. A(H  39,C  38,H  40)          107.5936         0.289956   
    141. A(C  35,C  38,H  40)          109.2050         0.324382   
    142. A(C  35,C  38,H  39)          109.1873         0.324396   
    143. A(H  40,C  38,C  45)          109.4132         0.324858   
    144. A(H  39,C  38,C  45)          109.4377         0.324872   
    145. A(C  35,C  38,C  45)          111.9048         0.365280   
    146. A(H  42,C  41,H  43)          108.4187         0.291542   
    147. A(C  28,C  41,H  43)          110.4667         0.325809   
    148. A(C  28,C  41,H  42)          110.5999         0.325751   
    149. A(H  43,C  41,H  44)          108.4087         0.291539   
    150. A(H  42,C  41,H  44)          108.2878         0.291489   
    151. A(C  28,C  41,H  44)          110.5820         0.325747   
    152. A(H  47,C  45,H  48)          108.3640         0.291567   
    153. A(H  46,C  45,H  48)          108.3489         0.291491   
    154. A(C  38,C  45,H  48)          110.5824         0.325795   
    155. A(H  46,C  45,H  47)          108.3732         0.291514   
    156. A(C  38,C  45,H  47)          110.4985         0.325822   
    157. A(C  38,C  45,H  46)          110.5957         0.325733   
    158. D(H   7,C   1,C   0,C   6)      1.7099         0.025855   
    159. D(C   2,C   1,C   0,C   6)   -179.2547         0.025855   
    160. D(H   7,C   1,C   0,C   5)   -178.4507         0.025855   
    161. D(C   2,C   1,C   0,C   5)      0.5847         0.025855   
    162. D(H  26,C   2,C   1,H   7)     -0.7619         0.029076   
    163. D(H  26,C   2,C   1,C   0)   -179.7748         0.029076   
    164. D(C   3,C   2,C   1,C   0)      0.1290         0.029076   
    165. D(C   3,C   2,C   1,H   7)    179.1419         0.029076   
    166. D(H   9,C   3,C   2,H  26)     -0.3101         0.027707   
    167. D(H   9,C   3,C   2,C   1)    179.7860         0.027707   
    168. D(C   4,C   3,C   2,C   1)     -0.4718         0.027707   
    169. D(C   4,C   3,C   2,H  26)    179.4320         0.027707   
    170. D(H  27,C   4,C   3,C   2)   -179.7717         0.027967   
    171. D(H  27,C   4,C   3,H   9)     -0.0295         0.027967   
    172. D(C   5,C   4,C   3,C   2)      0.0910         0.027967   
    173. D(C   5,C   4,C   3,H   9)    179.8332         0.027967   
    174. D(C   0,C   5,C   4,H  27)   -179.5037         0.028742   
    175. D(H   8,C   5,C   4,C   3)    179.7224         0.028742   
    176. D(C   4,C   5,C   0,C   6)    178.8760         0.026123   
    177. D(C   0,C   5,C   4,C   3)      0.6333         0.028742   
    178. D(H   8,C   5,C   0,C   6)     -0.2199         0.026123   
    179. D(H   8,C   5,C   0,C   1)    179.9383         0.026123   
    180. D(C   4,C   5,C   0,C   1)     -0.9658         0.026123   
    181. D(H   8,C   5,C   4,H  27)     -0.4147         0.028742   
    182. D(N  10,C   6,C   0,C   5)   -163.4147         0.016607   
    183. D(H  19,C   6,C   0,C   1)   -165.0079         0.016607   
    184. D(H  19,C   6,C   0,C   5)     15.1537         0.016607   
    185. D(N  10,C   6,C   0,C   1)     16.4237         0.016607   
    186. D(H  12,H   7,C   1,C   2)    126.7462         0.120950   
    187. D(H  12,H   7,C   1,C   0)    -54.2246         0.120950   
    188. D(C  11,N  10,C   6,C   0)   -179.3688         0.068808   
    189. D(C  11,N  10,C   6,H  19)      2.1439         0.068808   
    190. D(H  12,N  10,C   6,C   0)     45.6432         0.068808   
    191. D(H  12,N  10,C   6,H  19)   -132.8441         0.068808   
    192. D(H  15,C  11,N  10,H  12)     10.4337         0.019567   
    193. D(H  14,C  11,N  10,H  12)    129.0525         0.019567   
    194. D(H  15,C  11,N  10,C   6)   -122.3994         0.019567   
    195. D(H  14,C  11,N  10,C   6)     -3.7806         0.019567   
    196. D(C  13,C  11,N  10,H  12)   -108.0944         0.019567   
    197. D(C  13,C  11,N  10,C   6)    119.0725         0.019567   
    198. D(H  24,H  12,N  10,C  11)    -99.8757         0.001586   
    199. D(H  24,H  12,N  10,C   6)     37.9653         0.001586   
    200. D(H   7,H  12,N  10,C  11)    152.4732         0.001586   
    201. D(H   7,H  12,N  10,C   6)    -69.6858         0.001586   
    202. D(N  31,H  12,N  10,C  11)    -52.8472         0.001586   
    203. D(N  31,H  12,N  10,C   6)     84.9938         0.001586   
    204. D(H  24,H  12,H   7,C   1)    -35.3226         0.001501   
    205. D(N  10,H  12,H   7,C   1)     85.3912         0.001501   
    206. D(N  31,H  12,H   7,C   1)    -92.0295         0.001501   
    207. D(C  28,C  13,C  11,N  10)    173.1957         0.010978   
    208. D(H  17,C  13,C  11,H  15)    177.4590         0.010978   
    209. D(H  17,C  13,C  11,H  14)     58.7530         0.010978   
    210. D(H  17,C  13,C  11,N  10)    -65.2165         0.010978   
    211. D(C  28,C  13,C  11,H  14)    -62.8348         0.010978   
    212. D(H  16,C  13,C  11,H  15)    -65.7325         0.010978   
    213. D(H  16,C  13,C  11,H  14)    175.5616         0.010978   
    214. D(H  16,C  13,C  11,N  10)     51.5921         0.010978   
    215. D(C  28,C  13,C  11,H  15)     55.8712         0.010978   
    216. D(H  36,H  16,C  13,C  28)    -91.7174         0.119446   
    217. D(H  36,H  16,C  13,H  17)    148.7371         0.119446   
    218. D(H  36,H  16,C  13,C  11)     31.1129         0.119446   
    219. D(H  23,O  21,O  18,H  20)     93.8799         0.001501   
    220. D(H  24,O  21,O  18,H  20)   -152.3010         0.001501   
    221. D(H  24,H  22,O  21,H  23)   -113.8154         0.001953   
    222. D(H  23,H  22,O  21,H  24)    113.8154         0.001953   
    223. D(H  24,H  22,O  18,H  20)   -154.7731         0.321077   
    224. D(H  23,H  22,O  18,H  20)     92.2664         0.321077   
    225. D(O  21,H  23,H  22,H  24)     37.4730         0.001507   
    226. D(H  22,H  23,O  21,H  24)   -112.9951         0.341936   
    227. D(O  21,H  23,H  22,O  18)   -177.7448         0.001507   
    228. D(N  31,H  24,H  22,H  23)    143.8190         0.001512   
    229. D(N  31,H  24,H  22,O  21)    177.4240         0.001512   
    230. D(H  12,H  24,H  22,H  23)    159.4837         0.001512   
    231. D(H  12,H  24,H  22,O  21)   -166.9112         0.001512   
    232. D(H  12,H  24,H  22,O  18)     16.2971         0.001512   
    233. D(O  21,H  24,H  22,H  23)    -33.6050         0.001512   
    234. D(H  22,H  24,O  21,H  23)    117.3422         0.305543   
    235. D(H  12,H  24,O  21,H  22)     27.7747         0.305543   
    236. D(O  21,H  24,H  22,O  18)   -176.7916         0.001512   
    237. D(H  12,H  24,O  21,H  23)    145.1169         0.305543   
    238. D(H  22,H  24,H  12,N  10)     22.5536         0.001519   
    239. D(H  22,H  24,H  12,H   7)    104.1998         0.001519   
    240. D(H  22,H  24,H  12,N  31)   -152.3077         0.001519   
    241. D(N  31,H  24,H  12,N  10)    174.8613         0.001519   
    242. D(N  31,H  24,H  12,H   7)   -103.4925         0.001519   
    243. D(N  31,H  24,H  22,O  18)      0.6324         0.001512   
    244. D(O  21,H  24,H  12,H   7)     82.5865         0.001519   
    245. D(O  21,H  24,H  12,N  31)   -173.9210         0.001519   
    246. D(O  21,H  24,H  12,N  10)      0.9403         0.001519   
    247. D(C  41,C  28,C  13,H  17)     58.9441         0.011440   
    248. D(C  41,C  28,C  13,H  16)    -59.1709         0.011440   
    249. D(C  41,C  28,C  13,C  11)    179.9263         0.011440   
    250. D(H  30,C  28,C  13,H  17)    -62.3374         0.011440   
    251. D(H  30,C  28,C  13,H  16)    179.5476         0.011440   
    252. D(H  30,C  28,C  13,C  11)     58.6448         0.011440   
    253. D(H  29,C  28,C  13,H  17)   -179.7736         0.011440   
    254. D(H  29,C  28,C  13,H  16)     62.1114         0.011440   
    255. D(H  29,C  28,C  13,C  11)    -58.7914         0.011440   
    256. D(C  32,N  31,H  24,H  22)    -84.1481         0.002247   
    257. D(C  32,N  31,H  24,H  12)   -118.9277         0.002247   
    258. D(H  25,N  31,H  24,H  22)    149.4464         0.002247   
    259. D(H  25,N  31,H  24,H  12)    114.6669         0.002247   
    260. D(H  12,N  31,H  24,H  22)     34.7796         0.002247   
    261. D(C  32,N  31,O  21,H  22)    -85.1245         0.001501   
    262. D(H  25,N  31,O  21,H  22)    148.2369         0.001501   
    263. D(H  25,N  31,O  21,H  23)    -95.2384         0.001501   
    264. D(H  12,N  31,O  21,H  22)     33.2515         0.001501   
    265. D(H  12,N  31,O  21,H  23)    149.7762         0.001501   
    266. D(H  24,N  31,H  12,N  10)    -50.1835         0.252681   
    267. D(C  32,N  31,O  21,H  23)     31.4002         0.001501   
    268. D(H  24,N  31,H  12,H   7)    103.4488         0.252681   
    269. D(C  32,N  31,H  12,H  24)    122.4167         0.252681   
    270. D(C  32,N  31,H  12,N  10)     72.2332         0.252681   
    271. D(C  32,N  31,H  12,H   7)   -134.1345         0.252681   
    272. D(H  25,N  31,H  12,H  24)   -118.2387         0.252681   
    273. D(H  25,N  31,H  12,N  10)   -168.4222         0.252681   
    274. D(H  25,N  31,H  12,H   7)    -14.7899         0.252681   
    275. D(C  35,C  32,N  31,H  24)    173.1093         0.017139   
    276. D(C  35,C  32,N  31,H  25)    -59.2860         0.017139   
    277. D(C  35,C  32,N  31,H  12)     58.4517         0.017139   
    278. D(H  34,C  32,N  31,H  24)    -64.7391         0.017139   
    279. D(H  34,C  32,N  31,H  25)     62.8656         0.017139   
    280. D(H  34,C  32,N  31,H  12)   -179.3967         0.017139   
    281. D(H  33,C  32,N  31,H  24)     51.3423         0.017139   
    282. D(H  33,C  32,N  31,H  25)    178.9470         0.017139   
    283. D(H  33,C  32,N  31,H  12)    -63.3153         0.017139   
    284. D(C  32,C  35,H  16,C  13)    -34.0468         0.001500   
    285. D(C  38,C  35,C  32,H  34)     60.3913         0.011051   
    286. D(C  38,C  35,C  32,H  33)    -58.0556         0.011051   
    287. D(C  38,C  35,C  32,N  31)   -178.4474         0.011051   
    288. D(H  37,C  35,C  32,H  34)    -60.9784         0.011051   
    289. D(H  37,C  35,C  32,H  33)   -179.4253         0.011051   
    290. D(H  37,C  35,C  32,N  31)     60.1829         0.011051   
    291. D(H  36,C  35,C  32,H  34)   -178.2330         0.011051   
    292. D(H  36,C  35,C  32,H  33)     63.3200         0.011051   
    293. D(H  36,C  35,C  32,N  31)    -57.0718         0.011051   
    294. D(C  38,C  35,H  16,C  13)     90.1787         0.001500   
    295. D(H  37,C  35,H  16,C  13)   -151.0921         0.001500   
    296. D(C  45,C  38,C  35,H  37)    -59.0059         0.011378   
    297. D(C  45,C  38,C  35,H  36)     58.9565         0.011378   
    298. D(C  45,C  38,C  35,C  32)    179.7893         0.011378   
    299. D(H  40,C  38,C  35,H  37)     62.2874         0.011378   
    300. D(H  40,C  38,C  35,H  36)   -179.7503         0.011378   
    301. D(H  40,C  38,C  35,C  32)    -58.9175         0.011378   
    302. D(H  39,C  38,C  35,H  37)    179.6821         0.011378   
    303. D(H  39,C  38,C  35,H  36)    -62.3555         0.011378   
    304. D(H  39,C  38,C  35,C  32)     58.4773         0.011378   
    305. D(H  44,C  41,C  28,H  30)     60.8929         0.011566   
    306. D(H  44,C  41,C  28,H  29)    178.5714         0.011566   
    307. D(H  44,C  41,C  28,C  13)    -60.2496         0.011566   
    308. D(H  43,C  41,C  28,H  30)    -59.1206         0.011566   
    309. D(H  43,C  41,C  28,H  29)     58.5579         0.011566   
    310. D(H  43,C  41,C  28,C  13)    179.7369         0.011566   
    311. D(H  42,C  41,C  28,H  30)   -179.1582         0.011566   
    312. D(H  42,C  41,C  28,H  29)    -61.4797         0.011566   
    313. D(H  42,C  41,C  28,C  13)     59.6993         0.011566   
    314. D(H  48,C  45,C  38,H  40)    178.3825         0.011572   
    315. D(H  48,C  45,C  38,H  39)     60.7227         0.011572   
    316. D(H  48,C  45,C  38,C  35)    -60.4446         0.011572   
    317. D(H  47,C  45,C  38,H  40)     58.4039         0.011572   
    318. D(H  47,C  45,C  38,H  39)    -59.2558         0.011572   
    319. D(H  47,C  45,C  38,C  35)    179.5768         0.011572   
    320. D(H  46,C  45,C  38,H  40)    -61.5947         0.011572   
    321. D(H  46,C  45,C  38,H  39)   -179.2545         0.011572   
    322. D(H  46,C  45,C  38,C  35)     59.5782         0.011572   
    -----------------------------------------------------------------

Number of atoms                         .... 49
Number of degrees of freedom            .... 322

         *************************************************************
         *                GEOMETRY OPTIMIZATION CYCLE   1            *
         *************************************************************
      -----------------------------------------------------------      
     |                   =====================                   |     
     |                           x T B                           |     
     |                   =====================                   |     
     |                         S. Grimme                         |     
     |          Mulliken Center for Theoretical Chemistry        |     
     |                    University of Bonn                     |     
      -----------------------------------------------------------      

   * xtb version 6.3.0 (49875a8) compiled by 'schneider@apollo14' on 2020-05-23

   xtb is free software: you can redistribute it and/or modify it under
   the terms of the GNU Lesser General Public License as published by
   the Free Software Foundation, either version 3 of the License, or
   (at your option) any later version.
   
   xtb is distributed in the hope that it will be useful,
   but WITHOUT ANY WARRANTY; without even the implied warranty of
   MERCHANTABILITY or FITNESS FOR A PARTICULAR PURPOSE.  See the
   GNU Lesser General Public License for more details.
   
   Cite this work as:
   * S. Grimme, C. Bannwarth, P. Shushkov, J. Chem. Theory Comput., 2017,
     13, 1989-2009. DOI: 10.1021/acs.jctc.7b00118
   * C. Bannwarth, S. Ehlert and S. Grimme., J. Chem. Theory Comput., 2019,
     15, 1652-1671. DOI: 10.1021/acs.jctc.8b01176
   * P. Pracht, E. Caldeweyher, S. Ehlert, S. Grimme, ChemRxiv, 2019, preprint.
     DOI: 10.26434/chemrxiv.8326202.v1
   
   for GFN-FF:
   * S. Spicher and S. Grimme, Angew. Chem. Int. Ed., 2020,
     DOI: 10.1002/anie.202004239
   
   for DFT-D4:
   * E. Caldeweyher, C. Bannwarth and S. Grimme, J. Chem. Phys., 2017,
     147, 034112. DOI: 10.1063/1.4993215
   * E. Caldeweyher, S. Ehlert, A. Hansen, H. Neugebauer, S. Spicher,
     C. Bannwarth and S. Grimme, J. Chem. Phys., 2019, 150, 154122.
     DOI: 10.1063/1.5090222
   
   for sTDA-xTB:
   * S. Grimme and C. Bannwarth, J. Chem. Phys., 2016, 145, 054103.
     DOI: 10.1063/1.4959605
   
   in the mass-spec context:
   * V. Asgeirsson, C. Bauer and S. Grimme, Chem. Sci., 2017, 8, 4879.
     DOI: 10.1039/c7sc00601b
   * J. Koopman and S. Grimme, ACS Omega 2019, 4, 12, 15120-15133.
     DOI: 10.1021/acsomega.9b02011
   
   for metadynamics refer to:
   * S. Grimme, J. Chem. Theory Comput., 2019, 155, 2847-2862
     DOI: 10.1021/acs.jctc.9b00143
   
   with help from (in alphabetical order)
   C. Bannwarth, F. Bohle, G. Brandenburg, E. Caldeweyher, M. Checinski,
   S. Dohm, S. Ehlert, S. Ehrlich, F. März, H. Neugebauer, J. Pisarek,
   P. Pracht, P. Shushkov, and S. Spicher.
   
 * started run on 2020/06/19 at 18:11:44.098     

           -------------------------------------------------
          |                Calculation Setup                |
           -------------------------------------------------

          program call               : /opt/orca/otool_xtb opt+freq_XTB.xyz --grad -c 0 -u 0 -P 12 --namespace opt+freq --gbsa CH2Cl2
          calculation namespace      : opt+freq
          coordinate file            : opt+freq_XTB.xyz
          number of atoms            :                    49
          number of electrons        :                   112
          charge                     :                     0
          spin                       :                   0.0
          first test random number   :      0.78003533015056

   ID    Z sym.   atoms
    1    6 C      1-7, 12, 14, 29, 33, 36, 39, 42, 46
    2    1 H      8-10, 13, 15-18, 20, 21, 23-28, 30, 31, 34, 35, 37, 38, 40,
                  41, 43-45, 47-49
    3    7 N      11, 32
    4    8 O      19, 22

molecular fragmentation (1/2 indicates fragments):
1111111111112111112122222211111222222222211112222
# atoms in fragment 1/2:    27    22
 fragment masses (1/2) :      161.24      109.17
CMA distance (Bohr)    :   7.372
constraining FC (au)   :  0.0500
########################################################################
[WARNING] Please study the warnings concerning your input carefully
-1- prog_main_parseArguments: Process number higher than OMP_NUM_THREADS, I hope you know what you are doing.
########################################################################
 Solvent             : CH2Cl2
 Using internal parameter file: .param_gbsa2_CH2Cl2
 Gsolv ref. state (COSMO-RS): gsolv [1 M gas/solution]
 temperature (mdtemp)       :    298.14999999999998     
 dielectric constant        :    8.9299999999999997     
 rho                        :    1.3300000000000003     
 mass                       :    84.930000000000007     
 surface tension            :    15.568945408385856     
 probe radius               :   0.71987590000000001     
 Gshift (Eh)                :    4.4408291734517593E-003
 c1                         :    1.4917377599999999     
 soset                      :    0.0000000000000000     
 HB correction              :  F

           -------------------------------------------------
          |                 G F N 2 - x T B                 |
           -------------------------------------------------

        Reference                      10.1021/acs.jctc.8b01176
      * Hamiltonian:
        H0-scaling (s, p, d)           1.850000    2.230000    2.230000
        zeta-weighting                 0.500000
      * Dispersion:
        s8                             2.700000
        a1                             0.520000
        a2                             5.000000
        s9                             5.000000
      * Repulsion:
        kExp                           1.500000    1.000000
        rExp                           1.000000
      * Coulomb:
        alpha                          2.000000
        third order                    shell-resolved
        anisotropic                    true
        a3                             3.000000
        a5                             4.000000
        cn-shift                       1.200000
        cn-exp                         4.000000
        max-rad                        5.000000

q/qsh data taken from xtbrestart
CAMM data taken from xtbrestart

          ...................................................
          :                      SETUP                      :
          :.................................................:
          :  # basis functions                 106          :
          :  # atomic orbitals                 106          :
          :  # shells                           68          :
          :  # electrons                       112          :
          :  max. iterations                   250          :
          :  Hamiltonian                  GFN2-xTB          :
          :  restarted?                       true          :
          :  GBSA solvation                   true          :
          :  PC potential                    false          :
          :  electronic temp.          300.0000000     K    :
          :  accuracy                    1.0000000          :
          :  -> integral cutoff          0.2500000E+02      :
          :  -> integral neglect         0.1000000E-07      :
          :  -> SCF convergence          0.1000000E-05 Eh   :
          :  -> wf. convergence          0.1000000E-03 e    :
          :  Broyden damping             0.4000000          :
          ...................................................

 iter      E             dE          RMSdq      gap      omega  full diag
   1    -62.2380093 -0.622380E+02  0.957E-07    2.94       0.0  T
   2    -62.2380093  0.923706E-13  0.587E-07    2.94   24323.3  T
   3    -62.2380093 -0.426326E-13  0.368E-07    2.94   38820.7  T

   *** convergence criteria satisfied after 3 iterations ***

         #    Occupation            Energy/Eh            Energy/eV
      -------------------------------------------------------------
         1        2.0000           -0.6750960             -18.3703
       ...           ...                  ...                  ...
        50        2.0000           -0.4271273             -11.6227
        51        2.0000           -0.4258765             -11.5887
        52        2.0000           -0.4247498             -11.5580
        53        2.0000           -0.4108493             -11.1798
        54        2.0000           -0.4002836             -10.8923
        55        2.0000           -0.3879010             -10.5553
        56        2.0000           -0.3800309             -10.3412 (HOMO)
        57                         -0.2718355              -7.3970 (LUMO)
        58                         -0.2281528              -6.2084
        59                         -0.1902407              -5.1767
        60                         -0.0871865              -2.3725
        61                          0.0164287               0.4470
       ...                                ...                  ...
       106                          0.6636144              18.0579
      -------------------------------------------------------------
                  HL-Gap            0.1081954 Eh            2.9441 eV
             Fermi-level           -0.3259332 Eh           -8.8691 eV

 SCC (total)                   0 d,  0 h,  0 min,  0.173 sec
 SCC setup                      ...        0 min,  0.002 sec (  1.353%)
 Dispersion                     ...        0 min,  0.001 sec (  0.510%)
 classical contributions        ...        0 min,  0.000 sec (  0.178%)
 integral evaluation            ...        0 min,  0.032 sec ( 18.401%)
 iterations                     ...        0 min,  0.066 sec ( 38.347%)
 molecular gradient             ...        0 min,  0.068 sec ( 39.444%)
 printout                       ...        0 min,  0.003 sec (  1.753%)

         :::::::::::::::::::::::::::::::::::::::::::::::::::::
         ::                     SUMMARY                     ::
         :::::::::::::::::::::::::::::::::::::::::::::::::::::
         :: total energy             -61.386744688983 Eh    ::
         :: total w/o Gsasa/hb       -61.359982967805 Eh    ::
         :: gradient norm              0.000294398058 Eh/a0 ::
         :: HOMO-LUMO gap              2.944146608928 eV    ::
         ::.................................................::
         :: SCC energy               -62.264771025286 Eh    ::
         :: -> isotropic ES            0.098287637991 Eh    ::
         :: -> anisotropic ES         -0.000626313846 Eh    ::
         :: -> anisotropic XC          0.039370484856 Eh    ::
         :: -> dispersion             -0.038274737306 Eh    ::
         :: -> Gsolv                  -0.035552826714 Eh    ::
         ::    -> Gborn               -0.008791105536 Eh    ::
         ::    -> Gsasa               -0.031202550351 Eh    ::
         ::    -> Ghb                  0.000000000000 Eh    ::
         ::    -> Gshift               0.004440829173 Eh    ::
         :: repulsion energy           0.877240544413 Eh    ::
         :: add. restraining           0.000000000000 Eh    ::
         :::::::::::::::::::::::::::::::::::::::::::::::::::::

           -------------------------------------------------
          |                Property Printout                |
           -------------------------------------------------

    * Orbital Energies and Occupations

         #    Occupation            Energy/Eh            Energy/eV
      -------------------------------------------------------------
         1        2.0000           -0.6750960             -18.3703
       ...           ...                  ...                  ...
        44        2.0000           -0.4397552             -11.9663
        45        2.0000           -0.4390157             -11.9462
        46        2.0000           -0.4385950             -11.9348
        47        2.0000           -0.4376563             -11.9092
        48        2.0000           -0.4315455             -11.7430
        49        2.0000           -0.4296775             -11.6921
        50        2.0000           -0.4271273             -11.6227
        51        2.0000           -0.4258765             -11.5887
        52        2.0000           -0.4247498             -11.5580
        53        2.0000           -0.4108493             -11.1798
        54        2.0000           -0.4002836             -10.8923
        55        2.0000           -0.3879010             -10.5553
        56        2.0000           -0.3800309             -10.3412 (HOMO)
        57                         -0.2718355              -7.3970 (LUMO)
        58                         -0.2281528              -6.2084
        59                         -0.1902407              -5.1767
        60                         -0.0871865              -2.3725
        61                          0.0164287               0.4470
        62                          0.0482938               1.3141
        63                          0.0673271               1.8321
        64                          0.0842946               2.2938
        65                          0.0940424               2.5590
        66                          0.0986348               2.6840
        67                          0.1101535               2.9974
       ...                                ...                  ...
       106                          0.6636144              18.0579
      -------------------------------------------------------------
                  HL-Gap            0.1081954 Eh            2.9441 eV
             Fermi-level           -0.3259332 Eh           -8.8691 eV

     #   Z        covCN         q      C6AA      α(0)
     1   6 C      2.977     0.005    27.911     8.666
     2   6 C      2.924    -0.029    28.723     8.789
     3   6 C      2.918    -0.028    28.708     8.786
     4   6 C      2.920    -0.025    28.623     8.773
     5   6 C      2.918    -0.028    28.689     8.783
     6   6 C      2.926    -0.028    28.709     8.787
     7   6 C      2.860     0.080    26.208     8.391
     8   1 H      0.926     0.048     2.345     2.395
     9   1 H      0.926     0.039     2.460     2.453
    10   1 H      0.926     0.045     2.388     2.416
    11   7 N      1.831    -0.261    27.628     7.789
    12   6 C      3.767     0.025    20.192     6.404
    13   1 H      0.860     0.182     1.204     1.719
    14   6 C      3.805    -0.056    21.575     6.613
    15   1 H      0.923     0.006     2.958     2.690
    16   1 H      0.924     0.043     2.412     2.429
    17   1 H      0.924     0.043     2.409     2.427
    18   1 H      0.924     0.033     2.543     2.494
    19   8 O      1.608    -0.633    25.999     6.882
    20   1 H      0.923     0.002     3.021     2.718
    21   1 H      0.805     0.281     0.779     1.387
    22   8 O      1.606    -0.629    25.887     6.867
    23   1 H      0.803     0.313     0.683     1.298
    24   1 H      0.805     0.290     0.751     1.361
    25   1 H      0.804     0.309     0.694     1.308
    26   1 H      0.860     0.149     1.407     1.858
    27   1 H      0.926     0.044     2.396     2.421
    28   1 H      0.926     0.043     2.413     2.429
    29   6 C      3.801    -0.054    21.541     6.608
    30   1 H      0.924     0.034     2.527     2.486
    31   1 H      0.924     0.031     2.574     2.509
    32   7 N      2.631    -0.378    29.758     8.102
    33   6 C      3.731     0.011    20.477     6.459
    34   1 H      0.924     0.034     2.526     2.485
    35   1 H      0.924     0.036     2.506     2.476
    36   6 C      3.801    -0.070    21.834     6.653
    37   1 H      0.924     0.038     2.477     2.461
    38   1 H      0.924     0.031     2.565     2.505
    39   6 C      3.801    -0.055    21.562     6.611
    40   1 H      0.924     0.031     2.574     2.509
    41   1 H      0.924     0.031     2.566     2.505
    42   6 C      3.752    -0.104    22.541     6.771
    43   1 H      0.925     0.038     2.478     2.462
    44   1 H      0.925     0.039     2.468     2.457
    45   1 H      0.925     0.036     2.502     2.473
    46   6 C      3.752    -0.103    22.535     6.770
    47   1 H      0.925     0.036     2.505     2.475
    48   1 H      0.925     0.036     2.500     2.473
    49   1 H      0.925     0.037     2.492     2.469

 Mol. C6AA /au·bohr⁶  :      19244.965086
 Mol. C8AA /au·bohr⁸  :     418213.434849
 Mol. α(0) /au        :        212.051099


Wiberg/Mayer (AO) data.
largest (>0.10) Wiberg bond orders for each atom
          total WBO             WBO to atom ...
     1  C   3.989        C    6 1.376    C    2 1.368    C    7 1.087    C    4 0.101
     2  C   3.990        C    3 1.463    C    1 1.368    H    8 0.967    C    5 0.106
     3  C   3.992        C    2 1.463    C    4 1.426    H   27 0.970    C    6 0.105
     4  C   3.988        C    5 1.434    C    3 1.426    H   10 0.971    C    1 0.101
     5  C   3.991        C    6 1.455    C    4 1.434    H   28 0.970    C    2 0.106
     6  C   3.987        C    5 1.455    C    1 1.376    H    9 0.968    C    3 0.105
     7  C   3.968        N   11 1.827    C    1 1.087    H   20 0.939
     8  H   0.998        C    2 0.967
     9  H   0.998        C    6 0.968
    10  H   0.998        C    4 0.971
    11  N   3.092        C    7 1.827    C   12 1.030
    12  C   3.984        N   11 1.030    C   14 0.983    H   15 0.965    H   16 0.955
    13  H   0.967        N   32 0.923
    14  C   3.991        C   29 1.006    C   12 0.983    H   18 0.978    H   17 0.975
    15  H   1.000        C   12 0.965
    16  H   0.995        C   12 0.955
    17  H   0.998        C   14 0.975
    18  H   0.999        C   14 0.978
    19  O   1.797        H   21 0.920    H   23 0.849
    20  H   1.000        C    7 0.939
    21  H   0.921        O   19 0.920
    22  O   1.849        H   24 0.914    H   25 0.813
    23  H   0.902        O   19 0.849
    24  H   0.916        O   22 0.914
    25  H   0.904        O   22 0.813
    26  H   0.978        N   32 0.963
    27  H   0.998        C    3 0.970
    28  H   0.998        C    5 0.970
    29  C   3.996        C   42 1.019    C   14 1.006    H   31 0.978    H   30 0.978
    30  H   0.999        C   29 0.978
    31  H   0.999        C   29 0.978
    32  N   3.097        C   33 1.016    H   26 0.963    H   13 0.923
    33  C   3.981        N   32 1.016    C   36 0.998    H   35 0.975    H   34 0.975
    34  H   0.999        C   33 0.975
    35  H   0.998        C   33 0.975
    36  C   3.997        C   39 1.007    C   33 0.998    H   38 0.977    H   37 0.974
    37  H   0.999        C   36 0.974
    38  H   0.999        C   36 0.977
    39  C   3.997        C   46 1.019    C   36 1.007    H   40 0.978    H   41 0.978
    40  H   0.999        C   39 0.978
    41  H   0.999        C   39 0.978
    42  C   3.995        C   29 1.019    H   45 0.988    H   43 0.988    H   44 0.987
    43  H   0.999        C   42 0.988
    44  H   0.998        C   42 0.987
    45  H   0.999        C   42 0.988
    46  C   3.997        C   39 1.019    H   47 0.988    H   49 0.988    H   48 0.987
    47  H   0.999        C   46 0.988
    48  H   0.998        C   46 0.987
    49  H   0.999        C   46 0.988
Topologies differ in total number of bonds
Writing topology from bond orders to xtbtopo.mol

molecular dipole:
                 x           y           z       tot (Debye)
 q only:       -0.688       0.222       0.989
   full:       -0.645       0.106       0.953       2.936
molecular quadrupole (traceless):
                xx          xy          yy          xz          yz          zz
 q only:       11.190      -2.164       0.419       4.931       0.912     -11.609
  q+dip:       11.551      -5.555       0.195       2.261       4.691     -11.746
   full:       10.697      -4.634       2.180       2.852       2.585     -12.877


           -------------------------------------------------
          | TOTAL ENERGY              -61.386744688983 Eh   |
          | GRADIENT NORM               0.000294398058 Eh/α |
          | HOMO-LUMO GAP               2.944146608928 eV   |
           -------------------------------------------------

------------------------------------------------------------------------
 * finished run on 2020/06/19 at 18:11:44.319     
------------------------------------------------------------------------
 total:
 * wall-time:     0 d,  0 h,  0 min,  0.221 sec
 *  cpu-time:     0 d,  0 h,  0 min,  2.257 sec
 * ratio c/w:    10.207 speedup
 SCF:
 * wall-time:     0 d,  0 h,  0 min,  0.174 sec
 *  cpu-time:     0 d,  0 h,  0 min,  1.813 sec
 * ratio c/w:    10.440 speedup


-------------------------   --------------------
FINAL SINGLE POINT ENERGY       -61.386744688980
-------------------------   --------------------

------------------------------------------------------------------------------
                         ORCA GEOMETRY RELAXATION STEP
------------------------------------------------------------------------------

Reading the OPT-File                    .... done
Getting information on internals        .... done
Copying old internal coords+grads       .... done
Making the new internal coordinates     .... (new redundants).... done
Validating the new internal coordinates .... (new redundants).... done
Calculating the B-matrix                .... done
Calculating the G,G- and P matrices     .... done
Transforming gradient to internals      .... done
Projecting the internal gradient        .... done
Number of atoms                         ....  49
Number of internal coordinates          .... 322
Current Energy                          ....   -61.386744689 Eh
Current gradient norm                   ....     0.000294398 Eh/bohr
Maximum allowed component of the step   ....  0.300
Current trust radius                    ....  0.300
Evaluating the initial hessian          ....  (Almloef) done
Projecting the Hessian                  .... done
Forming the augmented Hessian           .... done
Diagonalizing the augmented Hessian     .... done
Last element of RFO vector              ....  0.999933233
Lowest eigenvalues of augmented Hessian:
 -0.000001926  0.002025676  0.004393086  0.008550182  0.011377707
Length of the computed step             ....  0.011556228
The final length of the internal step   ....  0.011556228
Converting the step to cartesian space:
 Initial RMS(Int)=    0.0006440034
Transforming coordinates:
 Iter   0:  RMS(Cart)=    0.0030794129 RMS(Int)=    0.0006432925
 Iter   1:  RMS(Cart)=    0.0000581093 RMS(Int)=    0.0000095749
 Iter   2:  RMS(Cart)=    0.0000264769 RMS(Int)=    0.0000043437
 Iter   3:  RMS(Cart)=    0.0000121052 RMS(Int)=    0.0000019858
 Iter   4:  RMS(Cart)=    0.0000055343 RMS(Int)=    0.0000009079
 Iter   5:  RMS(Cart)=    0.0000025302 RMS(Int)=    0.0000004151
 Iter   6:  RMS(Cart)=    0.0000011567 RMS(Int)=    0.0000001898
 Iter   7:  RMS(Cart)=    0.0000005288 RMS(Int)=    0.0000000867
 Iter   8:  RMS(Cart)=    0.0000002418 RMS(Int)=    0.0000000397
 Iter   9:  RMS(Cart)=    0.0000001105 RMS(Int)=    0.0000000181
 Iter  10:  RMS(Cart)=    0.0000000505 RMS(Int)=    0.0000000083
done
Storing new coordinates                 .... done

                                .--------------------.
          ----------------------|Geometry convergence|-------------------------
          Item                value                   Tolerance       Converged
          ---------------------------------------------------------------------
          RMS gradient        0.0000212933            0.0001000000      YES
          MAX gradient        0.0001141305            0.0003000000      YES
          RMS step            0.0006440034            0.0020000000      YES
          MAX step            0.0046279836            0.0040000000      NO
          ........................................................
          Max(Bonds)      0.0024      Max(Angles)    0.07
          Max(Dihed)        0.14      Max(Improp)    0.00
          ---------------------------------------------------------------------

The optimization has not yet converged - more geometry cycles are needed


    ---------------------------------------------------------------------------
                         Redundant Internal Coordinates
                            (Angstroem and degrees)

        Definition                    Value    dE/dq     Step     New-Value
    ----------------------------------------------------------------------------
     1. B(C   1,C   0)                1.3957  0.000020 -0.0000    1.3957   
     2. B(C   2,C   1)                1.3807 -0.000006 -0.0000    1.3807   
     3. B(C   3,C   2)                1.3869  0.000028 -0.0000    1.3869   
     4. B(C   4,C   3)                1.3857 -0.000012  0.0000    1.3857   
     5. B(C   5,C   0)                1.3944 -0.000013  0.0000    1.3944   
     6. B(C   5,C   4)                1.3822  0.000005  0.0000    1.3822   
     7. B(C   6,C   0)                1.4540 -0.000002 -0.0000    1.4540   
     8. B(H   7,C   1)                1.0790  0.000025 -0.0000    1.0790   
     9. B(H   8,C   5)                1.0807  0.000003 -0.0000    1.0807   
    10. B(H   9,C   3)                1.0800 -0.000001  0.0000    1.0800   
    11. B(N  10,C   6)                1.2648  0.000005  0.0000    1.2648   
    12. B(C  11,N  10)                1.4327  0.000037 -0.0000    1.4327   
    13. B(H  12,N  10)                1.9930  0.000069 -0.0024    1.9905   
    14. B(H  12,H   7)                2.5259 -0.000015  0.0007    2.5266   
    15. B(C  13,C  11)                1.5322  0.000016 -0.0000    1.5321   
    16. B(H  14,C  11)                1.1023  0.000015 -0.0000    1.1023   
    17. B(H  15,C  11)                1.0951 -0.000022  0.0000    1.0951   
    18. B(H  16,C  13)                1.0919  0.000011 -0.0000    1.0919   
    19. B(H  17,C  13)                1.0929 -0.000011  0.0000    1.0929   
    20. B(H  19,C   6)                1.0997  0.000008 -0.0000    1.0997   
    21. B(H  20,O  18)                0.9608 -0.000019  0.0000    0.9608   
    22. B(H  22,O  21)                1.7720 -0.000005  0.0001    1.7721   
    23. B(H  22,O  18)                0.9788 -0.000024  0.0000    0.9788   
    24. B(H  23,O  21)                0.9612  0.000018 -0.0000    0.9612   
    25. B(H  23,H  22)                2.2986 -0.000007  0.0002    2.2988   
    26. B(H  24,H  22)                2.2395  0.000005  0.0001    2.2396   
    27. B(H  24,H  12)                2.1774 -0.000017 -0.0000    2.1774   
    28. B(H  24,O  21)                0.9933  0.000018 -0.0000    0.9933   
    29. B(H  26,C   2)                1.0802 -0.000001  0.0000    1.0802   
    30. B(H  27,C   4)                1.0801  0.000002 -0.0000    1.0801   
    31. B(C  28,C  13)                1.5262  0.000002 -0.0000    1.5262   
    32. B(H  29,C  28)                1.0926 -0.000011  0.0000    1.0927   
    33. B(H  30,C  28)                1.0928 -0.000001  0.0000    1.0928   
    34. B(N  31,H  25)                1.0155  0.000041 -0.0001    1.0154   
    35. B(N  31,H  12)                1.0219 -0.000009 -0.0000    1.0219   
    36. B(N  31,H  24)                1.7167  0.000034 -0.0003    1.7165   
    37. B(C  32,N  31)                1.4597  0.000022 -0.0000    1.4597   
    38. B(H  33,C  32)                1.0940  0.000036 -0.0001    1.0939   
    39. B(H  34,C  32)                1.0948  0.000050 -0.0001    1.0948   
    40. B(C  35,C  32)                1.5312  0.000019 -0.0000    1.5312   
    41. B(H  36,H  16)                2.4845  0.000022 -0.0020    2.4825   
    42. B(H  36,C  35)                1.0925  0.000028 -0.0000    1.0924   
    43. B(H  37,C  35)                1.0940  0.000016 -0.0000    1.0939   
    44. B(C  38,C  35)                1.5270  0.000076 -0.0001    1.5269   
    45. B(H  39,C  38)                1.0926  0.000003 -0.0000    1.0926   
    46. B(H  40,C  38)                1.0927  0.000013 -0.0000    1.0927   
    47. B(C  41,C  28)                1.5246  0.000012 -0.0000    1.5246   
    48. B(H  42,C  41)                1.0881 -0.000000  0.0000    1.0881   
    49. B(H  43,C  41)                1.0878  0.000011 -0.0000    1.0877   
    50. B(H  44,C  41)                1.0881 -0.000003  0.0000    1.0881   
    51. B(C  45,C  38)                1.5246  0.000005 -0.0000    1.5246   
    52. B(H  46,C  45)                1.0882  0.000005 -0.0000    1.0882   
    53. B(H  47,C  45)                1.0878 -0.000004  0.0000    1.0878   
    54. B(H  48,C  45)                1.0879  0.000003 -0.0000    1.0879   
    55. A(C   5,C   0,C   6)          119.72 -0.000024    0.01    119.73   
    56. A(C   1,C   0,C   6)          121.20  0.000012   -0.01    121.18   
    57. A(C   1,C   0,C   5)          119.09  0.000013    0.00    119.09   
    58. A(C   2,C   1,H   7)          120.97  0.000030    0.01    120.98   
    59. A(C   0,C   1,H   7)          118.67 -0.000013   -0.01    118.66   
    60. A(C   0,C   1,C   2)          120.35 -0.000017    0.00    120.36   
    61. A(C   1,C   2,H  26)          119.94  0.000010   -0.00    119.94   
    62. A(C   1,C   2,C   3)          120.12  0.000003   -0.00    120.12   
    63. A(C   3,C   2,H  26)          119.94 -0.000013    0.00    119.94   
    64. A(C   2,C   3,C   4)          119.96  0.000004   -0.00    119.96   
    65. A(C   4,C   3,H   9)          120.01 -0.000003    0.00    120.01   
    66. A(C   2,C   3,H   9)          120.03 -0.000001   -0.00    120.03   
    67. A(C   3,C   4,C   5)          120.10 -0.000006    0.00    120.10   
    68. A(C   3,C   4,H  27)          120.05  0.000005   -0.00    120.05   
    69. A(C   5,C   4,H  27)          119.85  0.000000   -0.00    119.85   
    70. A(C   4,C   5,H   8)          120.19 -0.000003    0.00    120.19   
    71. A(C   0,C   5,C   4)          120.37  0.000003   -0.00    120.36   
    72. A(C   0,C   5,H   8)          119.44 -0.000000    0.00    119.44   
    73. A(C   0,C   6,N  10)          122.28  0.000005   -0.01    122.27   
    74. A(N  10,C   6,H  19)          121.72  0.000012    0.00    121.72   
    75. A(C   0,C   6,H  19)          115.99 -0.000017    0.01    115.99   
    76. A(C   1,H   7,H  12)          101.08  0.000012   -0.04    101.04   
    77. A(C   6,N  10,H  12)          109.16  0.000022   -0.00    109.16   
    78. A(C   6,N  10,C  11)          120.17 -0.000042    0.01    120.18   
    79. A(C  11,N  10,H  12)          114.36  0.000032   -0.02    114.34   
    80. A(N  10,C  11,H  15)          107.25 -0.000005    0.00    107.25   
    81. A(N  10,C  11,H  14)          112.10 -0.000013    0.00    112.11   
    82. A(C  13,C  11,H  15)          109.19 -0.000030    0.01    109.19   
    83. A(C  13,C  11,H  14)          110.20  0.000019    0.00    110.20   
    84. A(N  10,C  11,C  13)          109.81  0.000023   -0.01    109.80   
    85. A(H  14,C  11,H  15)          108.19  0.000004    0.00    108.20   
    86. A(H   7,H  12,N  10)           68.51  0.000008   -0.00     68.50   
    87. A(H   7,H  12,H  24)          116.34 -0.000042    0.03    116.37   
    88. A(H  24,H  12,N  31)           50.37  0.000025   -0.01     50.36   
    89. A(N  10,H  12,N  31)          174.59  0.000033   -0.03    174.56   
    90. A(H   7,H  12,N  31)          116.36 -0.000039    0.03    116.40   
    91. A(N  10,H  12,H  24)          126.05 -0.000002   -0.01    126.04   
    92. A(H  16,C  13,H  17)          107.52  0.000002    0.01    107.53   
    93. A(H  17,C  13,C  28)          109.85 -0.000018    0.00    109.85   
    94. A(H  16,C  13,C  28)          109.92 -0.000007    0.00    109.92   
    95. A(C  11,C  13,C  28)          111.94  0.000042   -0.01    111.93   
    96. A(C  11,C  13,H  17)          108.80 -0.000002    0.00    108.80   
    97. A(C  11,C  13,H  16)          108.70 -0.000020   -0.01    108.69   
    98. A(C  13,H  16,H  36)          125.35  0.000105   -0.07    125.28   
    99. A(H  20,O  18,H  22)          104.99 -0.000114    0.02    105.02   
   100. A(H  23,O  21,H  24)          105.93  0.000024   -0.02    105.91   
   101. A(H  22,O  21,H  24)          104.63 -0.000002   -0.00    104.62   
   102. A(H  22,O  21,H  23)          110.98 -0.000011    0.01    110.99   
   103. A(O  18,H  22,H  23)          155.17 -0.000006    0.01    155.17   
   104. A(H  23,H  22,H  24)           40.19  0.000014   -0.01     40.19   
   105. A(O  21,H  22,H  24)           25.42  0.000004   -0.00     25.41   
   106. A(O  21,H  22,H  23)           22.98  0.000007   -0.00     22.98   
   107. A(O  18,H  22,H  24)          156.16 -0.000004    0.00    156.16   
   108. A(O  21,H  23,H  22)           46.04  0.000004   -0.00     46.03   
   109. A(H  12,H  24,H  22)          104.40  0.000001   -0.00    104.40   
   110. A(O  21,H  24,H  22)           49.96 -0.000003    0.00     49.96   
   111. A(H  12,H  24,N  31)           27.29  0.000003   -0.00     27.29   
   112. A(H  12,H  24,O  21)          151.92 -0.000006    0.00    151.92   
   113. A(H  22,H  24,N  31)          127.90  0.000001    0.02    127.92   
   114. A(H  30,C  28,C  41)          109.49  0.000001   -0.00    109.48   
   115. A(H  29,C  28,C  41)          109.46 -0.000009    0.00    109.47   
   116. A(C  13,C  28,C  41)          111.70  0.000004   -0.00    111.70   
   117. A(H  29,C  28,H  30)          107.56  0.000002   -0.00    107.56   
   118. A(C  13,C  28,H  30)          109.25  0.000003   -0.00    109.24   
   119. A(C  13,C  28,H  29)          109.29 -0.000000    0.00    109.29   
   120. A(H  24,N  31,H  25)          112.21  0.000023   -0.01    112.20   
   121. A(H  12,N  31,H  24)          102.34 -0.000028    0.01    102.35   
   122. A(H  25,N  31,C  32)          109.86 -0.000034    0.01    109.87   
   123. A(H  12,N  31,C  32)          109.81  0.000037   -0.03    109.79   
   124. A(H  12,N  31,H  25)          107.26 -0.000012    0.01    107.27   
   125. A(H  24,N  31,C  32)          114.85  0.000014   -0.00    114.85   
   126. A(H  34,C  32,C  35)          109.65 -0.000000    0.00    109.65   
   127. A(H  33,C  32,C  35)          109.70 -0.000020   -0.00    109.70   
   128. A(N  31,C  32,C  35)          114.22  0.000027   -0.00    114.22   
   129. A(H  33,C  32,H  34)          108.00  0.000003    0.00    108.00   
   130. A(N  31,C  32,H  34)          107.85 -0.000024    0.01    107.86   
   131. A(N  31,C  32,H  33)          107.22  0.000013   -0.01    107.21   
   132. A(H  37,C  35,C  38)          109.41 -0.000014    0.01    109.42   
   133. A(H  36,C  35,C  38)          109.64  0.000090   -0.03    109.61   
   134. A(C  32,C  35,C  38)          112.12 -0.000067    0.01    112.12   
   135. A(H  36,C  35,H  37)          107.75 -0.000041    0.02    107.76   
   136. A(C  32,C  35,H  37)          109.12  0.000044   -0.00    109.12   
   137. A(C  32,C  35,H  36)          108.70 -0.000011    0.00    108.70   
   138. L(H  16,H  36,C  35,C  32, 2) 185.04  0.000070   -0.04    185.01   
   139. L(H  16,H  36,C  35,C  32, 1) 180.16 -0.000023    0.01    180.18   
   140. A(H  39,C  38,H  40)          107.59  0.000001    0.00    107.59   
   141. A(C  35,C  38,H  40)          109.21 -0.000019    0.01    109.21   
   142. A(C  35,C  38,H  39)          109.19  0.000016   -0.01    109.18   
   143. A(H  40,C  38,C  45)          109.41 -0.000002    0.00    109.42   
   144. A(H  39,C  38,C  45)          109.44 -0.000012   -0.00    109.44   
   145. A(C  35,C  38,C  45)          111.90  0.000016   -0.00    111.90   
   146. A(H  42,C  41,H  43)          108.42  0.000001    0.00    108.42   
   147. A(C  28,C  41,H  43)          110.47  0.000012   -0.00    110.46   
   148. A(C  28,C  41,H  42)          110.60 -0.000019    0.00    110.60   
   149. A(H  43,C  41,H  44)          108.41 -0.000002   -0.00    108.41   
   150. A(H  42,C  41,H  44)          108.29  0.000003    0.00    108.29   
   151. A(C  28,C  41,H  44)          110.58  0.000005   -0.00    110.58   
   152. A(H  47,C  45,H  48)          108.36 -0.000002    0.00    108.37   
   153. A(H  46,C  45,H  48)          108.35 -0.000004   -0.00    108.35   
   154. A(C  38,C  45,H  48)          110.58  0.000013   -0.00    110.58   
   155. A(H  46,C  45,H  47)          108.37 -0.000003    0.00    108.38   
   156. A(C  38,C  45,H  47)          110.50 -0.000015    0.00    110.50   
   157. A(C  38,C  45,H  46)          110.60  0.000012   -0.00    110.59   
   158. D(H   7,C   1,C   0,C   6)      1.71  0.000026   -0.01      1.70   
   159. D(C   2,C   1,C   0,C   6)   -179.25  0.000025   -0.01   -179.26   
   160. D(H   7,C   1,C   0,C   5)   -178.45  0.000015   -0.01   -178.46   
   161. D(C   2,C   1,C   0,C   5)      0.58  0.000015   -0.01      0.58   
   162. D(H  26,C   2,C   1,H   7)     -0.76 -0.000013    0.02     -0.74   
   163. D(H  26,C   2,C   1,C   0)   -179.77 -0.000012    0.02   -179.76   
   164. D(C   3,C   2,C   1,C   0)      0.13 -0.000007   -0.00      0.13   
   165. D(C   3,C   2,C   1,H   7)    179.14 -0.000008   -0.00    179.14   
   166. D(H   9,C   3,C   2,H  26)     -0.31  0.000008   -0.02     -0.33   
   167. D(H   9,C   3,C   2,C   1)    179.79  0.000003    0.00    179.79   
   168. D(C   4,C   3,C   2,C   1)     -0.47 -0.000005    0.01     -0.46   
   169. D(C   4,C   3,C   2,H  26)    179.43 -0.000000   -0.01    179.42   
   170. D(H  27,C   4,C   3,C   2)   -179.77  0.000012   -0.02   -179.80   
   171. D(H  27,C   4,C   3,H   9)     -0.03  0.000003   -0.01     -0.04   
   172. D(C   5,C   4,C   3,C   2)      0.09  0.000010   -0.01      0.08   
   173. D(C   5,C   4,C   3,H   9)    179.83  0.000002    0.00    179.83   
   174. D(C   0,C   5,C   4,H  27)   -179.50 -0.000004    0.01   -179.49   
   175. D(H   8,C   5,C   4,C   3)    179.72 -0.000004   -0.01    179.72   
   176. D(C   4,C   5,C   0,C   6)    178.88 -0.000020    0.01    178.89   
   177. D(C   0,C   5,C   4,C   3)      0.63 -0.000003    0.00      0.64   
   178. D(H   8,C   5,C   0,C   6)     -0.22 -0.000019    0.02     -0.20   
   179. D(H   8,C   5,C   0,C   1)    179.94 -0.000008    0.02    179.96   
   180. D(C   4,C   5,C   0,C   1)     -0.97 -0.000010    0.01     -0.96   
   181. D(H   8,C   5,C   4,H  27)     -0.41 -0.000005    0.00     -0.41   
   182. D(N  10,C   6,C   0,C   5)   -163.41  0.000008    0.04   -163.37   
   183. D(H  19,C   6,C   0,C   1)   -165.01 -0.000008    0.05   -164.96   
   184. D(H  19,C   6,C   0,C   5)     15.15  0.000003    0.05     15.20   
   185. D(N  10,C   6,C   0,C   1)     16.42 -0.000002    0.04     16.47   
   186. D(H  12,H   7,C   1,C   2)    126.75 -0.000031    0.04    126.79   
   187. D(H  12,H   7,C   1,C   0)    -54.22 -0.000032    0.04    -54.18   
   188. D(C  11,N  10,C   6,C   0)   -179.37 -0.000009    0.02   -179.35   
   189. D(C  11,N  10,C   6,H  19)      2.14 -0.000003    0.02      2.16   
   190. D(H  12,N  10,C   6,C   0)     45.64 -0.000042    0.04     45.68   
   191. D(H  12,N  10,C   6,H  19)   -132.84 -0.000035    0.03   -132.81   
   192. D(H  15,C  11,N  10,H  12)     10.43  0.000040   -0.05     10.38   
   193. D(H  14,C  11,N  10,H  12)    129.05  0.000035   -0.05    129.00   
   194. D(H  15,C  11,N  10,C   6)   -122.40  0.000013   -0.04   -122.44   
   195. D(H  14,C  11,N  10,C   6)     -3.78  0.000007   -0.04     -3.82   
   196. D(C  13,C  11,N  10,H  12)   -108.09  0.000066   -0.06   -108.15   
   197. D(C  13,C  11,N  10,C   6)    119.07  0.000039   -0.04    119.03   
   198. D(H  24,H  12,N  10,C  11)    -99.88 -0.000009   -0.01    -99.88   
   199. D(H  24,H  12,N  10,C   6)     37.97 -0.000015   -0.01     37.95   
   200. D(H   7,H  12,N  10,C  11)    152.47  0.000037   -0.04    152.43   
   201. D(H   7,H  12,N  10,C   6)    -69.69  0.000031   -0.04    -69.73   
   202. D(N  31,H  12,N  10,C  11)    -52.85  0.000013   -0.03    -52.88   
   203. D(N  31,H  12,N  10,C   6)     84.99  0.000007   -0.03     84.96   
   204. D(H  24,H  12,H   7,C   1)    -35.32 -0.000021    0.06    -35.26   
   205. D(N  10,H  12,H   7,C   1)     85.39 -0.000014    0.04     85.43   
   206. D(N  31,H  12,H   7,C   1)    -92.03 -0.000028    0.06    -91.97   
   207. D(C  28,C  13,C  11,N  10)    173.20 -0.000008    0.02    173.21   
   208. D(H  17,C  13,C  11,H  15)    177.46  0.000006    0.02    177.48   
   209. D(H  17,C  13,C  11,H  14)     58.75  0.000007    0.01     58.76   
   210. D(H  17,C  13,C  11,N  10)    -65.22 -0.000005    0.02    -65.20   
   211. D(C  28,C  13,C  11,H  14)    -62.83  0.000004    0.01    -62.83   
   212. D(H  16,C  13,C  11,H  15)    -65.73 -0.000003    0.02    -65.71   
   213. D(H  16,C  13,C  11,H  14)    175.56 -0.000001    0.02    175.58   
   214. D(H  16,C  13,C  11,N  10)     51.59 -0.000014    0.02     51.61   
   215. D(C  28,C  13,C  11,H  15)     55.87  0.000003    0.02     55.89   
   216. D(H  36,H  16,C  13,C  28)    -91.72 -0.000029    0.02    -91.70   
   217. D(H  36,H  16,C  13,H  17)    148.74 -0.000005    0.00    148.74   
   218. D(H  36,H  16,C  13,C  11)     31.11  0.000006    0.00     31.12   
   219. D(H  23,O  21,O  18,H  20)     93.88 -0.000013    0.01     93.89   
   220. D(H  24,O  21,O  18,H  20)   -152.30  0.000009   -0.01   -152.31   
   221. D(H  24,H  22,O  21,H  23)   -113.82 -0.000022    0.02   -113.80   
   222. D(H  23,H  22,O  21,H  24)    113.82  0.000022   -0.02    113.80   
   223. D(H  24,H  22,O  18,H  20)   -154.77  0.000008   -0.00   -154.77   
   224. D(H  23,H  22,O  18,H  20)     92.27 -0.000016    0.00     92.27   
   225. D(O  21,H  23,H  22,H  24)     37.47 -0.000013    0.01     37.48   
   226. D(H  22,H  23,O  21,H  24)   -113.00 -0.000006    0.01   -112.99   
   227. D(O  21,H  23,H  22,O  18)   -177.74  0.000000    0.00   -177.74   
   228. D(N  31,H  24,H  22,H  23)    143.82  0.000013    0.05    143.87   
   229. D(N  31,H  24,H  22,O  21)    177.42  0.000006    0.05    177.48   
   230. D(H  12,H  24,H  22,H  23)    159.48  0.000020   -0.01    159.47   
   231. D(H  12,H  24,H  22,O  21)   -166.91  0.000013   -0.00   -166.91   
   232. D(H  12,H  24,H  22,O  18)     16.30  0.000010   -0.01     16.28   
   233. D(O  21,H  24,H  22,H  23)    -33.61  0.000007   -0.01    -33.61   
   234. D(H  22,H  24,O  21,H  23)    117.34 -0.000003   -0.00    117.34   
   235. D(H  12,H  24,O  21,H  22)     27.77  0.000023   -0.01     27.77   
   236. D(O  21,H  24,H  22,O  18)   -176.79 -0.000003   -0.01   -176.80   
   237. D(H  12,H  24,O  21,H  23)    145.12  0.000021   -0.01    145.11   
   238. D(H  22,H  24,H  12,N  10)     22.55  0.000041   -0.14     22.41   
   239. D(H  22,H  24,H  12,H   7)    104.20  0.000023   -0.13    104.07   
   240. D(H  22,H  24,H  12,N  31)   -152.31  0.000010   -0.11   -152.42   
   241. D(N  31,H  24,H  12,N  10)    174.86  0.000031   -0.03    174.83   
   242. D(N  31,H  24,H  12,H   7)   -103.49  0.000013   -0.02   -103.51   
   243. D(N  31,H  24,H  22,O  18)      0.63  0.000003    0.04      0.67   
   244. D(O  21,H  24,H  12,H   7)     82.59  0.000007   -0.13     82.46   
   245. D(O  21,H  24,H  12,N  31)   -173.92 -0.000007   -0.11   -174.03   
   246. D(O  21,H  24,H  12,N  10)      0.94  0.000024   -0.14      0.80   
   247. D(C  41,C  28,C  13,H  17)     58.94  0.000005   -0.04     58.91   
   248. D(C  41,C  28,C  13,H  16)    -59.17  0.000017   -0.05    -59.22   
   249. D(C  41,C  28,C  13,C  11)    179.93  0.000018   -0.04    179.89   
   250. D(H  30,C  28,C  13,H  17)    -62.34 -0.000001   -0.03    -62.37   
   251. D(H  30,C  28,C  13,H  16)    179.55  0.000011   -0.05    179.50   
   252. D(H  30,C  28,C  13,C  11)     58.64  0.000012   -0.03     58.61   
   253. D(H  29,C  28,C  13,H  17)   -179.77 -0.000005   -0.03   -179.81   
   254. D(H  29,C  28,C  13,H  16)     62.11  0.000007   -0.05     62.06   
   255. D(H  29,C  28,C  13,C  11)    -58.79  0.000008   -0.03    -58.82   
   256. D(C  32,N  31,H  24,H  22)    -84.15 -0.000020   -0.11    -84.26   
   257. D(C  32,N  31,H  24,H  12)   -118.93 -0.000034    0.02   -118.90   
   258. D(H  25,N  31,H  24,H  22)    149.45 -0.000005   -0.11    149.33   
   259. D(H  25,N  31,H  24,H  12)    114.67 -0.000019    0.02    114.69   
   260. D(H  12,N  31,H  24,H  22)     34.78  0.000014   -0.13     34.65   
   261. D(C  32,N  31,O  21,H  22)    -85.12 -0.000016   -0.09    -85.21   
   262. D(H  25,N  31,O  21,H  22)    148.24 -0.000003   -0.09    148.14   
   263. D(H  25,N  31,O  21,H  23)    -95.24 -0.000005   -0.08    -95.32   
   264. D(H  12,N  31,O  21,H  22)     33.25  0.000017   -0.10     33.15   
   265. D(H  12,N  31,O  21,H  23)    149.78  0.000015   -0.09    149.69   
   266. D(H  24,N  31,H  12,N  10)    -50.18 -0.000002    0.00    -50.18   
   267. D(C  32,N  31,O  21,H  23)     31.40 -0.000019   -0.07     31.33   
   268. D(H  24,N  31,H  12,H   7)    103.45 -0.000020    0.01    103.45   
   269. D(C  32,N  31,H  12,H  24)    122.42  0.000019   -0.01    122.41   
   270. D(C  32,N  31,H  12,N  10)     72.23  0.000017   -0.00     72.23   
   271. D(C  32,N  31,H  12,H   7)   -134.13 -0.000001   -0.00   -134.14   
   272. D(H  25,N  31,H  12,H  24)   -118.24 -0.000008   -0.00   -118.24   
   273. D(H  25,N  31,H  12,N  10)   -168.42 -0.000010    0.00   -168.42   
   274. D(H  25,N  31,H  12,H   7)    -14.79 -0.000028    0.00    -14.79   
   275. D(C  35,C  32,N  31,H  24)    173.11 -0.000011   -0.00    173.11   
   276. D(C  35,C  32,N  31,H  25)    -59.29  0.000003   -0.01    -59.29   
   277. D(C  35,C  32,N  31,H  12)     58.45 -0.000010   -0.00     58.45   
   278. D(H  34,C  32,N  31,H  24)    -64.74 -0.000010    0.01    -64.73   
   279. D(H  34,C  32,N  31,H  25)     62.87  0.000003    0.00     62.87   
   280. D(H  34,C  32,N  31,H  12)   -179.40 -0.000009    0.01   -179.39   
   281. D(H  33,C  32,N  31,H  24)     51.34 -0.000012    0.01     51.35   
   282. D(H  33,C  32,N  31,H  25)    178.95  0.000001    0.00    178.95   
   283. D(H  33,C  32,N  31,H  12)    -63.32 -0.000011    0.01    -63.31   
   284. D(C  32,C  35,H  16,C  13)    -34.05  0.000028   -0.07    -34.11   
   285. D(C  38,C  35,C  32,H  34)     60.39 -0.000035    0.03     60.42   
   286. D(C  38,C  35,C  32,H  33)    -58.06 -0.000026    0.03    -58.03   
   287. D(C  38,C  35,C  32,N  31)   -178.45 -0.000047    0.04   -178.41   
   288. D(H  37,C  35,C  32,H  34)    -60.98 -0.000003    0.02    -60.96   
   289. D(H  37,C  35,C  32,H  33)   -179.43  0.000006    0.01   -179.41   
   290. D(H  37,C  35,C  32,N  31)     60.18 -0.000015    0.03     60.21   
   291. D(H  36,C  35,C  32,H  34)   -178.23  0.000028   -0.00   -178.24   
   292. D(H  36,C  35,C  32,H  33)     63.32  0.000037   -0.01     63.31   
   293. D(H  36,C  35,C  32,N  31)    -57.07  0.000016    0.01    -57.06   
   294. D(C  38,C  35,H  16,C  13)     90.18  0.000002   -0.08     90.10   
   295. D(H  37,C  35,H  16,C  13)   -151.09  0.000016   -0.08   -151.17   
   296. D(C  45,C  38,C  35,H  37)    -59.01  0.000001    0.02    -58.99   
   297. D(C  45,C  38,C  35,H  36)     58.96 -0.000004    0.03     58.98   
   298. D(C  45,C  38,C  35,C  32)    179.79 -0.000000    0.01    179.80   
   299. D(H  40,C  38,C  35,H  37)     62.29 -0.000004    0.03     62.31   
   300. D(H  40,C  38,C  35,H  36)   -179.75 -0.000010    0.03   -179.72   
   301. D(H  40,C  38,C  35,C  32)    -58.92 -0.000005    0.02    -58.90   
   302. D(H  39,C  38,C  35,H  37)    179.68 -0.000005    0.03    179.71   
   303. D(H  39,C  38,C  35,H  36)    -62.36 -0.000010    0.04    -62.32   
   304. D(H  39,C  38,C  35,C  32)     58.48 -0.000006    0.02     58.50   
   305. D(H  44,C  41,C  28,H  30)     60.89  0.000008   -0.01     60.89   
   306. D(H  44,C  41,C  28,H  29)    178.57  0.000006   -0.01    178.56   
   307. D(H  44,C  41,C  28,C  13)    -60.25  0.000001   -0.00    -60.25   
   308. D(H  43,C  41,C  28,H  30)    -59.12 -0.000000   -0.00    -59.12   
   309. D(H  43,C  41,C  28,H  29)     58.56 -0.000002   -0.00     58.56   
   310. D(H  43,C  41,C  28,C  13)    179.74 -0.000007    0.00    179.74   
   311. D(H  42,C  41,C  28,H  30)   -179.16  0.000003   -0.00   -179.16   
   312. D(H  42,C  41,C  28,H  29)    -61.48  0.000001   -0.00    -61.48   
   313. D(H  42,C  41,C  28,C  13)     59.70 -0.000004    0.00     59.70   
   314. D(H  48,C  45,C  38,H  40)    178.38 -0.000006    0.02    178.40   
   315. D(H  48,C  45,C  38,H  39)     60.72  0.000000    0.02     60.74   
   316. D(H  48,C  45,C  38,C  35)    -60.44 -0.000022    0.03    -60.41   
[...]
  28:       231.49    0.000000  (  0.000000   0.000000   0.000000)
  29:       235.20    0.000000  (  0.000000   0.000000   0.000000)
  30:       243.98    0.000000  (  0.000000   0.000000   0.000000)
  31:       278.02    0.000000  (  0.000000   0.000000   0.000000)
  32:       279.09    0.000000  (  0.000000   0.000000   0.000000)
  33:       283.31    0.000000  (  0.000000   0.000000   0.000000)
  34:       366.52    0.000000  (  0.000000   0.000000   0.000000)
  35:       372.22    0.000000  (  0.000000   0.000000   0.000000)
  36:       396.68    0.000000  (  0.000000   0.000000   0.000000)
  37:       400.72    0.000000  (  0.000000   0.000000   0.000000)
  38:       428.84    0.000000  (  0.000000   0.000000   0.000000)
  39:       433.46    0.000000  (  0.000000   0.000000   0.000000)
  40:       449.33    0.000000  (  0.000000   0.000000   0.000000)
  41:       472.09    0.000000  (  0.000000   0.000000   0.000000)
  42:       491.17    0.000000  (  0.000000   0.000000   0.000000)
  43:       500.75    0.000000  (  0.000000   0.000000   0.000000)
  44:       588.30    0.000000  (  0.000000   0.000000   0.000000)
  45:       622.82    0.000000  (  0.000000   0.000000   0.000000)
  46:       663.74    0.000000  (  0.000000   0.000000   0.000000)
  47:       672.10    0.000000  (  0.000000   0.000000   0.000000)
  48:       750.92    0.000000  (  0.000000   0.000000   0.000000)
  49:       756.37    0.000000  (  0.000000   0.000000   0.000000)
  50:       772.92    0.000000  (  0.000000   0.000000   0.000000)
  51:       777.74    0.000000  (  0.000000   0.000000   0.000000)
  52:       827.11    0.000000  (  0.000000   0.000000   0.000000)
  53:       831.25    0.000000  (  0.000000   0.000000   0.000000)
  54:       861.93    0.000000  (  0.000000   0.000000   0.000000)
  55:       878.00    0.000000  (  0.000000   0.000000   0.000000)
  56:       905.56    0.000000  (  0.000000   0.000000   0.000000)
  57:       920.65    0.000000  (  0.000000   0.000000   0.000000)
  58:       929.54    0.000000  (  0.000000   0.000000   0.000000)
  59:       930.94    0.000000  (  0.000000   0.000000   0.000000)
  60:       932.33    0.000000  (  0.000000   0.000000   0.000000)
  61:       937.26    0.000000  (  0.000000   0.000000   0.000000)
  62:       943.46    0.000000  (  0.000000   0.000000   0.000000)
  63:       952.86    0.000000  (  0.000000   0.000000   0.000000)
  64:       990.81    0.000000  (  0.000000   0.000000   0.000000)
  65:      1008.25    0.000000  (  0.000000   0.000000   0.000000)
  66:      1026.50    0.000000  (  0.000000   0.000000   0.000000)
  67:      1046.63    0.000000  (  0.000000   0.000000   0.000000)
  68:      1072.79    0.000000  (  0.000000   0.000000   0.000000)
  69:      1075.92    0.000000  (  0.000000   0.000000   0.000000)
  70:      1079.36    0.000000  (  0.000000   0.000000   0.000000)
  71:      1096.78    0.000000  (  0.000000   0.000000   0.000000)
  72:      1099.61    0.000000  (  0.000000   0.000000   0.000000)
  73:      1112.82    0.000000  (  0.000000   0.000000   0.000000)
  74:      1117.80    0.000000  (  0.000000   0.000000   0.000000)
  75:      1127.03    0.000000  (  0.000000   0.000000   0.000000)
  76:      1142.41    0.000000  (  0.000000   0.000000   0.000000)
  77:      1162.16    0.000000  (  0.000000   0.000000   0.000000)
  78:      1179.73    0.000000  (  0.000000   0.000000   0.000000)
  79:      1189.92    0.000000  (  0.000000   0.000000   0.000000)
  80:      1209.16    0.000000  (  0.000000   0.000000   0.000000)
  81:      1214.31    0.000000  (  0.000000   0.000000   0.000000)
  82:      1239.02    0.000000  (  0.000000   0.000000   0.000000)
  83:      1251.06    0.000000  (  0.000000   0.000000   0.000000)
  84:      1264.49    0.000000  (  0.000000   0.000000   0.000000)
  85:      1269.04    0.000000  (  0.000000   0.000000   0.000000)
  86:      1271.43    0.000000  (  0.000000   0.000000   0.000000)
  87:      1275.48    0.000000  (  0.000000   0.000000   0.000000)
  88:      1277.21    0.000000  (  0.000000   0.000000   0.000000)
  89:      1280.00    0.000000  (  0.000000   0.000000   0.000000)
  90:      1316.95    0.000000  (  0.000000   0.000000   0.000000)
  91:      1320.20    0.000000  (  0.000000   0.000000   0.000000)
  92:      1328.11    0.000000  (  0.000000   0.000000   0.000000)
  93:      1338.06    0.000000  (  0.000000   0.000000   0.000000)
  94:      1356.89    0.000000  (  0.000000   0.000000   0.000000)
  95:      1364.03    0.000000  (  0.000000   0.000000   0.000000)
  96:      1368.60    0.000000  (  0.000000   0.000000   0.000000)
  97:      1412.94    0.000000  (  0.000000   0.000000   0.000000)
  98:      1414.66    0.000000  (  0.000000   0.000000   0.000000)
  99:      1434.61    0.000000  (  0.000000   0.000000   0.000000)
 100:      1468.55    0.000000  (  0.000000   0.000000   0.000000)
 101:      1470.12    0.000000  (  0.000000   0.000000   0.000000)
 102:      1484.21    0.000000  (  0.000000   0.000000   0.000000)
 103:      1490.67    0.000000  (  0.000000   0.000000   0.000000)
 104:      1493.79    0.000000  (  0.000000   0.000000   0.000000)
 105:      1495.07    0.000000  (  0.000000   0.000000   0.000000)
 106:      1498.45    0.000000  (  0.000000   0.000000   0.000000)
 107:      1499.20    0.000000  (  0.000000   0.000000   0.000000)
 108:      1502.32    0.000000  (  0.000000   0.000000   0.000000)
 109:      1503.29    0.000000  (  0.000000   0.000000   0.000000)
 110:      1505.18    0.000000  (  0.000000   0.000000   0.000000)
 111:      1527.82    0.000000  (  0.000000   0.000000   0.000000)
 112:      1551.18    0.000000  (  0.000000   0.000000   0.000000)
 113:      1558.80    0.000000  (  0.000000   0.000000   0.000000)
 114:      1580.53    0.000000  (  0.000000   0.000000   0.000000)
 115:      1592.65    0.000000  (  0.000000   0.000000   0.000000)
 116:      1696.52    0.000000  (  0.000000   0.000000   0.000000)
 117:      2835.14    0.000000  (  0.000000   0.000000   0.000000)
 118:      2843.32    0.000000  (  0.000000   0.000000   0.000000)
 119:      2900.10    0.000000  (  0.000000   0.000000   0.000000)
 120:      2934.17    0.000000  (  0.000000   0.000000   0.000000)
 121:      2943.31    0.000000  (  0.000000   0.000000   0.000000)
 122:      2953.31    0.000000  (  0.000000   0.000000   0.000000)
 123:      2957.20    0.000000  (  0.000000   0.000000   0.000000)
 124:      2960.45    0.000000  (  0.000000   0.000000   0.000000)
 125:      2965.49    0.000000  (  0.000000   0.000000   0.000000)
 126:      2968.44    0.000000  (  0.000000   0.000000   0.000000)
 127:      2975.83    0.000000  (  0.000000   0.000000   0.000000)
 128:      2977.34    0.000000  (  0.000000   0.000000   0.000000)
 129:      2982.22    0.000000  (  0.000000   0.000000   0.000000)
 130:      2984.82    0.000000  (  0.000000   0.000000   0.000000)
 131:      3025.01    0.000000  (  0.000000   0.000000   0.000000)
 132:      3027.03    0.000000  (  0.000000   0.000000   0.000000)
 133:      3028.95    0.000000  (  0.000000   0.000000   0.000000)
 134:      3030.31    0.000000  (  0.000000   0.000000   0.000000)
 135:      3035.89    0.000000  (  0.000000   0.000000   0.000000)
 136:      3037.81    0.000000  (  0.000000   0.000000   0.000000)
 137:      3072.02    0.000000  (  0.000000   0.000000   0.000000)
 138:      3075.56    0.000000  (  0.000000   0.000000   0.000000)
 139:      3082.11    0.000000  (  0.000000   0.000000   0.000000)
 140:      3091.99    0.000000  (  0.000000   0.000000   0.000000)
 141:      3100.44    0.000000  (  0.000000   0.000000   0.000000)
 142:      3256.96    0.000000  (  0.000000   0.000000   0.000000)
 143:      3266.31    0.000000  (  0.000000   0.000000   0.000000)
 144:      3394.89    0.000000  (  0.000000   0.000000   0.000000)
 145:      3626.37    0.000000  (  0.000000   0.000000   0.000000)
 146:      3635.48    0.000000  (  0.000000   0.000000   0.000000)

The first frequency considered to be a vibration is 6
The total number of vibrations considered is 141


--------------------------
THERMOCHEMISTRY AT 298.15K
--------------------------

Temperature         ... 298.15 K
Pressure            ... 1.00 atm
Total Mass          ... 270.42 AMU

Throughout the following assumptions are being made:
  (1) The electronic state is orbitally nondegenerate
  (2) There are no thermally accessible electronically excited states
  (3) Hindered rotations indicated by low frequency modes are not
      treated as such but are treated as vibrations and this may
      cause some error
  (4) All equations used are the standard statistical mechanics
      equations for an ideal gas
  (5) All vibrations are strictly harmonic

freq.       8.15  E(vib)   ...       0.58 
freq.      16.84  E(vib)   ...       0.57 
freq.      21.72  E(vib)   ...       0.56 
freq.      30.89  E(vib)   ...       0.55 
freq.      32.73  E(vib)   ...       0.55 
freq.      38.26  E(vib)   ...       0.54 
freq.      42.01  E(vib)   ...       0.53 
freq.      49.29  E(vib)   ...       0.52 
freq.      50.95  E(vib)   ...       0.52 
freq.      57.81  E(vib)   ...       0.51 
freq.      68.56  E(vib)   ...       0.50 
freq.      79.70  E(vib)   ...       0.49 
freq.      96.52  E(vib)   ...       0.47 
freq.     103.42  E(vib)   ...       0.46 
freq.     120.98  E(vib)   ...       0.44 
freq.     127.77  E(vib)   ...       0.43 
freq.     129.94  E(vib)   ...       0.43 
freq.     145.88  E(vib)   ...       0.41 
freq.     155.51  E(vib)   ...       0.40 
freq.     165.15  E(vib)   ...       0.39 
freq.     209.86  E(vib)   ...       0.34 
freq.     214.05  E(vib)   ...       0.34 
freq.     231.49  E(vib)   ...       0.32 
freq.     235.20  E(vib)   ...       0.32 
freq.     243.98  E(vib)   ...       0.31 
freq.     278.02  E(vib)   ...       0.28 
freq.     279.09  E(vib)   ...       0.28 
freq.     283.31  E(vib)   ...       0.28 
freq.     366.52  E(vib)   ...       0.22 
freq.     372.22  E(vib)   ...       0.21 
freq.     396.68  E(vib)   ...       0.20 
freq.     400.72  E(vib)   ...       0.19 
freq.     428.84  E(vib)   ...       0.18 
freq.     433.46  E(vib)   ...       0.17 
freq.     449.33  E(vib)   ...       0.17 
freq.     472.09  E(vib)   ...       0.15 
freq.     491.17  E(vib)   ...       0.14 
freq.     500.75  E(vib)   ...       0.14 
freq.     588.30  E(vib)   ...       0.10 
freq.     622.82  E(vib)   ...       0.09 
freq.     663.74  E(vib)   ...       0.08 
freq.     672.10  E(vib)   ...       0.08 
freq.     750.92  E(vib)   ...       0.06 
freq.     756.37  E(vib)   ...       0.06 
freq.     772.92  E(vib)   ...       0.05 
freq.     777.74  E(vib)   ...       0.05 
freq.     827.11  E(vib)   ...       0.04 
freq.     831.25  E(vib)   ...       0.04 
freq.     861.93  E(vib)   ...       0.04 
freq.     878.00  E(vib)   ...       0.04 
freq.     905.56  E(vib)   ...       0.03 
freq.     920.65  E(vib)   ...       0.03 
freq.     929.54  E(vib)   ...       0.03 
freq.     930.94  E(vib)   ...       0.03 
freq.     932.33  E(vib)   ...       0.03 
freq.     937.26  E(vib)   ...       0.03 
freq.     943.46  E(vib)   ...       0.03 
freq.     952.86  E(vib)   ...       0.03 
freq.     990.81  E(vib)   ...       0.02 
freq.    1008.25  E(vib)   ...       0.02 
freq.    1026.50  E(vib)   ...       0.02 
freq.    1046.63  E(vib)   ...       0.02 
freq.    1072.79  E(vib)   ...       0.02 
freq.    1075.92  E(vib)   ...       0.02 
freq.    1079.36  E(vib)   ...       0.02 
freq.    1096.78  E(vib)   ...       0.02 
freq.    1099.61  E(vib)   ...       0.02 
freq.    1112.82  E(vib)   ...       0.01 
freq.    1117.80  E(vib)   ...       0.01 
freq.    1127.03  E(vib)   ...       0.01 
freq.    1142.41  E(vib)   ...       0.01 
freq.    1162.16  E(vib)   ...       0.01 
freq.    1179.73  E(vib)   ...       0.01 
freq.    1189.92  E(vib)   ...       0.01 
freq.    1209.16  E(vib)   ...       0.01 
freq.    1214.31  E(vib)   ...       0.01 
freq.    1239.02  E(vib)   ...       0.01 
freq.    1251.06  E(vib)   ...       0.01 
freq.    1264.49  E(vib)   ...       0.01 
freq.    1269.04  E(vib)   ...       0.01 
freq.    1271.43  E(vib)   ...       0.01 
freq.    1275.48  E(vib)   ...       0.01 
freq.    1277.21  E(vib)   ...       0.01 
freq.    1280.00  E(vib)   ...       0.01 
freq.    1316.95  E(vib)   ...       0.01 
freq.    1320.20  E(vib)   ...       0.01 
freq.    1328.11  E(vib)   ...       0.01 
freq.    1338.06  E(vib)   ...       0.01 
freq.    1356.89  E(vib)   ...       0.01 
freq.    1364.03  E(vib)   ...       0.01 
freq.    1368.60  E(vib)   ...       0.01 
freq.    1412.94  E(vib)   ...       0.00 
freq.    1414.66  E(vib)   ...       0.00 
freq.    1434.61  E(vib)   ...       0.00 
freq.    1468.55  E(vib)   ...       0.00 
freq.    1470.12  E(vib)   ...       0.00 
freq.    1484.21  E(vib)   ...       0.00 
freq.    1490.67  E(vib)   ...       0.00 
freq.    1493.79  E(vib)   ...       0.00 
freq.    1495.07  E(vib)   ...       0.00 
freq.    1498.45  E(vib)   ...       0.00 
freq.    1499.20  E(vib)   ...       0.00 
freq.    1502.32  E(vib)   ...       0.00 
freq.    1503.29  E(vib)   ...       0.00 
freq.    1505.18  E(vib)   ...       0.00 
freq.    1527.82  E(vib)   ...       0.00 
freq.    1551.18  E(vib)   ...       0.00 
freq.    1558.80  E(vib)   ...       0.00 
freq.    1580.53  E(vib)   ...       0.00 
freq.    1592.65  E(vib)   ...       0.00 
freq.    1696.52  E(vib)   ...       0.00 
freq.    2835.14  E(vib)   ...       0.00 
freq.    2843.32  E(vib)   ...       0.00 
freq.    2900.10  E(vib)   ...       0.00 
freq.    2934.17  E(vib)   ...       0.00 
freq.    2943.31  E(vib)   ...       0.00 
freq.    2953.31  E(vib)   ...       0.00 
freq.    2957.20  E(vib)   ...       0.00 
freq.    2960.45  E(vib)   ...       0.00 
freq.    2965.49  E(vib)   ...       0.00 
freq.    2968.44  E(vib)   ...       0.00 
freq.    2975.83  E(vib)   ...       0.00 
freq.    2977.34  E(vib)   ...       0.00 
freq.    2982.22  E(vib)   ...       0.00 
freq.    2984.82  E(vib)   ...       0.00 
freq.    3025.01  E(vib)   ...       0.00 
freq.    3027.03  E(vib)   ...       0.00 
freq.    3028.95  E(vib)   ...       0.00 
freq.    3030.31  E(vib)   ...       0.00 
freq.    3035.89  E(vib)   ...       0.00 
freq.    3037.81  E(vib)   ...       0.00 
freq.    3072.02  E(vib)   ...       0.00 
freq.    3075.56  E(vib)   ...       0.00 
freq.    3082.11  E(vib)   ...       0.00 
freq.    3091.99  E(vib)   ...       0.00 
freq.    3100.44  E(vib)   ...       0.00 
freq.    3256.96  E(vib)   ...       0.00 
freq.    3266.31  E(vib)   ...       0.00 
freq.    3394.89  E(vib)   ...       0.00 
freq.    3626.37  E(vib)   ...       0.00 
freq.    3635.48  E(vib)   ...       0.00 

------------
INNER ENERGY
------------

The inner energy is: U= E(el) + E(ZPE) + E(vib) + E(rot) + E(trans)
    E(el)   - is the total energy from the electronic structure calculation
              = E(kin-el) + E(nuc-el) + E(el-el) + E(nuc-nuc)
    E(ZPE)  - the the zero temperature vibrational energy from the frequency calculation
    E(vib)  - the the finite temperature correction to E(ZPE) due to population
              of excited vibrational states
    E(rot)  - is the rotational thermal energy
    E(trans)- is the translational thermal energy

Summary of contributions to the inner energy U:
Electronic energy                ...    -61.38674829 Eh
Zero point energy                ...      0.42352516 Eh     265.77 kcal/mol
Thermal vibrational correction   ...      0.02472218 Eh      15.51 kcal/mol
Thermal rotational correction    ...      0.00141627 Eh       0.89 kcal/mol
Thermal translational correction ...      0.00141627 Eh       0.89 kcal/mol
-----------------------------------------------------------------------
Total thermal energy                    -60.93566840 Eh


Summary of corrections to the electronic energy:
(perhaps to be used in another calculation)
Total thermal correction                  0.02755473 Eh      17.29 kcal/mol
Non-thermal (ZPE) correction              0.42352516 Eh     265.77 kcal/mol
-----------------------------------------------------------------------
Total correction                          0.45107989 Eh     283.06 kcal/mol


--------
ENTHALPY
--------

The enthalpy is H = U + kB*T
                kB is Boltzmann's constant
Total free energy                 ...    -60.93566840 Eh 
Thermal Enthalpy correction       ...      0.00094421 Eh       0.59 kcal/mol
-----------------------------------------------------------------------
Total Enthalpy                    ...    -60.93472419 Eh


Note: Only C1 symmetry has been detected, increase convergence thresholds 
      if your molecule has a higher symmetry. Symmetry factor of 1.0 is   
      used for the rotational entropy correction. 
 

Note: Rotational entropy computed according to Herzberg 
Infrared and Raman Spectra, Chapter V,1, Van Nostrand Reinhold, 1945 
Point Group:  C1, Symmetry Number:   1  
Rotational constants in cm-1:     0.011386     0.005869     0.005117 

Vibrational entropy computed according to the QRRHO of S. Grimme
Chem.Eur.J. 2012 18 9955


-------
ENTROPY
-------

The entropy contributions are T*S = T*(S(el)+S(vib)+S(rot)+S(trans))
     S(el)   - electronic entropy
     S(vib)  - vibrational entropy
     S(rot)  - rotational entropy
     S(trans)- translational entropy
The entropies will be listed as mutliplied by the temperature to get
units of energy

Electronic entropy                ...      0.00000000 Eh      0.00 kcal/mol
Vibrational entropy               ...      0.04704178 Eh     29.52 kcal/mol
Rotational entropy                ...      0.01653959 Eh     10.38 kcal/mol
Translational entropy             ...      0.02028014 Eh     12.73 kcal/mol
-----------------------------------------------------------------------
Final entropy term                ...      0.08386151 Eh     52.62 kcal/mol

In case the symmetry of your molecule has not been determined correctly
or in case you have a reason to use a different symmetry number we print 
out the resulting rotational entropy values for sn=1,12 :
 --------------------------------------------------------
|  sn= 1 | S(rot)=       0.01653959 Eh     10.38 kcal/mol|
|  sn= 2 | S(rot)=       0.01588513 Eh      9.97 kcal/mol|
|  sn= 3 | S(rot)=       0.01550230 Eh      9.73 kcal/mol|
|  sn= 4 | S(rot)=       0.01523067 Eh      9.56 kcal/mol|
|  sn= 5 | S(rot)=       0.01501999 Eh      9.43 kcal/mol|
|  sn= 6 | S(rot)=       0.01484784 Eh      9.32 kcal/mol|
|  sn= 7 | S(rot)=       0.01470230 Eh      9.23 kcal/mol|
|  sn= 8 | S(rot)=       0.01457622 Eh      9.15 kcal/mol|
|  sn= 9 | S(rot)=       0.01446501 Eh      9.08 kcal/mol|
|  sn=10 | S(rot)=       0.01436553 Eh      9.01 kcal/mol|
|  sn=11 | S(rot)=       0.01427554 Eh      8.96 kcal/mol|
|  sn=12 | S(rot)=       0.01419339 Eh      8.91 kcal/mol|
 --------------------------------------------------------


-------------------
GIBBS FREE ENERGY
-------------------

The Gibbs free energy is G = H - T*S

Total enthalpy                    ...    -60.93472419 Eh 
Total entropy correction          ...     -0.08386151 Eh    -52.62 kcal/mol
-----------------------------------------------------------------------
Final Gibbs free energy         ...    -61.01858570 Eh

For completeness - the Gibbs free energy minus the electronic energy
G-E(el)                           ...      0.36816259 Eh    231.03 kcal/mol


Total Time for Numerical Frequencies  :       161.686 sec

Timings for individual modules:

Sum of individual times         ...        2.064 sec (=   0.034 min)
Geometry relaxation             ...        1.222 sec (=   0.020 min)  59.2 %
XTB module                      ...        0.843 sec (=   0.014 min)  40.8 %
                             ****ORCA TERMINATED NORMALLY****
TOTAL RUN TIME: 0 days 0 hours 2 minutes 45 seconds 293 msec
