
                                 *****************
                                 * O   R   C   A *
                                 *****************

           --- An Ab Initio, DFT and Semiempirical electronic structure package ---

                  #######################################################
                  #                        -***-                        #
                  #          Department of theory and spectroscopy      #
                  #               Directorship: Frank Neese             #
                  #        Max Planck Institute fuer Kohlenforschung    #
                  #                Kaiser Wilhelm Platz 1               #
                  #                 D-45470 Muelheim/Ruhr               #
                  #                      Germany                        #
                  #                                                     #
                  #                  All rights reserved                #
                  #                        -***-                        #
                  #######################################################


                         Program Version 4.2.1 -  RELEASE  -


 With contributions from (in alphabetic order):
   Daniel Aravena         : Magnetic Suceptibility
   Michael Atanasov       : Ab Initio Ligand Field Theory (pilot matlab implementation)
   Alexander A. Auer      : GIAO ZORA, VPT2
   Ute Becker             : Parallelization
   Giovanni Bistoni       : ED, misc. LED, open-shell LED, HFLD
   Martin Brehm           : Molecular dynamics
   Dmytro Bykov           : SCF Hessian
   Vijay G. Chilkuri      : MRCI spin determinant printing, contributions to CSF-ICE
   Dipayan Datta          : RHF DLPNO-CCSD density
   Achintya Kumar Dutta   : EOM-CC, STEOM-CC
   Dmitry Ganyushin       : Spin-Orbit,Spin-Spin,Magnetic field MRCI
   Miquel Garcia          : C-PCM Hessian, Gaussian charge scheme
   Yang Guo               : DLPNO-NEVPT2, CIM, IAO-localization
   Andreas Hansen         : Spin unrestricted coupled pair/coupled cluster methods
   Benjamin Helmich-Paris : CASSCF linear response (MC-RPA)
   Lee Huntington         : MR-EOM, pCC
   Robert Izsak           : Overlap fitted RIJCOSX, COSX-SCS-MP3, EOM
   Christian Kollmar      : KDIIS, OOCD, Brueckner-CCSD(T), CCSD density
   Simone Kossmann        : Meta GGA functionals, TD-DFT gradient, OOMP2, MP2 Hessian
   Martin Krupicka        : AUTO-CI
   Lucas Lang             : DCDCAS
   Dagmar Lenk            : GEPOL surface, SMD
   Dimitrios Liakos       : Extrapolation schemes; Compound Job, initial MDCI parallelization
   Dimitrios Manganas     : Further ROCIS development; embedding schemes
   Dimitrios Pantazis     : SARC Basis sets
   Taras Petrenko         : DFT Hessian,TD-DFT gradient, ASA, ECA, R-Raman, ABS, FL, XAS/XES, NRVS
   Peter Pinski           : DLPNO-MP2, DLPNO-MP2 Gradient
   Christoph Reimann      : Effective Core Potentials
   Marius Retegan         : Local ZFS, SOC
   Christoph Riplinger    : Optimizer, TS searches, QM/MM, DLPNO-CCSD(T), (RO)-DLPNO pert. Triples
   Tobias Risthaus        : Range-separated hybrids, TD-DFT gradient, RPA, STAB
   Michael Roemelt        : Original ROCIS implementation
   Masaaki Saitow         : Open-shell DLPNO-CCSD energy and density
   Barbara Sandhoefer     : DKH picture change effects
   Avijit Sen             : IP-ROCIS
   Kantharuban Sivalingam : CASSCF convergence, NEVPT2, FIC-MRCI
   Bernardo de Souza      : ESD, SOC TD-DFT
   Georgi Stoychev        : AutoAux, RI-MP2 NMR
   Willem Van den Heuvel  : Paramagnetic NMR
   Boris Wezisla          : Elementary symmetry handling
   Frank Wennmohs         : Technical directorship


 We gratefully acknowledge several colleagues who have allowed us to
 interface, adapt or use parts of their codes:
   Stefan Grimme, W. Hujo, H. Kruse,             : VdW corrections, initial TS optimization,
                  C. Bannwarth                     DFT functionals, gCP, sTDA/sTD-DF
   Ed Valeev, F. Pavosevic, A. Kumar             : LibInt (2-el integral package), F12 methods
   Garnet Chan, S. Sharma, J. Yang, R. Olivares  : DMRG
   Ulf Ekstrom                                   : XCFun DFT Library
   Mihaly Kallay                                 : mrcc  (arbitrary order and MRCC methods)
   Andreas Klamt, Michael Diedenhofen            : otool_cosmo (COSMO solvation model)
   Jiri Pittner, Ondrej Demel                    : Mk-CCSD
   Frank Weinhold                                : gennbo (NPA and NBO analysis)
   Christopher J. Cramer and Donald G. Truhlar   : smd solvation model
   Lars Goerigk                                  : TD-DFT with DH, B97 family of functionals
   V. Asgeirsson, H. Jonsson                     : NEB implementation
   FAccTs GmbH                                   : IRC, NEB, NEB-TS, Multilevel, MM, QM/MM, CI optimization
   S Lehtola, MJT Oliveira, MAL Marques          : LibXC Library


 Your calculation uses the libint2 library for the computation of 2-el integrals
 For citations please refer to: http://libint.valeyev.net

 Your ORCA version has been built with support for libXC version: 4.2.3
 For citations please refer to: https://tddft.org/programs/libxc/

 This ORCA versions uses:
   CBLAS   interface :  Fast vector & matrix operations
   LAPACKE interface :  Fast linear algebra routines
   SCALAPACK package :  Parallel linear algebra routines




***************************************
The coordinates will be read from file: init.xyz
***************************************


Your calculation utilizes the SMD solvation module
Please cite in your paper:
A.V. Marenich, C.J. Cramer, D.G. Truhlar J. Phys. Chem. B, 113, (2009), 6378 

Your calculation utilizes the semiempirical GFN2-xTB method
Please cite in your paper:
C. Bannwarth, Ehlert S., S. Grimme,  J. Chem. Theory Comput., 15, (2019), 1652.
   

----- Orbital basis set information -----
Your calculation utilizes the basis: def2-SVP
   F. Weigend and R. Ahlrichs, Phys. Chem. Chem. Phys. 7, 3297 (2005).

================================================================================
                                        WARNINGS
                       Please study these warnings very carefully!
================================================================================


WARNING: The environment variable RSH_COMMAND is not set!
  ===> : All Displacements for the Numerical Hessian calculation
         will be started on localhost

WARNING: Geometry Optimization
  ===> : Switching off AutoStart
         For restart on a previous wavefunction, please use MOREAD

WARNING: Found dipole moment calculation with XTB calculation
  ===> : Switching off dipole moment calculation


INFO   : the flag for use of LIBINT has been found!

================================================================================
                                       INPUT FILE
================================================================================
NAME = opt+freq.inp
|  1> ! XTB2 Opt NumFreq
|  2> 
|  3> %cpcm
|  4>  smd true
|  5>  smdsolvent "ch2cl2"
|  6> end
|  7> 
|  8> %pal
|  9>  nprocs 12
| 10> end
| 11> 
| 12> *xyzfile 0 1 init.xyz
| 13> 
| 14> 
| 15>                          ****END OF INPUT****
================================================================================

                       *****************************
                       * Geometry Optimization Run *
                       *****************************

Geometry optimization settings:
Update method            Update   .... BFGS
Choice of coordinates    CoordSys .... Z-matrix Internals
Initial Hessian          InHess   .... Almoef's Model

Convergence Tolerances:
Energy Change            TolE     ....  5.0000e-06 Eh
Max. Gradient            TolMAXG  ....  3.0000e-04 Eh/bohr
RMS Gradient             TolRMSG  ....  1.0000e-04 Eh/bohr
Max. Displacement        TolMAXD  ....  4.0000e-03 bohr
RMS Displacement         TolRMSD  ....  2.0000e-03 bohr
Strict Convergence                ....  False
------------------------------------------------------------------------------
                        ORCA OPTIMIZATION COORDINATE SETUP
------------------------------------------------------------------------------

The optimization will be done in new redundant internal coordinates
Making redundant internal coordinates   ...  (new redundants) done
Evaluating the initial hessian          ...  (Almloef) done
Evaluating the coordinates              ...  done
Calculating the B-matrix                .... done
Calculating the G-matrix                .... done
Diagonalizing the G-matrix              .... done
Small eigenvalue found = 6.060e-03
Small eigenvalue found = 1.208e-02
The first mode is                       ....   73
The number of degrees of freedom        ....   84

    -----------------------------------------------------------------
                    Redundant Internal Coordinates


    -----------------------------------------------------------------
         Definition                    Initial Value    Approx d2E/dq
    -----------------------------------------------------------------
      1. B(C   1,C   0)                  1.3898         0.625154   
      2. B(C   2,C   1)                  1.3990         0.604487   
      3. B(C   3,C   2)                  1.4015         0.598959   
      4. B(C   4,C   3)                  1.3862         0.633689   
      5. B(C   5,C   0)                  1.3902         0.624416   
      6. B(C   5,C   4)                  1.3945         0.614493   
      7. B(H   6,C   1)                  1.0830         0.369470   
      8. B(H   7,C   3)                  1.0807         0.372583   
      9. B(H   8,C   5)                  1.0821         0.370652   
     10. B(C  10,N   9)                  1.4547         0.441266   
     11. B(H  11,C  10)                  1.0972         0.350746   
     12. B(H  12,C  10)                  1.0942         0.354589   
     13. B(H  13,H   7)                  2.1572         0.001367   
     14. B(H  13,N   9)                  1.8507         0.019717   
     15. B(C  15,N   9)                  1.2694         0.871512   
     16. B(C  15,C   2)                  1.4693         0.466821   
     17. B(H  16,C  15)                  1.0962         0.352033   
     18. B(O  17,H  14)                  0.9635         0.513292   
     19. B(O  17,H  13)                  0.9832         0.477474   
     20. B(C  18,C  10)                  1.5293         0.374494   
     21. B(H  19,C  18)                  1.0941         0.354759   
     22. B(H  20,C  18)                  1.0932         0.355913   
     23. B(C  21,C  18)                  1.5280         0.376296   
     24. B(H  22,C  21)                  1.0942         0.354602   
     25. B(H  23,C  21)                  1.0941         0.354660   
     26. B(H  24,C   0)                  1.0818         0.371047   
     27. B(H  25,C   4)                  1.0820         0.370800   
     28. B(C  26,C  21)                  1.5267         0.378089   
     29. B(H  27,C  26)                  1.0917         0.357840   
     30. B(H  28,C  26)                  1.0926         0.356672   
     31. B(H  29,C  26)                  1.0927         0.356551   
     32. A(C   1,C   0,C   5)          119.8711         0.435269   
     33. A(C   5,C   0,H  24)          120.1928         0.355131   
     34. A(C   1,C   0,H  24)          119.9362         0.355202   
     35. A(C   0,C   1,H   6)          119.9127         0.354946   
     36. A(C   0,C   1,C   2)          120.7268         0.432736   
     37. A(C   2,C   1,H   6)          119.3604         0.352930   
     38. A(C   1,C   2,C   3)          118.9559         0.429422   
     39. A(C   3,C   2,C  15)          122.7393         0.410081   
     40. A(C   1,C   2,C  15)          118.3048         0.410749   
     41. A(C   2,C   3,H   7)          119.8996         0.352882   
     42. A(C   4,C   3,H   7)          119.9002         0.356270   
     43. A(C   2,C   3,C   4)          120.2002         0.433077   
     44. A(C   3,C   4,H  25)          119.6728         0.355980   
     45. A(C   5,C   4,H  25)          119.9176         0.354128   
     46. A(C   3,C   4,C   5)          120.4096         0.435076   
     47. A(C   0,C   5,C   4)          119.8363         0.433924   
     48. A(C   4,C   5,H   8)          120.0382         0.354104   
     49. A(C   0,C   5,H   8)          120.1255         0.355067   
     50. A(C   3,H   7,H  13)          136.1695         0.135063   
     51. A(C  10,N   9,H  13)          108.3719         0.213110   
     52. A(H  13,N   9,C  15)          132.4079         0.233779   
     53. A(C  10,N   9,C  15)          119.1348         0.428444   
     54. A(H  11,C  10,H  12)          107.7364         0.288942   
     55. A(N   9,C  10,H  12)          107.4244         0.330503   
     56. A(N   9,C  10,H  11)          111.6610         0.329908   
     57. A(H  12,C  10,C  18)          108.8162         0.323629   
     58. A(H  11,C  10,C  18)          110.1739         0.323051   
     59. A(N   9,C  10,C  18)          110.8974         0.371703   
     60. A(H   7,H  13,N   9)           83.5758         0.112408   
     61. A(H   7,H  13,O  17)           98.7796         0.137155   
     62. A(N   9,C  15,H  16)          120.5271         0.370261   
     63. A(C   2,C  15,H  16)          115.0726         0.335225   
     64. A(C   2,C  15,N   9)          124.4002         0.435650   
     65. A(H  13,O  17,H  14)          104.2872         0.316719   
     66. A(H  20,C  18,C  21)          109.7298         0.324082   
     67. A(H  19,C  18,C  21)          109.7876         0.323910   
     68. A(C  10,C  18,C  21)          112.5405         0.363955   
     69. A(H  19,C  18,H  20)          106.7883         0.289626   
     70. A(C  10,C  18,H  20)          108.9383         0.323827   
     71. A(C  10,C  18,H  19)          108.8843         0.323655   
     72. A(H  23,C  21,C  26)          109.5242         0.324148   
     73. A(H  22,C  21,C  26)          109.5607         0.324139   
     74. A(C  18,C  21,C  26)          112.6497         0.364551   
     75. A(H  22,C  21,H  23)          106.3847         0.289446   
     76. A(C  18,C  21,H  23)          109.4005         0.323895   
     77. A(C  18,C  21,H  22)          109.1253         0.323886   
     78. A(H  28,C  26,H  29)          107.5833         0.289952   
     79. A(H  27,C  26,H  29)          107.7021         0.290101   
     80. A(C  21,C  26,H  29)          111.0988         0.324431   
     81. A(H  27,C  26,H  28)          107.7318         0.290116   
     82. A(C  21,C  26,H  28)          111.0809         0.324449   
     83. A(C  21,C  26,H  27)          111.4649         0.324623   
     84. D(C   2,C   1,C   0,C   5)     -0.1317         0.027071   
     85. D(C   2,C   1,C   0,H  24)    179.9267         0.027071   
     86. D(H   6,C   1,C   0,H  24)     -0.0365         0.027071   
     87. D(H   6,C   1,C   0,C   5)    179.9050         0.027071   
     88. D(C  15,C   2,C   1,H   6)      0.0775         0.025211   
     89. D(C   3,C   2,C   1,C   0)      0.1640         0.025211   
     90. D(C   3,C   2,C   1,H   6)   -179.8726         0.025211   
     91. D(C  15,C   2,C   1,C   0)   -179.8860         0.025211   
     92. D(H   7,C   3,C   2,C  15)     -0.1120         0.024727   
     93. D(C   4,C   3,C   2,C  15)    179.9815         0.024727   
     94. D(H   7,C   3,C   2,C   1)    179.8358         0.024727   
     95. D(C   4,C   3,C   2,C   1)     -0.0707         0.024727   
     96. D(H  25,C   4,C   3,C   2)    179.9140         0.027863   
     97. D(C   5,C   4,C   3,H   7)   -179.9605         0.027863   
     98. D(C   5,C   4,C   3,C   2)     -0.0540         0.027863   
     99. D(H  25,C   4,C   3,H   7)      0.0075         0.027863   
    100. D(H   8,C   5,C   4,H  25)      0.0726         0.026101   
    101. D(C   0,C   5,C   4,H  25)   -179.8802         0.026101   
    102. D(C   0,C   5,C   4,C   3)      0.0877         0.026101   
    103. D(H   8,C   5,C   0,H  24)     -0.0065         0.027003   
    104. D(C   4,C   5,C   0,C   1)      0.0050         0.027003   
    105. D(H   8,C   5,C   4,C   3)   -179.9595         0.026101   
    106. D(H   8,C   5,C   0,C   1)   -179.9478         0.027003   
    107. D(C   4,C   5,C   0,H  24)    179.9463         0.027003   
    108. D(H  13,H   7,C   3,C   4)   -171.8957         0.119121   
    109. D(H  13,H   7,C   3,C   2)      8.1976         0.119121   
    110. D(C  18,C  10,N   9,C  15)   -119.4025         0.016604   
    111. D(H  12,C  10,N   9,H  13)    -55.2468         0.016604   
    112. D(H  12,C  10,N   9,C  15)    121.8025         0.016604   
    113. D(H  11,C  10,N   9,H  13)   -173.1641         0.016604   
    114. D(H  11,C  10,N   9,C  15)      3.8851         0.016604   
    115. D(C  18,C  10,N   9,H  13)     63.5483         0.016604   
    116. D(H   7,H  13,N   9,C  15)      7.5666         0.001728   
    117. D(H   7,H  13,N   9,C  10)   -175.9247         0.001728   
    118. D(N   9,H  13,H   7,C   3)    -10.6571         0.001517   
    119. D(O  17,H  13,H   7,C   3)    168.5358         0.001517   
    120. D(H  16,C  15,N   9,H  13)    175.3952         0.066202   
    121. D(C   2,C  15,N   9,H  13)     -4.4578         0.066202   
    122. D(C   2,C  15,N   9,C  10)    179.3359         0.066202   
    123. D(H  16,C  15,C   2,C   3)    178.1074         0.014840   
    124. D(H  16,C  15,C   2,C   1)     -1.8406         0.014840   
    125. D(H  16,C  15,N   9,C  10)     -0.8110         0.066202   
    126. D(N   9,C  15,C   2,C   3)     -2.0323         0.014840   
    127. D(N   9,C  15,C   2,C   1)    178.0197         0.014840   
    128. D(H  14,O  17,H  13,H   7)    -85.7120         0.277676   
    129. D(H  14,O  17,N   9,C  15)    -78.2904         0.001500   
    130. D(H  14,O  17,N   9,C  10)     97.7542         0.001500   
    131. D(C  21,C  18,C  10,H  12)    -58.0701         0.011195   
    132. D(C  21,C  18,C  10,N   9)   -176.0218         0.011195   
    133. D(H  20,C  18,C  10,H  12)     63.8567         0.011195   
    134. D(H  20,C  18,C  10,H  11)   -178.2345         0.011195   
    135. D(H  20,C  18,C  10,N   9)    -54.0950         0.011195   
    136. D(H  19,C  18,C  10,H  12)    179.9677         0.011195   
    137. D(C  21,C  18,C  10,H  11)     59.8387         0.011195   
    138. D(H  19,C  18,C  10,H  11)    -62.1235         0.011195   
    139. D(H  19,C  18,C  10,N   9)     62.0159         0.011195   
    140. D(H  23,C  21,C  18,H  20)   -178.8672         0.011297   
    141. D(H  23,C  21,C  18,H  19)     64.0591         0.011297   
    142. D(H  23,C  21,C  18,C  10)    -57.3900         0.011297   
    143. D(H  22,C  21,C  18,H  20)    -62.8488         0.011297   
    144. D(H  22,C  21,C  18,H  19)   -179.9225         0.011297   
    145. D(C  26,C  21,C  18,C  10)   -179.4553         0.011297   
    146. D(H  22,C  21,C  18,C  10)     58.6284         0.011297   
    147. D(C  26,C  21,C  18,H  20)     59.0676         0.011297   
    148. D(C  26,C  21,C  18,H  19)    -58.0062         0.011297   
    149. D(H  29,C  26,C  21,H  23)    -61.9432         0.011399   
    150. D(H  29,C  26,C  21,H  22)   -178.2781         0.011399   
    151. D(H  29,C  26,C  21,C  18)     60.0522         0.011399   
    152. D(H  28,C  26,C  21,H  23)    178.3368         0.011399   
    153. D(H  28,C  26,C  21,H  22)     62.0020         0.011399   
    154. D(H  28,C  26,C  21,C  18)    -59.6678         0.011399   
    155. D(H  27,C  26,C  21,H  23)     58.1841         0.011399   
    156. D(H  27,C  26,C  21,H  22)    -58.1508         0.011399   
    157. D(H  27,C  26,C  21,C  18)   -179.8205         0.011399   
    -----------------------------------------------------------------

Number of atoms                         .... 30
Number of degrees of freedom            .... 157

         *************************************************************
         *                GEOMETRY OPTIMIZATION CYCLE   1            *
         *************************************************************
      -----------------------------------------------------------      
     |                   =====================                   |     
     |                           x T B                           |     
     |                   =====================                   |     
     |                         S. Grimme                         |     
     |          Mulliken Center for Theoretical Chemistry        |     
     |                    University of Bonn                     |     
      -----------------------------------------------------------      

   * xtb version 6.3.0 (49875a8) compiled by 'schneider@apollo14' on 2020-05-23

   xtb is free software: you can redistribute it and/or modify it under
   the terms of the GNU Lesser General Public License as published by
   the Free Software Foundation, either version 3 of the License, or
   (at your option) any later version.
   
   xtb is distributed in the hope that it will be useful,
   but WITHOUT ANY WARRANTY; without even the implied warranty of
   MERCHANTABILITY or FITNESS FOR A PARTICULAR PURPOSE.  See the
   GNU Lesser General Public License for more details.
   
   Cite this work as:
   * S. Grimme, C. Bannwarth, P. Shushkov, J. Chem. Theory Comput., 2017,
     13, 1989-2009. DOI: 10.1021/acs.jctc.7b00118
   * C. Bannwarth, S. Ehlert and S. Grimme., J. Chem. Theory Comput., 2019,
     15, 1652-1671. DOI: 10.1021/acs.jctc.8b01176
   * P. Pracht, E. Caldeweyher, S. Ehlert, S. Grimme, ChemRxiv, 2019, preprint.
     DOI: 10.26434/chemrxiv.8326202.v1
   
   for GFN-FF:
   * S. Spicher and S. Grimme, Angew. Chem. Int. Ed., 2020,
     DOI: 10.1002/anie.202004239
   
   for DFT-D4:
   * E. Caldeweyher, C. Bannwarth and S. Grimme, J. Chem. Phys., 2017,
     147, 034112. DOI: 10.1063/1.4993215
   * E. Caldeweyher, S. Ehlert, A. Hansen, H. Neugebauer, S. Spicher,
     C. Bannwarth and S. Grimme, J. Chem. Phys., 2019, 150, 154122.
     DOI: 10.1063/1.5090222
   
   for sTDA-xTB:
   * S. Grimme and C. Bannwarth, J. Chem. Phys., 2016, 145, 054103.
     DOI: 10.1063/1.4959605
   
   in the mass-spec context:
   * V. Asgeirsson, C. Bauer and S. Grimme, Chem. Sci., 2017, 8, 4879.
     DOI: 10.1039/c7sc00601b
   * J. Koopman and S. Grimme, ACS Omega 2019, 4, 12, 15120-15133.
     DOI: 10.1021/acsomega.9b02011
   
   for metadynamics refer to:
   * S. Grimme, J. Chem. Theory Comput., 2019, 155, 2847-2862
     DOI: 10.1021/acs.jctc.9b00143
   
   with help from (in alphabetical order)
   C. Bannwarth, F. Bohle, G. Brandenburg, E. Caldeweyher, M. Checinski,
   S. Dohm, S. Ehlert, S. Ehrlich, F. März, H. Neugebauer, J. Pisarek,
   P. Pracht, P. Shushkov, and S. Spicher.
   
 * started run on 2020/06/19 at 16:19:00.507     

           -------------------------------------------------
          |                Calculation Setup                |
           -------------------------------------------------

          program call               : /opt/orca/otool_xtb opt+freq_XTB.xyz --grad -c 0 -u 0 -P 12 --namespace opt+freq --gbsa CH2Cl2
          calculation namespace      : opt+freq
          coordinate file            : opt+freq_XTB.xyz
          number of atoms            :                    30
          number of electrons        :                    72
          charge                     :                     0
          spin                       :                   0.0
          first test random number   :      0.63197959982827

   ID    Z sym.   atoms
    1    6 C      1-6, 11, 16, 19, 22, 27
    2    1 H      7-9, 12-15, 17, 20, 21, 23-26, 28-30
    3    7 N      10
    4    8 O      18

molecular fragmentation (1/2 indicates fragments):
111111111111122112111111111111
# atoms in fragment 1/2:    27     3
 fragment masses (1/2) :      161.24       18.02
CMA distance (Bohr)    :   6.107
constraining FC (au)   :  0.0500
########################################################################
[WARNING] Please study the warnings concerning your input carefully
-1- prog_main_parseArguments: Process number higher than OMP_NUM_THREADS, I hope you know what you are doing.
########################################################################
 Solvent             : CH2Cl2
 Using internal parameter file: .param_gbsa2_CH2Cl2
 Gsolv ref. state (COSMO-RS): gsolv [1 M gas/solution]
 temperature (mdtemp)       :    298.14999999999998     
 dielectric constant        :    8.9299999999999997     
 rho                        :    1.3300000000000003     
 mass                       :    84.930000000000007     
 surface tension            :    15.568945408385856     
 probe radius               :   0.71987590000000001     
 Gshift (Eh)                :    4.4408291734517593E-003
 c1                         :    1.4917377599999999     
 soset                      :    0.0000000000000000     
 HB correction              :  F

           -------------------------------------------------
          |                 G F N 2 - x T B                 |
           -------------------------------------------------

        Reference                      10.1021/acs.jctc.8b01176
      * Hamiltonian:
        H0-scaling (s, p, d)           1.850000    2.230000    2.230000
        zeta-weighting                 0.500000
      * Dispersion:
        s8                             2.700000
        a1                             0.520000
        a2                             5.000000
        s9                             5.000000
      * Repulsion:
        kExp                           1.500000    1.000000
        rExp                           1.000000
      * Coulomb:
        alpha                          2.000000
        third order                    shell-resolved
        anisotropic                    true
        a3                             3.000000
        a5                             4.000000
        cn-shift                       1.200000
        cn-exp                         4.000000
        max-rad                        5.000000


          ...................................................
          :                      SETUP                      :
          :.................................................:
          :  # basis functions                  69          :
          :  # atomic orbitals                  69          :
          :  # shells                           43          :
          :  # electrons                        72          :
          :  max. iterations                   250          :
          :  Hamiltonian                  GFN2-xTB          :
          :  restarted?                      false          :
          :  GBSA solvation                   true          :
          :  PC potential                    false          :
          :  electronic temp.          300.0000000     K    :
          :  accuracy                    1.0000000          :
          :  -> integral cutoff          0.2500000E+02      :
          :  -> integral neglect         0.1000000E-07      :
          :  -> SCF convergence          0.1000000E-05 Eh   :
          :  -> wf. convergence          0.1000000E-03 e    :
          :  Broyden damping             0.4000000          :
          ...................................................

 iter      E             dE          RMSdq      gap      omega  full diag
   1    -39.7336865 -0.397337E+02  0.404E+00    3.29       0.0  T
   2    -39.7692630 -0.355766E-01  0.246E+00    3.30       1.0  T
   3    -39.7634338  0.582924E-02  0.835E-01    2.92       1.0  T
   4    -39.7721659 -0.873214E-02  0.353E-01    3.09       1.0  T
   5    -39.7740696 -0.190365E-02  0.682E-02    3.03       1.0  T
   6    -39.7740821 -0.125403E-04  0.343E-02    3.05       1.0  T
   7    -39.7740887 -0.663390E-05  0.157E-02    3.04       1.2  T
   8    -39.7740904 -0.169465E-05  0.384E-03    3.05       4.8  T
   9    -39.7740906 -0.126258E-06  0.169E-03    3.05      10.8  T
  10    -39.7740906 -0.242620E-08  0.941E-04    3.05      19.4  T
  11    -39.7740906 -0.859121E-08  0.254E-04    3.05      71.9  T

   *** convergence criteria satisfied after 11 iterations ***

         #    Occupation            Energy/Eh            Energy/eV
      -------------------------------------------------------------
         1        2.0000           -0.6653064             -18.1039
       ...           ...                  ...                  ...
        30        2.0000           -0.4331604             -11.7869
        31        2.0000           -0.4309793             -11.7275
        32        2.0000           -0.4248763             -11.5615
        33        2.0000           -0.4230851             -11.5127
        34        2.0000           -0.4114148             -11.1952
        35        2.0000           -0.4034437             -10.9783
        36        2.0000           -0.3890879             -10.5876 (HOMO)
        37                         -0.2771518              -7.5417 (LUMO)
        38                         -0.2312149              -6.2917
        39                         -0.1942350              -5.2854
        40                         -0.0919261              -2.5014
        41                          0.0217486               0.5918
       ...                                ...                  ...
        69                          0.6481846              17.6380
      -------------------------------------------------------------
                  HL-Gap            0.1119361 Eh            3.0459 eV
             Fermi-level           -0.3331199 Eh           -9.0647 eV

 SCC (total)                   0 d,  0 h,  0 min,  0.079 sec
 SCC setup                      ...        0 min,  0.001 sec (  1.654%)
 Dispersion                     ...        0 min,  0.000 sec (  0.466%)
 classical contributions        ...        0 min,  0.000 sec (  0.167%)
 integral evaluation            ...        0 min,  0.014 sec ( 18.222%)
 iterations                     ...        0 min,  0.037 sec ( 47.261%)
 molecular gradient             ...        0 min,  0.023 sec ( 29.530%)
 printout                       ...        0 min,  0.002 sec (  2.674%)

         :::::::::::::::::::::::::::::::::::::::::::::::::::::
         ::                     SUMMARY                     ::
         :::::::::::::::::::::::::::::::::::::::::::::::::::::
         :: total energy             -39.196361821194 Eh    ::
         :: total w/o Gsasa/hb       -39.179763949374 Eh    ::
         :: gradient norm              0.023447817973 Eh/a0 ::
         :: HOMO-LUMO gap              3.045935343618 eV    ::
         ::.................................................::
         :: SCC energy               -39.790688442871 Eh    ::
         :: -> isotropic ES            0.048697871254 Eh    ::
         :: -> anisotropic ES          0.000546268667 Eh    ::
         :: -> anisotropic XC          0.027465455091 Eh    ::
         :: -> dispersion             -0.022633287775 Eh    ::
         :: -> Gsolv                  -0.021190439181 Eh    ::
         ::    -> Gborn               -0.004592567361 Eh    ::
         ::    -> Gsasa               -0.021038700994 Eh    ::
         ::    -> Ghb                  0.000000000000 Eh    ::
         ::    -> Gshift               0.004440829173 Eh    ::
         :: repulsion energy           0.594395889771 Eh    ::
         :: add. restraining           0.000000000000 Eh    ::
         :::::::::::::::::::::::::::::::::::::::::::::::::::::

           -------------------------------------------------
          |                Property Printout                |
           -------------------------------------------------

    * Orbital Energies and Occupations

         #    Occupation            Energy/Eh            Energy/eV
      -------------------------------------------------------------
         1        2.0000           -0.6653064             -18.1039
       ...           ...                  ...                  ...
        24        2.0000           -0.4776651             -12.9979
        25        2.0000           -0.4740806             -12.9004
        26        2.0000           -0.4630855             -12.6012
        27        2.0000           -0.4470251             -12.1642
        28        2.0000           -0.4417674             -12.0211
        29        2.0000           -0.4384522             -11.9309
        30        2.0000           -0.4331604             -11.7869
        31        2.0000           -0.4309793             -11.7275
        32        2.0000           -0.4248763             -11.5615
        33        2.0000           -0.4230851             -11.5127
        34        2.0000           -0.4114148             -11.1952
        35        2.0000           -0.4034437             -10.9783
        36        2.0000           -0.3890879             -10.5876 (HOMO)
        37                         -0.2771518              -7.5417 (LUMO)
        38                         -0.2312149              -6.2917
        39                         -0.1942350              -5.2854
        40                         -0.0919261              -2.5014
        41                          0.0217486               0.5918
        42                          0.0821784               2.2362
        43                          0.0950417               2.5862
        44                          0.0988094               2.6887
        45                          0.1167734               3.1776
        46                          0.1211338               3.2962
        47                          0.1321697               3.5965
       ...                                ...                  ...
        69                          0.6481846              17.6380
      -------------------------------------------------------------
                  HL-Gap            0.1119361 Eh            3.0459 eV
             Fermi-level           -0.3331199 Eh           -9.0647 eV

     #   Z        covCN         q      C6AA      α(0)
     1   6 C      2.913    -0.028    28.710     8.786
     2   6 C      2.922    -0.029    28.733     8.790
     3   6 C      2.968     0.004    27.934     8.669
     4   6 C      2.917    -0.029    28.714     8.787
     5   6 C      2.914    -0.027    28.673     8.781
     6   6 C      2.915    -0.024    28.598     8.769
     7   1 H      0.925     0.038     2.481     2.463
     8   1 H      0.926     0.062     2.171     2.304
     9   1 H      0.925     0.043     2.403     2.424
    10   7 N      1.824    -0.263    27.683     7.796
    11   6 C      3.762     0.020    20.288     6.421
    12   1 H      0.924     0.012     2.858     2.644
    13   1 H      0.924     0.045     2.385     2.415
    14   1 H      0.802     0.310     0.692     1.307
    15   1 H      0.805     0.278     0.791     1.397
    16   6 C      2.853     0.079    26.235     8.395
    17   1 H      0.924     0.006     2.954     2.688
    18   8 O      1.607    -0.625    25.799     6.855
    19   6 C      3.802    -0.060    21.651     6.625
    20   1 H      0.924     0.034     2.536     2.490
    21   1 H      0.924     0.050     2.315     2.379
    22   6 C      3.800    -0.053    21.518     6.605
    23   1 H      0.924     0.033     2.541     2.493
    24   1 H      0.924     0.031     2.575     2.509
    25   1 H      0.925     0.042     2.427     2.436
    26   1 H      0.925     0.044     2.394     2.420
    27   6 C      3.750    -0.102    22.519     6.768
    28   1 H      0.924     0.037     2.483     2.464
    29   1 H      0.924     0.037     2.491     2.468
    30   1 H      0.924     0.035     2.517     2.481

 Mol. C6AA /au·bohr⁶  :       8342.531145
 Mol. C8AA /au·bohr⁸  :     189133.748826
 Mol. α(0) /au        :        141.830529


Wiberg/Mayer (AO) data.
largest (>0.10) Wiberg bond orders for each atom
          total WBO             WBO to atom ...
     1  C   3.991        C    2 1.451    C    6 1.436    H   25 0.970    C    4 0.106
     2  C   3.987        C    1 1.451    C    3 1.378    H    7 0.968    C    5 0.105
     3  C   3.988        C    2 1.378    C    4 1.366    C   16 1.085
     4  C   3.988        C    5 1.465    C    3 1.366    H    8 0.962    C    1 0.106
     5  C   3.991        C    4 1.465    C    6 1.423    H   26 0.970    C    2 0.105
     6  C   3.987        C    1 1.436    C    5 1.423    H    9 0.971
     7  H   0.999        C    2 0.968
     8  H   0.996        C    4 0.962
     9  H   0.998        C    6 0.971
    10  N   3.112        C   16 1.832    C   11 1.019
    11  C   3.983        N   10 1.019    C   19 0.987    H   12 0.966    H   13 0.958
    12  H   1.000        C   11 0.966
    13  H   0.995        C   11 0.958
    14  H   0.904        O   18 0.848
    15  H   0.923        O   18 0.922
    16  C   3.967        N   10 1.832    C    3 1.085    H   17 0.941
    17  H   1.000        C   16 0.941
    18  O   1.805        H   15 0.922    H   14 0.848
    19  C   3.990        C   22 1.006    C   11 0.987    H   20 0.978    H   21 0.975
    20  H   0.999        C   19 0.978
    21  H   0.997        C   19 0.975
    22  C   3.996        C   27 1.019    C   19 1.006    H   24 0.978    H   23 0.978
    23  H   0.999        C   22 0.978
    24  H   0.999        C   22 0.978
    25  H   0.998        C    1 0.970
    26  H   0.998        C    5 0.970
    27  C   3.995        C   22 1.019    H   30 0.988    H   29 0.988    H   28 0.987
    28  H   0.998        C   27 0.987
    29  H   0.999        C   27 0.988
    30  H   0.999        C   27 0.988
Topologies differ in total number of bonds
Writing topology from bond orders to xtbtopo.mol

molecular dipole:
                 x           y           z       tot (Debye)
 q only:        0.506       0.769      -0.201
   full:        0.515       1.341      -0.341       3.753
molecular quadrupole (traceless):
                xx          xy          yy          xz          yz          zz
 q only:        6.607      -5.447      -7.396       0.421       1.644       0.789
  q+dip:        7.091      -9.253      -5.395       2.591       3.526      -1.696
   full:        5.855      -9.281      -7.749       1.752       2.847       1.894


           -------------------------------------------------
          | TOTAL ENERGY              -39.196361821194 Eh   |
          | GRADIENT NORM               0.023447817973 Eh/α |
          | HOMO-LUMO GAP               3.045935343618 eV   |
           -------------------------------------------------

------------------------------------------------------------------------
 * finished run on 2020/06/19 at 16:19:00.623     
------------------------------------------------------------------------
 total:
 * wall-time:     0 d,  0 h,  0 min,  0.116 sec
 *  cpu-time:     0 d,  0 h,  0 min,  1.275 sec
 * ratio c/w:    10.953 speedup
 SCF:
 * wall-time:     0 d,  0 h,  0 min,  0.079 sec
 *  cpu-time:     0 d,  0 h,  0 min,  0.891 sec
 * ratio c/w:    11.233 speedup


-------------------------   --------------------
FINAL SINGLE POINT ENERGY       -39.196361821190
-------------------------   --------------------

------------------------------------------------------------------------------
                         ORCA GEOMETRY RELAXATION STEP
------------------------------------------------------------------------------

Reading the OPT-File                    .... done
Getting information on internals        .... done
Copying old internal coords+grads       .... done
Making the new internal coordinates     .... (new redundants).... done
Validating the new internal coordinates .... (new redundants).... done
Calculating the B-matrix                .... done
Calculating the G,G- and P matrices     .... done
Transforming gradient to internals      .... done
Projecting the internal gradient        .... done
Number of atoms                         ....  30
Number of internal coordinates          .... 157
Current Energy                          ....   -39.196361821 Eh
Current gradient norm                   ....     0.023447818 Eh/bohr
Maximum allowed component of the step   ....  0.300
Current trust radius                    ....  0.300
Evaluating the initial hessian          ....  (Almloef) done
Projecting the Hessian                  .... done
Forming the augmented Hessian           .... done
Diagonalizing the augmented Hessian     .... done
Last element of RFO vector              ....  0.931289958
Lowest eigenvalues of augmented Hessian:
 -0.002312680  0.002062157  0.011197781  0.011297579  0.011399279
Length of the computed step             ....  0.391155038
Warning: the length of the step is outside the trust region - taking restricted step instead
The input lambda is                     ....    -0.002313
   iter:   1  x=   -0.003144  g=   75.769052 f(x)=     0.063002
   iter:   2  x=   -0.003519  g=   42.148273 f(x)=     0.015796
   iter:   3  x=   -0.003570  g=   33.474977 f(x)=     0.001709
   iter:   4  x=   -0.003571  g=   32.484782 f(x)=     0.000025
   iter:   5  x=   -0.003571  g=   32.469897 f(x)=     0.000000
   iter:   6  x=   -0.003571  g=   32.469894 f(x)=     0.000000
The output lambda is                    ....    -0.003571 (6 iterations)
The final length of the internal step   ....  0.300000000
Converting the step to cartesian space:
 Initial RMS(Int)=    0.0239426065
Transforming coordinates:
 Iter   0:  RMS(Cart)=    0.0913707448 RMS(Int)=    0.7094251601
 Iter   1:  RMS(Cart)=    0.0104421417 RMS(Int)=    0.0056197145
 Iter   2:  RMS(Cart)=    0.0019971727 RMS(Int)=    0.0007960953
 Iter   3:  RMS(Cart)=    0.0005081860 RMS(Int)=    0.0002491609
 Iter   4:  RMS(Cart)=    0.0001034706 RMS(Int)=    0.0000486383
 Iter   5:  RMS(Cart)=    0.0000245621 RMS(Int)=    0.0000107434
 Iter   6:  RMS(Cart)=    0.0000053381 RMS(Int)=    0.0000027587
 Iter   7:  RMS(Cart)=    0.0000011748 RMS(Int)=    0.0000004557
 Iter   8:  RMS(Cart)=    0.0000002757 RMS(Int)=    0.0000001485
 Iter   9:  RMS(Cart)=    0.0000000563 RMS(Int)=    0.0000000202
done
Storing new coordinates                 .... done

                                .--------------------.
          ----------------------|Geometry convergence|-------------------------
          Item                value                   Tolerance       Converged
          ---------------------------------------------------------------------
          RMS gradient        0.0021378154            0.0001000000      NO
          MAX gradient        0.0134389377            0.0003000000      NO
          RMS step            0.0239426065            0.0020000000      NO
          MAX step            0.2750047613            0.0040000000      NO
          ........................................................
          Max(Bonds)      0.0189      Max(Angles)    0.75
          Max(Dihed)       15.76      Max(Improp)    0.00
          ---------------------------------------------------------------------

The optimization has not yet converged - more geometry cycles are needed


    ---------------------------------------------------------------------------
                         Redundant Internal Coordinates
                            (Angstroem and degrees)

        Definition                    Value    dE/dq     Step     New-Value
    ----------------------------------------------------------------------------
     1. B(C   1,C   0)                1.3898  0.007573 -0.0064    1.3835   
     2. B(C   2,C   1)                1.3990  0.003702 -0.0033    1.3957   
     3. B(C   3,C   2)                1.4015  0.004844 -0.0049    1.3966   
     4. B(C   4,C   3)                1.3862  0.005359 -0.0045    1.3817   
     5. B(C   5,C   0)                1.3902  0.005341 -0.0044    1.3857   
     6. B(C   5,C   4)                1.3945  0.007168 -0.0061    1.3885   
     7. B(H   6,C   1)                1.0830  0.001314 -0.0019    1.0811   
     8. B(H   7,C   3)                1.0807  0.002511 -0.0030    1.0778   
     9. B(H   8,C   5)                1.0821  0.001601 -0.0023    1.0799   
    10. B(C  10,N   9)                1.4547  0.013439 -0.0160    1.4387   
    11. B(H  11,C  10)                1.0972 -0.002550  0.0038    1.1010   
    12. B(H  12,C  10)                1.0942 -0.000748  0.0011    1.0953   
    13. B(H  13,H   7)                2.1572  0.001148 -0.0189    2.1383   
    14. B(H  13,N   9)                1.8507  0.001074 -0.0169    1.8338   
    15. B(C  15,N   9)                1.2694  0.006164 -0.0040    1.2654   
    16. B(C  15,C   2)                1.4693  0.010196 -0.0127    1.4567   
    17. B(H  16,C  15)                1.0962 -0.001977  0.0029    1.0991   
    18. B(O  17,H  14)                0.9635  0.001805 -0.0018    0.9617   
    19. B(O  17,H  13)                0.9832  0.002573 -0.0028    0.9804   
    20. B(C  18,C  10)                1.5293  0.001248 -0.0017    1.5276   
    21. B(H  19,C  18)                1.0941  0.000100 -0.0001    1.0939   
    22. B(H  20,C  18)                1.0932  0.000519 -0.0008    1.0924   
    23. B(C  21,C  18)                1.5280  0.002452 -0.0034    1.5246   
    24. B(H  22,C  21)                1.0942  0.000452 -0.0007    1.0935   
    25. B(H  23,C  21)                1.0941  0.000084 -0.0001    1.0940   
    26. B(H  24,C   0)                1.0818  0.001390 -0.0020    1.0799   
    27. B(H  25,C   4)                1.0820  0.001541 -0.0022    1.0799   
    28. B(C  26,C  21)                1.5267  0.004381 -0.0061    1.5207   
    29. B(H  27,C  26)                1.0917  0.002440 -0.0036    1.0881   
    30. B(H  28,C  26)                1.0926  0.002567 -0.0038    1.0888   
    31. B(H  29,C  26)                1.0927  0.002471 -0.0036    1.0891   
    32. A(C   1,C   0,C   5)          119.87 -0.000476    0.05    119.92   
    33. A(C   5,C   0,H  24)          120.19  0.000153   -0.01    120.18   
    34. A(C   1,C   0,H  24)          119.94  0.000323   -0.04    119.90   
    35. A(C   0,C   1,H   6)          119.91  0.000238   -0.02    119.89   
    36. A(C   0,C   1,C   2)          120.73  0.000361   -0.09    120.64   
    37. A(C   2,C   1,H   6)          119.36 -0.000599    0.11    119.47   
    38. A(C   1,C   2,C   3)          118.96  0.000284    0.05    119.01   
    39. A(C   3,C   2,C  15)          122.74 -0.001027   -0.13    122.61   
    40. A(C   1,C   2,C  15)          118.30  0.000743    0.08    118.38   
    41. A(C   2,C   3,H   7)          119.90 -0.000227   -0.05    119.85   
    42. A(C   4,C   3,H   7)          119.90 -0.000119    0.10    120.00   
    43. A(C   2,C   3,C   4)          120.20  0.000347   -0.05    120.15   
    44. A(C   3,C   4,H  25)          119.67  0.000051    0.01    119.68   
    45. A(C   5,C   4,H  25)          119.92  0.000100   -0.00    119.92   
    46. A(C   3,C   4,C   5)          120.41 -0.000151   -0.00    120.41   
    47. A(C   0,C   5,C   4)          119.84 -0.000365    0.04    119.88   
    48. A(C   4,C   5,H   8)          120.04  0.000167   -0.02    120.02   
    49. A(C   0,C   5,H   8)          120.13  0.000198   -0.02    120.10   
    50. A(C   3,H   7,H  13)          136.17  0.000628    0.14    136.31   
    51. A(C  10,N   9,H  13)          108.37  0.002802   -0.59    107.78   
    52. A(H  13,N   9,C  15)          132.41 -0.002079    0.45    132.86   
    53. A(C  10,N   9,C  15)          119.13 -0.000743    0.18    119.31   
    54. A(H  11,C  10,H  12)          107.74 -0.000353    0.54    108.28   
    55. A(N   9,C  10,H  12)          107.42  0.000167   -0.27    107.15   
    56. A(N   9,C  10,H  11)          111.66 -0.001110    0.11    111.77   
    57. A(H  12,C  10,C  18)          108.82 -0.001380    0.21    109.03   
    58. A(H  11,C  10,C  18)          110.17 -0.000924    0.19    110.37   
    59. A(N   9,C  10,C  18)          110.90  0.003491   -0.75    110.15   
    60. A(H   7,H  13,N   9)           83.58  0.002921   -0.10     83.48   
    61. A(H   7,H  13,O  17)           98.78  0.000363   -0.14     98.64   
    62. A(N   9,C  15,H  16)          120.53 -0.001227    0.33    120.86   
    63. A(C   2,C  15,H  16)          115.07  0.001492   -0.09    114.98   
    64. A(C   2,C  15,N   9)          124.40 -0.000264   -0.24    124.16   
    65. A(H  13,O  17,H  14)          104.29 -0.002930    0.52    104.81   
    66. A(H  20,C  18,C  21)          109.73 -0.000866    0.10    109.83   
    67. A(H  19,C  18,C  21)          109.79 -0.000493    0.05    109.84   
    68. A(C  10,C  18,C  21)          112.54  0.002515   -0.55    111.99   
    69. A(H  19,C  18,H  20)          106.79 -0.000164    0.39    107.18   
    70. A(C  10,C  18,H  20)          108.94 -0.000313   -0.05    108.89   
    71. A(C  10,C  18,H  19)          108.88 -0.000816    0.10    108.99   
    72. A(H  23,C  21,C  26)          109.52 -0.000470   -0.02    109.51   
    73. A(H  22,C  21,C  26)          109.56 -0.000328   -0.06    109.50   
    74. A(C  18,C  21,C  26)          112.65  0.002765   -0.66    111.99   
    75. A(H  22,C  21,H  23)          106.38 -0.000496    0.61    107.00   
    76. A(C  18,C  21,H  23)          109.40 -0.000785    0.09    109.49   
    77. A(C  18,C  21,H  22)          109.13 -0.000874    0.10    109.23   
    78. A(H  28,C  26,H  29)          107.58 -0.001489    0.31    107.90   
    79. A(H  27,C  26,H  29)          107.70 -0.001897    0.34    108.04   
    80. A(C  21,C  26,H  29)          111.10  0.001157   -0.21    110.89   
    81. A(H  27,C  26,H  28)          107.73 -0.001978    0.34    108.07   
    82. A(C  21,C  26,H  28)          111.08  0.001389   -0.25    110.83   
    83. A(C  21,C  26,H  27)          111.46  0.002502   -0.47    110.99   
    84. D(C   2,C   1,C   0,C   5)     -0.13 -0.000008    0.04     -0.09   
    85. D(C   2,C   1,C   0,H  24)    179.93  0.000007   -0.01    179.92   
    86. D(H   6,C   1,C   0,H  24)     -0.04 -0.000020    0.05      0.02   
    87. D(H   6,C   1,C   0,C   5)    179.91 -0.000035    0.10    180.01   
    88. D(C  15,C   2,C   1,H   6)      0.08  0.000062   -0.03      0.04   
    89. D(C   3,C   2,C   1,C   0)      0.16 -0.000028    0.03      0.19   
    90. D(C   3,C   2,C   1,H   6)   -179.87 -0.000001   -0.03   -179.91   
    91. D(C  15,C   2,C   1,C   0)   -179.89  0.000034    0.03   -179.86   
    92. D(H   7,C   3,C   2,C  15)     -0.11  0.000002   -0.06     -0.17   
    93. D(C   4,C   3,C   2,C  15)    179.98 -0.000006   -0.11    179.87   
    94. D(H   7,C   3,C   2,C   1)    179.84  0.000068   -0.06    179.78   
    95. D(C   4,C   3,C   2,C   1)     -0.07  0.000061   -0.11     -0.18   
    96. D(H  25,C   4,C   3,C   2)    179.91 -0.000018    0.05    179.97   
    97. D(C   5,C   4,C   3,H   7)   -179.96 -0.000064    0.08   -179.88   
    98. D(C   5,C   4,C   3,C   2)     -0.05 -0.000056    0.13      0.08   
    99. D(H  25,C   4,C   3,H   7)      0.01 -0.000025   -0.00      0.01   
   100. D(H   8,C   5,C   4,H  25)      0.07 -0.000016    0.03      0.10   
   101. D(C   0,C   5,C   4,H  25)   -179.88 -0.000021    0.02   -179.86   
   102. D(C   0,C   5,C   4,C   3)      0.09  0.000018   -0.06      0.03   
   103. D(H   8,C   5,C   0,H  24)     -0.01 -0.000007    0.02      0.01   
   104. D(C   4,C   5,C   0,C   1)      0.00  0.000013   -0.03     -0.02   
   105. D(H   8,C   5,C   4,C   3)   -179.96  0.000023   -0.05   -180.01   
   106. D(H   8,C   5,C   0,C   1)   -179.95  0.000008   -0.03   -179.98   
   107. D(C   4,C   5,C   0,H  24)    179.95 -0.000002    0.02    179.97   
   108. D(H  13,H   7,C   3,C   4)   -171.90  0.000178   -0.14   -172.04   
   109. D(H  13,H   7,C   3,C   2)      8.20  0.000171   -0.20      8.00   
   110. D(C  18,C  10,N   9,C  15)   -119.40 -0.000218    0.19   -119.21   
   111. D(H  12,C  10,N   9,H  13)    -55.25 -0.000229   -0.08    -55.33   
   112. D(H  12,C  10,N   9,C  15)    121.80 -0.000630    0.53    122.33   
   113. D(H  11,C  10,N   9,H  13)   -173.16  0.000725   -0.63   -173.80   
   114. D(H  11,C  10,N   9,C  15)      3.89  0.000324   -0.02      3.86   
   115. D(C  18,C  10,N   9,H  13)     63.55  0.000183   -0.42     63.13   
   116. D(H   7,H  13,N   9,C  15)      7.57  0.000226   -0.48      7.08   
   117. D(H   7,H  13,N   9,C  10)   -175.92 -0.000158    0.22   -175.70   
   118. D(N   9,H  13,H   7,C   3)    -10.66 -0.000522    0.42    -10.24   
   119. D(O  17,H  13,H   7,C   3)    168.54  0.001451  -15.76    152.78   
   120. D(H  16,C  15,N   9,H  13)    175.40 -0.000168    0.45    175.84   
   121. D(C   2,C  15,N   9,H  13)     -4.46 -0.000162    0.47     -3.99   
   122. D(C   2,C  15,N   9,C  10)    179.34  0.000166   -0.28    179.06   
   123. D(H  16,C  15,C   2,C   3)    178.11  0.000139   -0.04    178.07   
   124. D(H  16,C  15,C   2,C   1)     -1.84  0.000073   -0.04     -1.88   
   125. D(H  16,C  15,N   9,C  10)     -0.81  0.000159   -0.30     -1.11   
   126. D(N   9,C  15,C   2,C   3)     -2.03  0.000129   -0.06     -2.09   
   127. D(N   9,C  15,C   2,C   1)    178.02  0.000063   -0.06    177.96   
   128. D(H  14,O  17,H  13,H   7)    -85.71  0.000420   -0.11    -85.82   
   129. D(H  14,O  17,N   9,C  15)    -78.29 -0.000016    2.37    -75.92   
   130. D(H  14,O  17,N   9,C  10)     97.75  0.000272   -3.82     93.93   
   131. D(C  21,C  18,C  10,H  12)    -58.07  0.001047   -0.27    -58.34   
   132. D(C  21,C  18,C  10,N   9)   -176.02 -0.000365    0.38   -175.65   
   133. D(H  20,C  18,C  10,H  12)     63.86  0.001395   -0.54     63.32   
   134. D(H  20,C  18,C  10,H  11)   -178.23 -0.000392    0.35   -177.88   
   135. D(H  20,C  18,C  10,N   9)    -54.10 -0.000017    0.11    -53.99   
   136. D(H  19,C  18,C  10,H  12)    179.97  0.000580   -0.04    179.93   
   137. D(C  21,C  18,C  10,H  11)     59.84 -0.000740    0.62     60.46   
   138. D(H  19,C  18,C  10,H  11)    -62.12 -0.001207    0.85    -61.27   
   139. D(H  19,C  18,C  10,N   9)     62.02 -0.000832    0.61     62.62   
   140. D(H  23,C  21,C  18,H  20)   -178.87  0.000206   -0.19   -179.06   
   141. D(H  23,C  21,C  18,H  19)     64.06  0.001202   -0.76     63.30   
   142. D(H  23,C  21,C  18,C  10)    -57.39  0.000892   -0.55    -57.94   
   143. D(H  22,C  21,C  18,H  20)    -62.85 -0.001318    0.65    -62.20   
   144. D(H  22,C  21,C  18,H  19)   -179.92 -0.000321    0.09   -179.84   
   145. D(C  26,C  21,C  18,C  10)   -179.46  0.000180   -0.15   -179.60   
   146. D(H  22,C  21,C  18,C  10)     58.63 -0.000631    0.29     58.92   
   147. D(C  26,C  21,C  18,H  20)     59.07 -0.000506    0.21     59.28   
   148. D(C  26,C  21,C  18,H  19)    -58.01  0.000490   -0.35    -58.36   
   149. D(H  29,C  26,C  21,H  23)    -61.94 -0.000618    0.40    -61.54   
   150. D(H  29,C  26,C  21,H  22)   -178.28  0.000436   -0.29   -178.57   
   151. D(H  29,C  26,C  21,C  18)     60.05 -0.000081    0.06     60.11   
   152. D(H  28,C  26,C  21,H  23)    178.34 -0.000432    0.31    178.65   
   153. D(H  28,C  26,C  21,H  22)     62.00  0.000622   -0.38     61.62   
   154. D(H  28,C  26,C  21,C  18)    -59.67  0.000105   -0.03    -59.70   
   155. D(H  27,C  26,C  21,H  23)     58.18 -0.000553    0.37     58.55   
   156. D(H  27,C  26,C  21,H  22)    -58.15  0.000502   -0.33    -58.48   
   157. D(H  27,C  26,C  21,C  18)   -179.82 -0.000015    0.03   -179.79   
    ----------------------------------------------------------------------------

         *************************************************************
         *                GEOMETRY OPTIMIZATION CYCLE   2            *
         *************************************************************
      -----------------------------------------------------------      
     |                   =====================                   |     
     |                           x T B                           |     
     |                   =====================                   |     
     |                         S. Grimme                         |     
     |          Mulliken Center for Theoretical Chemistry        |     
     |                    University of Bonn                     |     
      -----------------------------------------------------------      

   * xtb version 6.3.0 (49875a8) compiled by 'schneider@apollo14' on 2020-05-23

   xtb is free software: you can redistribute it and/or modify it under
   the terms of the GNU Lesser General Public License as published by
   the Free Software Foundation, either version 3 of the License, or
   (at your option) any later version.
   
   xtb is distributed in the hope that it will be useful,
   but WITHOUT ANY WARRANTY; without even the implied warranty of
   MERCHANTABILITY or FITNESS FOR A PARTICULAR PURPOSE.  See the
   GNU Lesser General Public License for more details.
   
   Cite this work as:
   * S. Grimme, C. Bannwarth, P. Shushkov, J. Chem. Theory Comput., 2017,
     13, 1989-2009. DOI: 10.1021/acs.jctc.7b00118
   * C. Bannwarth, S. Ehlert and S. Grimme., J. Chem. Theory Comput., 2019,
     15, 1652-1671. DOI: 10.1021/acs.jctc.8b01176
   * P. Pracht, E. Caldeweyher, S. Ehlert, S. Grimme, ChemRxiv, 2019, preprint.
     DOI: 10.26434/chemrxiv.8326202.v1
   
   for GFN-FF:
   * S. Spicher and S. Grimme, Angew. Chem. Int. Ed., 2020,
     DOI: 10.1002/anie.202004239
   
   for DFT-D4:
   * E. Caldeweyher, C. Bannwarth and S. Grimme, J. Chem. Phys., 2017,
     147, 034112. DOI: 10.1063/1.4993215
   * E. Caldeweyher, S. Ehlert, A. Hansen, H. Neugebauer, S. Spicher,
     C. Bannwarth and S. Grimme, J. Chem. Phys., 2019, 150, 154122.
     DOI: 10.1063/1.5090222
   
   for sTDA-xTB:
   * S. Grimme and C. Bannwarth, J. Chem. Phys., 2016, 145, 054103.
     DOI: 10.1063/1.4959605
   
   in the mass-spec context:
   * V. Asgeirsson, C. Bauer and S. Grimme, Chem. Sci., 2017, 8, 4879.
     DOI: 10.1039/c7sc00601b
   * J. Koopman and S. Grimme, ACS Omega 2019, 4, 12, 15120-15133.
     DOI: 10.1021/acsomega.9b02011
   
   for metadynamics refer to:
   * S. Grimme, J. Chem. Theory Comput., 2019, 155, 2847-2862
     DOI: 10.1021/acs.jctc.9b00143
   
   with help from (in alphabetical order)
   C. Bannwarth, F. Bohle, G. Brandenburg, E. Caldeweyher, M. Checinski,
   S. Dohm, S. Ehlert, S. Ehrlich, F. März, H. Neugebauer, J. Pisarek,
   P. Pracht, P. Shushkov, and S. Spicher.
   
 * started run on 2020/06/19 at 16:19:01.026     

           -------------------------------------------------
          |                Calculation Setup                |
           -------------------------------------------------

          program call               : /opt/orca/otool_xtb opt+freq_XTB.xyz --grad -c 0 -u 0 -P 12 --namespace opt+freq --gbsa CH2Cl2
          calculation namespace      : opt+freq
          coordinate file            : opt+freq_XTB.xyz
          number of atoms            :                    30
          number of electrons        :                    72
          charge                     :                     0
          spin                       :                   0.0
          first test random number   :      0.18132860620418

   ID    Z sym.   atoms
    1    6 C      1-6, 11, 16, 19, 22, 27
    2    1 H      7-9, 12-15, 17, 20, 21, 23-26, 28-30
    3    7 N      10
    4    8 O      18

molecular fragmentation (1/2 indicates fragments):
111111111111122112111111111111
# atoms in fragment 1/2:    27     3
 fragment masses (1/2) :      161.24       18.02
CMA distance (Bohr)    :   6.043
constraining FC (au)   :  0.0500
########################################################################
[WARNING] Please study the warnings concerning your input carefully
-1- prog_main_parseArguments: Process number higher than OMP_NUM_THREADS, I hope you know what you are doing.
########################################################################
 Solvent             : CH2Cl2
 Using internal parameter file: .param_gbsa2_CH2Cl2
 Gsolv ref. state (COSMO-RS): gsolv [1 M gas/solution]
 temperature (mdtemp)       :    298.14999999999998     
 dielectric constant        :    8.9299999999999997     
 rho                        :    1.3300000000000003     
 mass                       :    84.930000000000007     
 surface tension            :    15.568945408385856     
 probe radius               :   0.71987590000000001     
 Gshift (Eh)                :    4.4408291734517593E-003
 c1                         :    1.4917377599999999     
 soset                      :    0.0000000000000000     
 HB correction              :  F

           -------------------------------------------------
          |                 G F N 2 - x T B                 |
           -------------------------------------------------

        Reference                      10.1021/acs.jctc.8b01176
      * Hamiltonian:
        H0-scaling (s, p, d)           1.850000    2.230000    2.230000
        zeta-weighting                 0.500000
      * Dispersion:
        s8                             2.700000
        a1                             0.520000
        a2                             5.000000
        s9                             5.000000
      * Repulsion:
        kExp                           1.500000    1.000000
        rExp                           1.000000
      * Coulomb:
        alpha                          2.000000
        third order                    shell-resolved
        anisotropic                    true
        a3                             3.000000
        a5                             4.000000
        cn-shift                       1.200000
        cn-exp                         4.000000
        max-rad                        5.000000


          ...................................................
          :                      SETUP                      :
          :.................................................:
          :  # basis functions                  69          :
          :  # atomic orbitals                  69          :
          :  # shells                           43          :
          :  # electrons                        72          :
          :  max. iterations                   250          :
          :  Hamiltonian                  GFN2-xTB          :
          :  restarted?                      false          :
          :  GBSA solvation                   true          :
          :  PC potential                    false          :
          :  electronic temp.          300.0000000     K    :
          :  accuracy                    1.0000000          :
          :  -> integral cutoff          0.2500000E+02      :
          :  -> integral neglect         0.1000000E-07      :
          :  -> SCF convergence          0.1000000E-05 Eh   :
          :  -> wf. convergence          0.1000000E-03 e    :
          :  Broyden damping             0.4000000          :
          ...................................................

 iter      E             dE          RMSdq      gap      omega  full diag
   1    -39.7483070 -0.397483E+02  0.402E+00    3.29       0.0  T
   2    -39.7848830 -0.365759E-01  0.246E+00    3.31       1.0  T
   3    -39.7794339  0.544906E-02  0.841E-01    2.94       1.0  T
   4    -39.7878844 -0.845056E-02  0.352E-01    3.11       1.0  T
   5    -39.7897415 -0.185704E-02  0.675E-02    3.05       1.0  T
   6    -39.7897533 -0.117885E-04  0.332E-02    3.06       1.0  T
   7    -39.7897590 -0.570339E-05  0.153E-02    3.06       1.2  T
   8    -39.7897607 -0.169948E-05  0.373E-03    3.06       4.9  T
   9    -39.7897608 -0.113854E-06  0.167E-03    3.06      10.9  T
  10    -39.7897608 -0.131965E-08  0.886E-04    3.06      20.6  T
  11    -39.7897608 -0.838429E-08  0.252E-04    3.06      72.5  T

   *** convergence criteria satisfied after 11 iterations ***

         #    Occupation            Energy/Eh            Energy/eV
      -------------------------------------------------------------
         1        2.0000           -0.6647782             -18.0895
       ...           ...                  ...                  ...
        30        2.0000           -0.4329769             -11.7819
        31        2.0000           -0.4307585             -11.7215
        32        2.0000           -0.4254805             -11.5779
        33        2.0000           -0.4230479             -11.5117
        34        2.0000           -0.4123525             -11.2207
        35        2.0000           -0.4035336             -10.9807
        36        2.0000           -0.3893806             -10.5956 (HOMO)
        37                         -0.2768946              -7.5347 (LUMO)
        38                         -0.2300386              -6.2597
        39                         -0.1918024              -5.2192
        40                         -0.0883996              -2.4055
        41                          0.0374918               1.0202
       ...                                ...                  ...
        69                          0.6645173              18.0824
      -------------------------------------------------------------
                  HL-Gap            0.1124860 Eh            3.0609 eV
             Fermi-level           -0.3331376 Eh           -9.0651 eV

 SCC (total)                   0 d,  0 h,  0 min,  0.080 sec
 SCC setup                      ...        0 min,  0.001 sec (  1.414%)
 Dispersion                     ...        0 min,  0.000 sec (  0.445%)
 classical contributions        ...        0 min,  0.000 sec (  0.154%)
 integral evaluation            ...        0 min,  0.015 sec ( 18.626%)
 iterations                     ...        0 min,  0.038 sec ( 48.111%)
 molecular gradient             ...        0 min,  0.024 sec ( 29.597%)
 printout                       ...        0 min,  0.001 sec (  1.626%)

         :::::::::::::::::::::::::::::::::::::::::::::::::::::
         ::                     SUMMARY                     ::
         :::::::::::::::::::::::::::::::::::::::::::::::::::::
         :: total energy             -39.197220462283 Eh    ::
         :: total w/o Gsasa/hb       -39.180770690821 Eh    ::
         :: gradient norm              0.010301747950 Eh/a0 ::
         :: HOMO-LUMO gap              3.060899052451 eV    ::
         ::.................................................::
         :: SCC energy               -39.806210572236 Eh    ::
         :: -> isotropic ES            0.048507776208 Eh    ::
         :: -> anisotropic ES          0.000081386465 Eh    ::
         :: -> anisotropic XC          0.027001611977 Eh    ::
         :: -> dispersion             -0.022836601128 Eh    ::
         :: -> Gsolv                  -0.020880422899 Eh    ::
         ::    -> Gborn               -0.004430651437 Eh    ::
         ::    -> Gsasa               -0.020890600635 Eh    ::
         ::    -> Ghb                  0.000000000000 Eh    ::
         ::    -> Gshift               0.004440829173 Eh    ::
         :: repulsion energy           0.609053496123 Eh    ::
         :: add. restraining           0.000000000000 Eh    ::
         :::::::::::::::::::::::::::::::::::::::::::::::::::::

           -------------------------------------------------
          |                Property Printout                |
           -------------------------------------------------

    * Orbital Energies and Occupations

         #    Occupation            Energy/Eh            Energy/eV
      -------------------------------------------------------------
         1        2.0000           -0.6647782             -18.0895
       ...           ...                  ...                  ...
        24        2.0000           -0.4779316             -13.0052
        25        2.0000           -0.4753868             -12.9359
        26        2.0000           -0.4636652             -12.6170
        27        2.0000           -0.4475371             -12.1781
        28        2.0000           -0.4422216             -12.0335
        29        2.0000           -0.4390870             -11.9482
        30        2.0000           -0.4329769             -11.7819
        31        2.0000           -0.4307585             -11.7215
        32        2.0000           -0.4254805             -11.5779
        33        2.0000           -0.4230479             -11.5117
        34        2.0000           -0.4123525             -11.2207
        35        2.0000           -0.4035336             -10.9807
        36        2.0000           -0.3893806             -10.5956 (HOMO)
        37                         -0.2768946              -7.5347 (LUMO)
        38                         -0.2300386              -6.2597
        39                         -0.1918024              -5.2192
        40                         -0.0883996              -2.4055
        41                          0.0374918               1.0202
        42                          0.0853409               2.3222
        43                          0.0963004               2.6205
        44                          0.1077832               2.9329
        45                          0.1178100               3.2058
        46                          0.1223004               3.3280
        47                          0.1359486               3.6994
       ...                                ...                  ...
        69                          0.6645173              18.0824
      -------------------------------------------------------------
                  HL-Gap            0.1124860 Eh            3.0609 eV
             Fermi-level           -0.3331376 Eh           -9.0651 eV

     #   Z        covCN         q      C6AA      α(0)
     1   6 C      2.916    -0.028    28.707     8.786
     2   6 C      2.927    -0.030    28.738     8.791
     3   6 C      2.974     0.004    27.933     8.669
     4   6 C      2.921    -0.029    28.728     8.790
     5   6 C      2.918    -0.027    28.667     8.780
     6   6 C      2.919    -0.024    28.594     8.769
     7   1 H      0.926     0.037     2.484     2.465
     8   1 H      0.926     0.063     2.162     2.299
     9   1 H      0.926     0.043     2.405     2.425
    10   7 N      1.828    -0.261    27.622     7.788
    11   6 C      3.769     0.021    20.250     6.413
    12   1 H      0.923     0.010     2.887     2.657
    13   1 H      0.924     0.046     2.377     2.411
    14   1 H      0.803     0.310     0.691     1.306
    15   1 H      0.805     0.278     0.792     1.398
    16   6 C      2.862     0.079    26.237     8.396
    17   1 H      0.923     0.004     2.990     2.704
    18   8 O      1.608    -0.626    25.826     6.859
    19   6 C      3.805    -0.060    21.649     6.624
    20   1 H      0.924     0.034     2.532     2.488
    21   1 H      0.924     0.049     2.326     2.385
    22   6 C      3.801    -0.053    21.522     6.605
    23   1 H      0.924     0.034     2.534     2.490
    24   1 H      0.924     0.031     2.571     2.507
    25   1 H      0.926     0.041     2.432     2.439
    26   1 H      0.926     0.044     2.397     2.421
    27   6 C      3.752    -0.104    22.540     6.770
    28   1 H      0.925     0.038     2.477     2.461
    29   1 H      0.925     0.038     2.480     2.463
    30   1 H      0.925     0.036     2.507     2.476

 Mol. C6AA /au·bohr⁶  :       8343.047689
 Mol. C8AA /au·bohr⁸  :     189136.922293
 Mol. α(0) /au        :        141.834547


Wiberg/Mayer (AO) data.
largest (>0.10) Wiberg bond orders for each atom
          total WBO             WBO to atom ...
     1  C   3.992        C    2 1.455    C    6 1.434    H   25 0.970    C    4 0.106
     2  C   3.987        C    1 1.455    C    3 1.374    H    7 0.968    C    5 0.105
     3  C   3.989        C    2 1.374    C    4 1.366    C   16 1.092
     4  C   3.989        C    5 1.464    C    3 1.366    H    8 0.961    C    1 0.106
     5  C   3.992        C    4 1.464    C    6 1.426    H   26 0.970    C    2 0.105
     6  C   3.987        C    1 1.434    C    5 1.426    H    9 0.971
     7  H   0.999        C    2 0.968
     8  H   0.996        C    4 0.961
     9  H   0.998        C    6 0.971
    10  N   3.119        C   16 1.826    C   11 1.026
    11  C   3.983        N   10 1.026    C   19 0.985    H   12 0.964    H   13 0.956
    12  H   1.000        C   11 0.964
    13  H   0.994        C   11 0.956
    14  H   0.904        O   18 0.846
    15  H   0.923        O   18 0.922
    16  C   3.968        N   10 1.826    C    3 1.092    H   17 0.939
    17  H   1.000        C   16 0.939
    18  O   1.805        H   15 0.922    H   14 0.846
    19  C   3.990        C   22 1.006    C   11 0.985    H   20 0.977    H   21 0.975
    20  H   0.999        C   19 0.977
    21  H   0.998        C   19 0.975
    22  C   3.996        C   27 1.019    C   19 1.006    H   24 0.978    H   23 0.978
    23  H   0.999        C   22 0.978
    24  H   0.999        C   22 0.978
    25  H   0.998        C    1 0.970
    26  H   0.998        C    5 0.970
    27  C   3.995        C   22 1.019    H   30 0.988    H   29 0.987    H   28 0.987
    28  H   0.998        C   27 0.987
    29  H   0.999        C   27 0.987
    30  H   0.999        C   27 0.988
Topologies differ in total number of bonds
Writing topology from bond orders to xtbtopo.mol

molecular dipole:
                 x           y           z       tot (Debye)
 q only:        0.450       0.829      -0.052
   full:        0.452       1.437      -0.169       3.851
molecular quadrupole (traceless):
                xx          xy          yy          xz          yz          zz
 q only:        7.413      -5.469      -8.317      -0.397      -0.093       0.905
  q+dip:        7.959      -9.348      -6.595       1.692       1.065      -1.364
   full:        6.824      -9.381      -9.046       0.824       0.528       2.222


           -------------------------------------------------
          | TOTAL ENERGY              -39.197220462283 Eh   |
          | GRADIENT NORM               0.010301747950 Eh/α |
          | HOMO-LUMO GAP               3.060899052451 eV   |
           -------------------------------------------------

------------------------------------------------------------------------
 * finished run on 2020/06/19 at 16:19:01.147     
------------------------------------------------------------------------
 total:
 * wall-time:     0 d,  0 h,  0 min,  0.121 sec
 *  cpu-time:     0 d,  0 h,  0 min,  1.348 sec
 * ratio c/w:    11.151 speedup
 SCF:
 * wall-time:     0 d,  0 h,  0 min,  0.081 sec
 *  cpu-time:     0 d,  0 h,  0 min,  0.909 sec
 * ratio c/w:    11.279 speedup


-------------------------   --------------------
FINAL SINGLE POINT ENERGY       -39.197220462280
-------------------------   --------------------

------------------------------------------------------------------------------
                         ORCA GEOMETRY RELAXATION STEP
------------------------------------------------------------------------------

Reading the OPT-File                    .... done
Getting information on internals        .... done
Copying old internal coords+grads       .... done
Making the new internal coordinates     .... (new redundants).... done
Validating the new internal coordinates .... (new redundants).... done
Calculating the B-matrix                .... done
Calculating the G,G- and P matrices     .... done
Transforming gradient to internals      .... done
Projecting the internal gradient        .... done
Number of atoms                         ....  30
Number of internal coordinates          .... 157
Current Energy                          ....   -39.197220462 Eh
Current gradient norm                   ....     0.010301748 Eh/bohr
Maximum allowed component of the step   ....  0.300
Current trust radius                    ....  0.300
Updating the Hessian (BFGS)             .... done
Forming the augmented Hessian           .... done
Diagonalizing the augmented Hessian     .... done
Last element of RFO vector              ....  0.879240789
Lowest eigenvalues of augmented Hessian:
 -0.002062256  0.005569738  0.011200398  0.011294873  0.011399430
Length of the computed step             ....  0.541805638
Warning: the length of the step is outside the trust region - taking restricted step instead
The input lambda is                     ....    -0.002062
   iter:   1  x=   -0.004175  g=   96.364717 f(x)=     0.203553
   iter:   2  x=   -0.006032  g=   39.052934 f(x)=     0.072555
   iter:   3  x=   -0.006929  g=   21.118791 f(x)=     0.018934
   iter:   4  x=   -0.007067  g=   16.349287 f(x)=     0.002260
   iter:   5  x=   -0.007070  g=   15.746796 f(x)=     0.000042
   iter:   6  x=   -0.007070  g=   15.735469 f(x)=     0.000000
   iter:   7  x=   -0.007070  g=   15.735465 f(x)=     0.000000
The output lambda is                    ....    -0.007070 (7 iterations)
The final length of the internal step   ....  0.300000000
Converting the step to cartesian space:
 Initial RMS(Int)=    0.0239426065
Transforming coordinates:
 Iter   0:  RMS(Cart)=    0.0808465790 RMS(Int)=    1.0020103684
 Iter   1:  RMS(Cart)=    0.0225538969 RMS(Int)=    0.0061227348
 Iter   2:  RMS(Cart)=    0.0055515052 RMS(Int)=    0.0031639740
 Iter   3:  RMS(Cart)=    0.0012482730 RMS(Int)=    0.0003636938
 Iter   4:  RMS(Cart)=    0.0003578313 RMS(Int)=    0.0002025759
 Iter   5:  RMS(Cart)=    0.0000832140 RMS(Int)=    0.0000292119
 Iter   6:  RMS(Cart)=    0.0000225803 RMS(Int)=    0.0000123718
 Iter   7:  RMS(Cart)=    0.0000055991 RMS(Int)=    0.0000024179
 Iter   8:  RMS(Cart)=    0.0000014317 RMS(Int)=    0.0000007302
 Iter   9:  RMS(Cart)=    0.0000003802 RMS(Int)=    0.0000001953
 Iter  10:  RMS(Cart)=    0.0000000922 RMS(Int)=    0.0000000416
done
Storing new coordinates                 .... done

                                .--------------------.
          ----------------------|Geometry convergence|-------------------------
          Item                value                   Tolerance       Converged
          ---------------------------------------------------------------------
          Energy change      -0.0008586411            0.0000050000      NO
          RMS gradient        0.0006029976            0.0001000000      NO
          MAX gradient        0.0027983702            0.0003000000      NO
          RMS step            0.0239426065            0.0020000000      NO
          MAX step            0.2707112052            0.0040000000      NO
          ........................................................
          Max(Bonds)      0.0163      Max(Angles)    1.02
          Max(Dihed)       15.51      Max(Improp)    0.00
          ---------------------------------------------------------------------

The optimization has not yet converged - more geometry cycles are needed


    ---------------------------------------------------------------------------
                         Redundant Internal Coordinates
                            (Angstroem and degrees)

        Definition                    Value    dE/dq     Step     New-Value
    ----------------------------------------------------------------------------
     1. B(C   1,C   0)                1.3835  0.001259 -0.0063    1.3772   
     2. B(C   2,C   1)                1.3957 -0.000813 -0.0019    1.3938   
     3. B(C   3,C   2)                1.3966 -0.000134 -0.0037    1.3928   
     4. B(C   4,C   3)                1.3817  0.000144 -0.0038    1.3779   
     5. B(C   5,C   0)                1.3857  0.000192 -0.0038    1.3819   
     6. B(C   5,C   4)                1.3885  0.001214 -0.0060    1.3824   
     7. B(H   6,C   1)                1.0811 -0.000060 -0.0014    1.0797   
     8. B(H   7,C   3)                1.0778 -0.000101 -0.0022    1.0756   
     9. B(H   8,C   5)                1.0799 -0.000125 -0.0017    1.0782   
    10. B(C  10,N   9)                1.4387  0.002798 -0.0163    1.4223   
    11. B(H  11,C  10)                1.1010 -0.000703  0.0041    1.1051   
    12. B(H  12,C  10)                1.0953 -0.000269  0.0013    1.0966   
[...]
     30       0.000014  -0.000031  -0.000014  -0.000064   0.000853  -0.000007
     31      -0.000028   0.000042   0.000087   0.000129  -0.000975  -0.000024
     32       0.000051  -0.000019  -0.000111  -0.000005   0.000309  -0.000057
     33      -0.000136   0.000073   0.000216  -0.000099  -0.004428   0.000113
     34       0.000593  -0.000520  -0.001565  -0.001335   0.018366   0.000262
     35       0.000068  -0.000077  -0.000155  -0.000061   0.000798   0.000313
     36      -0.000362   0.000183   0.000735  -0.000103  -0.000076   0.000368
     37      -0.000190   0.000139   0.000413   0.000107  -0.001756  -0.000221
     38      -0.000704   0.000361   0.001499   0.000094  -0.003290   0.000515
     39      -0.000113  -0.000589  -0.000083  -0.003637  -0.009684   0.004002
     40      -0.004936   0.000186   0.011192  -0.041688   0.963318  -0.018162
     41      -0.001409  -0.000064   0.003116  -0.012174   0.251652  -0.033780
     42      -0.000040  -0.000182  -0.000036  -0.000252  -0.002297  -0.133830
     43       0.000227  -0.000016  -0.000596   0.001541  -0.033707   0.085517
     44      -0.000048   0.000035   0.000066  -0.000168   0.008752   0.984683
     45       0.000130  -0.000053  -0.000380  -0.000067  -0.001777   0.000021
     46      -0.000114   0.000185   0.000251  -0.000247  -0.001621  -0.000062
     47      -0.000006   0.000004  -0.000006  -0.000038  -0.000414  -0.000014
     48      -0.001559   0.000638   0.001684   0.000035  -0.001853  -0.000208
     49       0.002464  -0.000939  -0.003749  -0.001047   0.030511   0.000275
     50       0.000177  -0.000066  -0.000327  -0.000153   0.004678  -0.000102
     51      -0.000001   0.000016   0.000036  -0.000046   0.000179   0.008195
     52       0.000324  -0.000015  -0.000717   0.002640  -0.060367  -0.004346
     53       0.000087  -0.000011  -0.000195   0.000687  -0.016608  -0.059984
     54      -0.000019   0.000021   0.000049   0.000029   0.000001  -0.000039
     55       0.000024  -0.000037  -0.000040   0.000031  -0.000597   0.000103
     56      -0.000020   0.000026   0.000039   0.000087  -0.000178  -0.000070
     57       0.000100  -0.000113  -0.000269  -0.000366   0.001185   0.000322
     58       0.000073  -0.000087  -0.000142  -0.000514  -0.000077   0.000320
     59       0.000246  -0.000326  -0.000436  -0.001105   0.000655   0.001020
     60       0.000054  -0.000145  -0.000161  -0.000078  -0.001444  -0.000399
     61      -0.000241   0.000523   0.000326   0.000213   0.007324  -0.000953
     62      -0.000032   0.000032   0.000068   0.000125   0.001383  -0.000313
     63       0.000010  -0.000006  -0.000000  -0.000032   0.000104  -0.000013
     64      -0.000009   0.000004   0.000016   0.000068  -0.000178  -0.000017
     65       0.000021  -0.000013  -0.000029  -0.000025   0.000154  -0.000005
     66      -0.000077   0.000050   0.000030   0.000094  -0.000766   0.000166
     67      -0.000087   0.000084   0.000079   0.000140  -0.000412  -0.000035
     68      -0.000229   0.000163   0.000233   0.000324  -0.001776   0.000096
     69      -0.000015   0.000029  -0.000023   0.000150   0.000099   0.000232
     70       0.000168  -0.000141  -0.000242  -0.001038   0.001990  -0.000148
     71       0.000013  -0.000023  -0.000002  -0.000040  -0.000116   0.000064
     72       0.302360  -0.427283  -0.323938  -0.005642   0.003692  -0.000016
     73       0.339077  -0.475503  -0.362795  -0.006570   0.004210   0.000006
     74       0.024048  -0.033927  -0.025749  -0.000461   0.000303   0.000012
     75       0.137487   0.220660  -0.154859  -0.043141   0.000858  -0.000075
     76      -0.430178  -0.681533   0.481904   0.136338  -0.001473   0.000006
     77       0.007137   0.011363  -0.007941  -0.002273   0.000020  -0.000004
     78       0.000017  -0.000015  -0.000010  -0.000016   0.000040  -0.000019
     79       0.000013  -0.000022   0.000002   0.000021  -0.000076   0.000021
     80      -0.000010   0.000005  -0.000011   0.000028  -0.000063  -0.000009
     81      -0.000373   0.000312   0.000267   0.000389  -0.001302   0.000136
     82       0.000082  -0.000073  -0.000070  -0.000098   0.000331  -0.000053
     83      -0.000036   0.000037   0.000037   0.000043  -0.000101   0.000003
     84       0.000049  -0.000068  -0.000045  -0.000026   0.000006  -0.000018
     85      -0.000313   0.000382  -0.000029   0.000052  -0.000099  -0.000283
     86      -0.000018   0.000013   0.000011   0.000037   0.000037  -0.000024
     87       0.000081  -0.000055  -0.000027  -0.000166   0.000449   0.000059
     88       0.000070  -0.000030   0.000021  -0.000184   0.000430   0.000083
     89       0.000179  -0.000105   0.000077  -0.000449   0.000971   0.000254


-----------
IR SPECTRUM  
-----------

 Mode    freq (cm**-1)   T**2         TX         TY         TZ
-------------------------------------------------------------------
   6:        26.00    0.000000  (  0.000000   0.000000   0.000000)
   7:        30.87    0.000000  (  0.000000   0.000000   0.000000)
   8:        51.24    0.000000  (  0.000000   0.000000   0.000000)
   9:        68.98    0.000000  (  0.000000   0.000000   0.000000)
  10:        73.05    0.000000  (  0.000000   0.000000   0.000000)
  11:        92.76    0.000000  (  0.000000   0.000000   0.000000)
  12:       112.24    0.000000  (  0.000000   0.000000   0.000000)
  13:       134.21    0.000000  (  0.000000   0.000000   0.000000)
  14:       150.99    0.000000  (  0.000000   0.000000   0.000000)
  15:       160.72    0.000000  (  0.000000   0.000000   0.000000)
  16:       206.58    0.000000  (  0.000000   0.000000   0.000000)
  17:       234.15    0.000000  (  0.000000   0.000000   0.000000)
  18:       269.31    0.000000  (  0.000000   0.000000   0.000000)
  19:       281.91    0.000000  (  0.000000   0.000000   0.000000)
  20:       363.07    0.000000  (  0.000000   0.000000   0.000000)
  21:       371.55    0.000000  (  0.000000   0.000000   0.000000)
  22:       384.20    0.000000  (  0.000000   0.000000   0.000000)
  23:       430.09    0.000000  (  0.000000   0.000000   0.000000)
  24:       468.73    0.000000  (  0.000000   0.000000   0.000000)
  25:       504.13    0.000000  (  0.000000   0.000000   0.000000)
  26:       585.48    0.000000  (  0.000000   0.000000   0.000000)
  27:       598.90    0.000000  (  0.000000   0.000000   0.000000)
  28:       630.22    0.000000  (  0.000000   0.000000   0.000000)
  29:       663.02    0.000000  (  0.000000   0.000000   0.000000)
  30:       750.75    0.000000  (  0.000000   0.000000   0.000000)
  31:       779.36    0.000000  (  0.000000   0.000000   0.000000)
  32:       833.77    0.000000  (  0.000000   0.000000   0.000000)
  33:       863.42    0.000000  (  0.000000   0.000000   0.000000)
  34:       873.54    0.000000  (  0.000000   0.000000   0.000000)
  35:       904.84    0.000000  (  0.000000   0.000000   0.000000)
  36:       923.06    0.000000  (  0.000000   0.000000   0.000000)
  37:       929.56    0.000000  (  0.000000   0.000000   0.000000)
  38:       934.15    0.000000  (  0.000000   0.000000   0.000000)
  39:       945.85    0.000000  (  0.000000   0.000000   0.000000)
  40:       955.72    0.000000  (  0.000000   0.000000   0.000000)
  41:       988.79    0.000000  (  0.000000   0.000000   0.000000)
  42:      1048.37    0.000000  (  0.000000   0.000000   0.000000)
  43:      1077.08    0.000000  (  0.000000   0.000000   0.000000)
  44:      1080.28    0.000000  (  0.000000   0.000000   0.000000)
  45:      1101.60    0.000000  (  0.000000   0.000000   0.000000)
  46:      1121.86    0.000000  (  0.000000   0.000000   0.000000)
  47:      1127.40    0.000000  (  0.000000   0.000000   0.000000)
  48:      1162.24    0.000000  (  0.000000   0.000000   0.000000)
  49:      1179.69    0.000000  (  0.000000   0.000000   0.000000)
  50:      1190.24    0.000000  (  0.000000   0.000000   0.000000)
  51:      1216.01    0.000000  (  0.000000   0.000000   0.000000)
  52:      1238.48    0.000000  (  0.000000   0.000000   0.000000)
  53:      1257.84    0.000000  (  0.000000   0.000000   0.000000)
  54:      1270.83    0.000000  (  0.000000   0.000000   0.000000)
  55:      1277.34    0.000000  (  0.000000   0.000000   0.000000)
  56:      1278.27    0.000000  (  0.000000   0.000000   0.000000)
  57:      1321.47    0.000000  (  0.000000   0.000000   0.000000)
  58:      1329.46    0.000000  (  0.000000   0.000000   0.000000)
  59:      1361.29    0.000000  (  0.000000   0.000000   0.000000)
  60:      1368.29    0.000000  (  0.000000   0.000000   0.000000)
  61:      1414.55    0.000000  (  0.000000   0.000000   0.000000)
  62:      1433.19    0.000000  (  0.000000   0.000000   0.000000)
  63:      1466.69    0.000000  (  0.000000   0.000000   0.000000)
  64:      1468.15    0.000000  (  0.000000   0.000000   0.000000)
  65:      1488.60    0.000000  (  0.000000   0.000000   0.000000)
  66:      1496.13    0.000000  (  0.000000   0.000000   0.000000)
  67:      1499.47    0.000000  (  0.000000   0.000000   0.000000)
  68:      1504.28    0.000000  (  0.000000   0.000000   0.000000)
  69:      1543.08    0.000000  (  0.000000   0.000000   0.000000)
  70:      1577.15    0.000000  (  0.000000   0.000000   0.000000)
  71:      1590.02    0.000000  (  0.000000   0.000000   0.000000)
  72:      1697.28    0.000000  (  0.000000   0.000000   0.000000)
  73:      2820.07    0.000000  (  0.000000   0.000000   0.000000)
  74:      2835.61    0.000000  (  0.000000   0.000000   0.000000)
  75:      2929.62    0.000000  (  0.000000   0.000000   0.000000)
  76:      2957.87    0.000000  (  0.000000   0.000000   0.000000)
  77:      2967.53    0.000000  (  0.000000   0.000000   0.000000)
  78:      2978.08    0.000000  (  0.000000   0.000000   0.000000)
  79:      2992.35    0.000000  (  0.000000   0.000000   0.000000)
  80:      3026.91    0.000000  (  0.000000   0.000000   0.000000)
  81:      3029.42    0.000000  (  0.000000   0.000000   0.000000)
  82:      3035.48    0.000000  (  0.000000   0.000000   0.000000)
  83:      3064.30    0.000000  (  0.000000   0.000000   0.000000)
  84:      3075.08    0.000000  (  0.000000   0.000000   0.000000)
  85:      3080.82    0.000000  (  0.000000   0.000000   0.000000)
  86:      3090.66    0.000000  (  0.000000   0.000000   0.000000)
  87:      3118.00    0.000000  (  0.000000   0.000000   0.000000)
  88:      3212.50    0.000000  (  0.000000   0.000000   0.000000)
  89:      3633.34    0.000000  (  0.000000   0.000000   0.000000)

The first frequency considered to be a vibration is 6
The total number of vibrations considered is 84


--------------------------
THERMOCHEMISTRY AT 298.15K
--------------------------

Temperature         ... 298.15 K
Pressure            ... 1.00 atm
Total Mass          ... 179.26 AMU

Throughout the following assumptions are being made:
  (1) The electronic state is orbitally nondegenerate
  (2) There are no thermally accessible electronically excited states
  (3) Hindered rotations indicated by low frequency modes are not
      treated as such but are treated as vibrations and this may
      cause some error
  (4) All equations used are the standard statistical mechanics
      equations for an ideal gas
  (5) All vibrations are strictly harmonic

freq.      26.00  E(vib)   ...       0.56 
freq.      30.87  E(vib)   ...       0.55 
freq.      51.24  E(vib)   ...       0.52 
freq.      68.98  E(vib)   ...       0.50 
freq.      73.05  E(vib)   ...       0.49 
freq.      92.76  E(vib)   ...       0.47 
freq.     112.24  E(vib)   ...       0.45 
freq.     134.21  E(vib)   ...       0.42 
freq.     150.99  E(vib)   ...       0.40 
freq.     160.72  E(vib)   ...       0.39 
freq.     206.58  E(vib)   ...       0.35 
freq.     234.15  E(vib)   ...       0.32 
freq.     269.31  E(vib)   ...       0.29 
freq.     281.91  E(vib)   ...       0.28 
freq.     363.07  E(vib)   ...       0.22 
freq.     371.55  E(vib)   ...       0.21 
freq.     384.20  E(vib)   ...       0.20 
freq.     430.09  E(vib)   ...       0.18 
freq.     468.73  E(vib)   ...       0.16 
freq.     504.13  E(vib)   ...       0.14 
freq.     585.48  E(vib)   ...       0.11 
freq.     598.90  E(vib)   ...       0.10 
freq.     630.22  E(vib)   ...       0.09 
freq.     663.02  E(vib)   ...       0.08 
freq.     750.75  E(vib)   ...       0.06 
freq.     779.36  E(vib)   ...       0.05 
freq.     833.77  E(vib)   ...       0.04 
freq.     863.42  E(vib)   ...       0.04 
freq.     873.54  E(vib)   ...       0.04 
freq.     904.84  E(vib)   ...       0.03 
freq.     923.06  E(vib)   ...       0.03 
freq.     929.56  E(vib)   ...       0.03 
freq.     934.15  E(vib)   ...       0.03 
freq.     945.85  E(vib)   ...       0.03 
freq.     955.72  E(vib)   ...       0.03 
freq.     988.79  E(vib)   ...       0.02 
freq.    1048.37  E(vib)   ...       0.02 
freq.    1077.08  E(vib)   ...       0.02 
freq.    1080.28  E(vib)   ...       0.02 
freq.    1101.60  E(vib)   ...       0.02 
freq.    1121.86  E(vib)   ...       0.01 
freq.    1127.40  E(vib)   ...       0.01 
freq.    1162.24  E(vib)   ...       0.01 
freq.    1179.69  E(vib)   ...       0.01 
freq.    1190.24  E(vib)   ...       0.01 
freq.    1216.01  E(vib)   ...       0.01 
freq.    1238.48  E(vib)   ...       0.01 
freq.    1257.84  E(vib)   ...       0.01 
freq.    1270.83  E(vib)   ...       0.01 
freq.    1277.34  E(vib)   ...       0.01 
freq.    1278.27  E(vib)   ...       0.01 
freq.    1321.47  E(vib)   ...       0.01 
freq.    1329.46  E(vib)   ...       0.01 
freq.    1361.29  E(vib)   ...       0.01 
freq.    1368.29  E(vib)   ...       0.01 
freq.    1414.55  E(vib)   ...       0.00 
freq.    1433.19  E(vib)   ...       0.00 
freq.    1466.69  E(vib)   ...       0.00 
freq.    1468.15  E(vib)   ...       0.00 
freq.    1488.60  E(vib)   ...       0.00 
freq.    1496.13  E(vib)   ...       0.00 
freq.    1499.47  E(vib)   ...       0.00 
freq.    1504.28  E(vib)   ...       0.00 
freq.    1543.08  E(vib)   ...       0.00 
freq.    1577.15  E(vib)   ...       0.00 
freq.    1590.02  E(vib)   ...       0.00 
freq.    1697.28  E(vib)   ...       0.00 
freq.    2820.07  E(vib)   ...       0.00 
freq.    2835.61  E(vib)   ...       0.00 
freq.    2929.62  E(vib)   ...       0.00 
freq.    2957.87  E(vib)   ...       0.00 
freq.    2967.53  E(vib)   ...       0.00 
freq.    2978.08  E(vib)   ...       0.00 
freq.    2992.35  E(vib)   ...       0.00 
freq.    3026.91  E(vib)   ...       0.00 
freq.    3029.42  E(vib)   ...       0.00 
freq.    3035.48  E(vib)   ...       0.00 
freq.    3064.30  E(vib)   ...       0.00 
freq.    3075.08  E(vib)   ...       0.00 
freq.    3080.82  E(vib)   ...       0.00 
freq.    3090.66  E(vib)   ...       0.00 
freq.    3118.00  E(vib)   ...       0.00 
freq.    3212.50  E(vib)   ...       0.00 
freq.    3633.34  E(vib)   ...       0.00 

------------
INNER ENERGY
------------

The inner energy is: U= E(el) + E(ZPE) + E(vib) + E(rot) + E(trans)
    E(el)   - is the total energy from the electronic structure calculation
              = E(kin-el) + E(nuc-el) + E(el-el) + E(nuc-nuc)
    E(ZPE)  - the the zero temperature vibrational energy from the frequency calculation
    E(vib)  - the the finite temperature correction to E(ZPE) due to population
              of excited vibrational states
    E(rot)  - is the rotational thermal energy
    E(trans)- is the translational thermal energy

Summary of contributions to the inner energy U:
Electronic energy                ...    -39.19783353 Eh
Zero point energy                ...      0.25198699 Eh     158.12 kcal/mol
Thermal vibrational correction   ...      0.01298106 Eh       8.15 kcal/mol
Thermal rotational correction    ...      0.00141627 Eh       0.89 kcal/mol
Thermal translational correction ...      0.00141627 Eh       0.89 kcal/mol
-----------------------------------------------------------------------
Total thermal energy                    -38.93003294 Eh


Summary of corrections to the electronic energy:
(perhaps to be used in another calculation)
Total thermal correction                  0.01581360 Eh       9.92 kcal/mol
Non-thermal (ZPE) correction              0.25198699 Eh     158.12 kcal/mol
-----------------------------------------------------------------------
Total correction                          0.26780059 Eh     168.05 kcal/mol


--------
ENTHALPY
--------

The enthalpy is H = U + kB*T
                kB is Boltzmann's constant
Total free energy                 ...    -38.93003294 Eh 
Thermal Enthalpy correction       ...      0.00094421 Eh       0.59 kcal/mol
-----------------------------------------------------------------------
Total Enthalpy                    ...    -38.92908873 Eh


Note: Only C1 symmetry has been detected, increase convergence thresholds 
      if your molecule has a higher symmetry. Symmetry factor of 1.0 is   
      used for the rotational entropy correction. 
 

Note: Rotational entropy computed according to Herzberg 
Infrared and Raman Spectra, Chapter V,1, Van Nostrand Reinhold, 1945 
Point Group:  C1, Symmetry Number:   1  
Rotational constants in cm-1:     0.055310     0.009696     0.008753 

Vibrational entropy computed according to the QRRHO of S. Grimme
Chem.Eur.J. 2012 18 9955


-------
ENTROPY
-------

The entropy contributions are T*S = T*(S(el)+S(vib)+S(rot)+S(trans))
     S(el)   - electronic entropy
     S(vib)  - vibrational entropy
     S(rot)  - rotational entropy
     S(trans)- translational entropy
The entropies will be listed as mutliplied by the temperature to get
units of energy

Electronic entropy                ...      0.00000000 Eh      0.00 kcal/mol
Vibrational entropy               ...      0.02365742 Eh     14.85 kcal/mol
Rotational entropy                ...      0.01530299 Eh      9.60 kcal/mol
Translational entropy             ...      0.01969790 Eh     12.36 kcal/mol
-----------------------------------------------------------------------
Final entropy term                ...      0.05865831 Eh     36.81 kcal/mol

In case the symmetry of your molecule has not been determined correctly
or in case you have a reason to use a different symmetry number we print 
out the resulting rotational entropy values for sn=1,12 :
 --------------------------------------------------------
|  sn= 1 | S(rot)=       0.01530299 Eh      9.60 kcal/mol|
|  sn= 2 | S(rot)=       0.01464853 Eh      9.19 kcal/mol|
|  sn= 3 | S(rot)=       0.01426570 Eh      8.95 kcal/mol|
|  sn= 4 | S(rot)=       0.01399408 Eh      8.78 kcal/mol|
|  sn= 5 | S(rot)=       0.01378339 Eh      8.65 kcal/mol|
|  sn= 6 | S(rot)=       0.01361124 Eh      8.54 kcal/mol|
|  sn= 7 | S(rot)=       0.01346570 Eh      8.45 kcal/mol|
|  sn= 8 | S(rot)=       0.01333962 Eh      8.37 kcal/mol|
|  sn= 9 | S(rot)=       0.01322841 Eh      8.30 kcal/mol|
|  sn=10 | S(rot)=       0.01312893 Eh      8.24 kcal/mol|
|  sn=11 | S(rot)=       0.01303894 Eh      8.18 kcal/mol|
|  sn=12 | S(rot)=       0.01295679 Eh      8.13 kcal/mol|
 --------------------------------------------------------


-------------------
GIBBS FREE ENERGY
-------------------

The Gibbs free energy is G = H - T*S

Total enthalpy                    ...    -38.92908873 Eh 
Total entropy correction          ...     -0.05865831 Eh    -36.81 kcal/mol
-----------------------------------------------------------------------
Final Gibbs free energy         ...    -38.98774703 Eh

For completeness - the Gibbs free energy minus the electronic energy
G-E(el)                           ...      0.21008650 Eh    131.83 kcal/mol


Total Time for Numerical Frequencies  :        77.032 sec

Timings for individual modules:

Sum of individual times         ...        6.344 sec (=   0.106 min)
Geometry relaxation             ...        3.574 sec (=   0.060 min)  56.3 %
XTB module                      ...        2.770 sec (=   0.046 min)  43.7 %
                             ****ORCA TERMINATED NORMALLY****
TOTAL RUN TIME: 0 days 0 hours 1 minutes 27 seconds 74 msec
