
                                 *****************
                                 * O   R   C   A *
                                 *****************

           --- An Ab Initio, DFT and Semiempirical electronic structure package ---

                  #######################################################
                  #                        -***-                        #
                  #          Department of theory and spectroscopy      #
                  #               Directorship: Frank Neese             #
                  #        Max Planck Institute fuer Kohlenforschung    #
                  #                Kaiser Wilhelm Platz 1               #
                  #                 D-45470 Muelheim/Ruhr               #
                  #                      Germany                        #
                  #                                                     #
                  #                  All rights reserved                #
                  #                        -***-                        #
                  #######################################################


                         Program Version 4.2.1 -  RELEASE  -


 With contributions from (in alphabetic order):
   Daniel Aravena         : Magnetic Suceptibility
   Michael Atanasov       : Ab Initio Ligand Field Theory (pilot matlab implementation)
   Alexander A. Auer      : GIAO ZORA, VPT2
   Ute Becker             : Parallelization
   Giovanni Bistoni       : ED, misc. LED, open-shell LED, HFLD
   Martin Brehm           : Molecular dynamics
   Dmytro Bykov           : SCF Hessian
   Vijay G. Chilkuri      : MRCI spin determinant printing, contributions to CSF-ICE
   Dipayan Datta          : RHF DLPNO-CCSD density
   Achintya Kumar Dutta   : EOM-CC, STEOM-CC
   Dmitry Ganyushin       : Spin-Orbit,Spin-Spin,Magnetic field MRCI
   Miquel Garcia          : C-PCM Hessian, Gaussian charge scheme
   Yang Guo               : DLPNO-NEVPT2, CIM, IAO-localization
   Andreas Hansen         : Spin unrestricted coupled pair/coupled cluster methods
   Benjamin Helmich-Paris : CASSCF linear response (MC-RPA)
   Lee Huntington         : MR-EOM, pCC
   Robert Izsak           : Overlap fitted RIJCOSX, COSX-SCS-MP3, EOM
   Christian Kollmar      : KDIIS, OOCD, Brueckner-CCSD(T), CCSD density
   Simone Kossmann        : Meta GGA functionals, TD-DFT gradient, OOMP2, MP2 Hessian
   Martin Krupicka        : AUTO-CI
   Lucas Lang             : DCDCAS
   Dagmar Lenk            : GEPOL surface, SMD
   Dimitrios Liakos       : Extrapolation schemes; Compound Job, initial MDCI parallelization
   Dimitrios Manganas     : Further ROCIS development; embedding schemes
   Dimitrios Pantazis     : SARC Basis sets
   Taras Petrenko         : DFT Hessian,TD-DFT gradient, ASA, ECA, R-Raman, ABS, FL, XAS/XES, NRVS
   Peter Pinski           : DLPNO-MP2, DLPNO-MP2 Gradient
   Christoph Reimann      : Effective Core Potentials
   Marius Retegan         : Local ZFS, SOC
   Christoph Riplinger    : Optimizer, TS searches, QM/MM, DLPNO-CCSD(T), (RO)-DLPNO pert. Triples
   Tobias Risthaus        : Range-separated hybrids, TD-DFT gradient, RPA, STAB
   Michael Roemelt        : Original ROCIS implementation
   Masaaki Saitow         : Open-shell DLPNO-CCSD energy and density
   Barbara Sandhoefer     : DKH picture change effects
   Avijit Sen             : IP-ROCIS
   Kantharuban Sivalingam : CASSCF convergence, NEVPT2, FIC-MRCI
   Bernardo de Souza      : ESD, SOC TD-DFT
   Georgi Stoychev        : AutoAux, RI-MP2 NMR
   Willem Van den Heuvel  : Paramagnetic NMR
   Boris Wezisla          : Elementary symmetry handling
   Frank Wennmohs         : Technical directorship


 We gratefully acknowledge several colleagues who have allowed us to
 interface, adapt or use parts of their codes:
   Stefan Grimme, W. Hujo, H. Kruse,             : VdW corrections, initial TS optimization,
                  C. Bannwarth                     DFT functionals, gCP, sTDA/sTD-DF
   Ed Valeev, F. Pavosevic, A. Kumar             : LibInt (2-el integral package), F12 methods
   Garnet Chan, S. Sharma, J. Yang, R. Olivares  : DMRG
   Ulf Ekstrom                                   : XCFun DFT Library
   Mihaly Kallay                                 : mrcc  (arbitrary order and MRCC methods)
   Andreas Klamt, Michael Diedenhofen            : otool_cosmo (COSMO solvation model)
   Jiri Pittner, Ondrej Demel                    : Mk-CCSD
   Frank Weinhold                                : gennbo (NPA and NBO analysis)
   Christopher J. Cramer and Donald G. Truhlar   : smd solvation model
   Lars Goerigk                                  : TD-DFT with DH, B97 family of functionals
   V. Asgeirsson, H. Jonsson                     : NEB implementation
   FAccTs GmbH                                   : IRC, NEB, NEB-TS, Multilevel, MM, QM/MM, CI optimization
   S Lehtola, MJT Oliveira, MAL Marques          : LibXC Library


 Your calculation uses the libint2 library for the computation of 2-el integrals
 For citations please refer to: http://libint.valeyev.net

 Your ORCA version has been built with support for libXC version: 4.2.3
 For citations please refer to: https://tddft.org/programs/libxc/

 This ORCA versions uses:
   CBLAS   interface :  Fast vector & matrix operations
   LAPACKE interface :  Fast linear algebra routines
   SCALAPACK package :  Parallel linear algebra routines




***************************************
The coordinates will be read from file: init.xyz
***************************************


Your calculation utilizes the SMD solvation module
Please cite in your paper:
A.V. Marenich, C.J. Cramer, D.G. Truhlar J. Phys. Chem. B, 113, (2009), 6378 

Your calculation utilizes the semiempirical GFN2-xTB method
Please cite in your paper:
C. Bannwarth, Ehlert S., S. Grimme,  J. Chem. Theory Comput., 15, (2019), 1652.
   

----- Orbital basis set information -----
Your calculation utilizes the basis: def2-SVP
   F. Weigend and R. Ahlrichs, Phys. Chem. Chem. Phys. 7, 3297 (2005).

================================================================================
                                        WARNINGS
                       Please study these warnings very carefully!
================================================================================


WARNING: The environment variable RSH_COMMAND is not set!
  ===> : All Displacements for the Numerical Hessian calculation
         will be started on localhost

WARNING: Geometry Optimization
  ===> : Switching off AutoStart
         For restart on a previous wavefunction, please use MOREAD

WARNING: Found dipole moment calculation with XTB calculation
  ===> : Switching off dipole moment calculation


INFO   : the flag for use of LIBINT has been found!

================================================================================
                                       INPUT FILE
================================================================================
NAME = opt+freq.inp
|  1> ! XTB2 Opt NumFreq
|  2> 
|  3> %cpcm
|  4>  smd true
|  5>  smdsolvent "ch2cl2"
|  6> end
|  7> 
|  8> %pal
|  9>  nprocs 12
| 10> end
| 11> 
| 12> *xyzfile 0 1 init.xyz
| 13> 
| 14> 
| 15>                          ****END OF INPUT****
================================================================================

                       *****************************
                       * Geometry Optimization Run *
                       *****************************

Geometry optimization settings:
Update method            Update   .... BFGS
Choice of coordinates    CoordSys .... Z-matrix Internals
Initial Hessian          InHess   .... Almoef's Model

Convergence Tolerances:
Energy Change            TolE     ....  5.0000e-06 Eh
Max. Gradient            TolMAXG  ....  3.0000e-04 Eh/bohr
RMS Gradient             TolRMSG  ....  1.0000e-04 Eh/bohr
Max. Displacement        TolMAXD  ....  4.0000e-03 bohr
RMS Displacement         TolRMSD  ....  2.0000e-03 bohr
Strict Convergence                ....  False
------------------------------------------------------------------------------
                        ORCA OPTIMIZATION COORDINATE SETUP
------------------------------------------------------------------------------

The optimization will be done in new redundant internal coordinates
Making redundant internal coordinates   ...  (new redundants) done
Evaluating the initial hessian          ...  (Almloef) done
Evaluating the coordinates              ...  done
Calculating the B-matrix                .... done
Calculating the G-matrix                .... done
Diagonalizing the G-matrix              .... done
Small eigenvalue found = 6.006e-03
Small eigenvalue found = 1.119e-02
Small eigenvalue found = 2.622e-02
The first mode is                       ....  105
The number of degrees of freedom        ....   93

    -----------------------------------------------------------------
                    Redundant Internal Coordinates


    -----------------------------------------------------------------
         Definition                    Initial Value    Approx d2E/dq
    -----------------------------------------------------------------
      1. B(C   1,C   0)                  1.3967         0.609544   
      2. B(C   2,C   1)                  1.3817         0.644200   
      3. B(C   3,C   2)                  1.3860         0.634075   
      4. B(C   4,C   3)                  1.3868         0.632114   
      5. B(C   5,C   4)                  1.3814         0.644871   
      6. B(C   5,C   0)                  1.3967         0.609692   
      7. B(C   6,C   0)                  1.4524         0.496782   
      8. B(H   7,C   1)                  1.0812         0.371964   
      9. B(H   8,C   5)                  1.0775         0.376970   
     10. B(H   9,C   3)                  1.0801         0.373462   
     11. B(N  10,C   6)                  1.2653         0.884628   
     12. B(C  11,N  10)                  1.4342         0.475712   
     13. B(H  12,H   8)                  2.1594         0.001356   
     14. B(H  12,N  10)                  1.7665         0.026868   
     15. B(C  13,C  11)                  1.5325         0.370174   
     16. B(H  14,C  11)                  1.1017         0.344943   
     17. B(H  15,C  11)                  1.0957         0.352665   
     18. B(H  16,C  13)                  1.0916         0.358049   
     19. B(H  17,C  13)                  1.0928         0.356433   
     20. B(H  19,C   6)                  1.1003         0.346761   
     21. B(H  20,O  18)                  0.9605         0.518959   
     22. B(O  21,H  12)                  0.9864         0.471899   
     23. B(H  22,O  18)                  0.9784         0.486035   
     24. B(H  22,O  21)                  1.7883         0.024802   
     25. B(H  22,H  12)                  2.2290         0.001050   
     26. B(H  23,O  21)                  0.9606         0.518780   
     27. B(H  23,H  22)                  2.2511         0.000968   
     28. B(H  24,C   2)                  1.0802         0.373300   
     29. B(H  25,C   4)                  1.0801         0.373423   
     30. B(C  26,C  13)                  1.5266         0.378225   
     31. B(H  27,C  26)                  1.0925         0.356800   
     32. B(H  28,C  26)                  1.0927         0.356493   
     33. B(C  29,C  26)                  1.5245         0.381166   
     34. B(H  30,C  29)                  1.0879         0.362880   
     35. B(H  31,C  29)                  1.0878         0.363038   
     36. B(H  32,C  29)                  1.0880         0.362709   
     37. A(C   5,C   0,C   6)          122.2223         0.415945   
     38. A(C   1,C   0,C   6)          118.8096         0.415927   
     39. A(C   1,C   0,C   5)          118.9675         0.431438   
     40. A(C   0,C   1,C   2)          120.5535         0.435732   
     41. A(C   2,C   1,H   7)          119.9269         0.357166   
     42. A(C   0,C   1,H   7)          119.5176         0.353831   
     43. A(C   3,C   2,H  24)          120.1104         0.356423   
     44. A(C   1,C   2,H  24)          119.8760         0.357384   
     45. A(C   1,C   2,C   3)          120.0135         0.438842   
     46. A(C   4,C   3,H   9)          120.1071         0.356262   
     47. A(C   2,C   3,C   4)          119.8989         0.437346   
     48. A(C   2,C   3,H   9)          119.9939         0.356450   
     49. A(C   5,C   4,H  25)          119.7296         0.357467   
     50. A(C   3,C   4,C   5)          120.3510         0.438680   
     51. A(C   3,C   4,H  25)          119.9194         0.356256   
     52. A(C   4,C   5,H   8)          120.3508         0.358042   
     53. A(C   0,C   5,C   4)          120.2124         0.435833   
     54. A(C   0,C   5,H   8)          119.4364         0.354648   
     55. A(C   0,C   6,H  19)          115.2019         0.337865   
     56. A(C   0,C   6,N  10)          123.8642         0.441756   
     57. A(N  10,C   6,H  19)          120.9300         0.370251   
     58. A(C   5,H   8,H  12)          130.0035         0.135100   
     59. A(C   6,N  10,H  12)          130.9990         0.244808   
     60. A(C  11,N  10,H  12)          107.7252         0.224397   
     61. A(C   6,N  10,C  11)          120.2883         0.435438   
     62. A(H  14,C  11,H  15)          108.3348         0.287943   
     63. A(N  10,C  11,H  15)          107.3004         0.334344   
     64. A(C  13,C  11,H  14)          109.9255         0.321558   
     65. A(N  10,C  11,H  14)          112.0331         0.333118   
     66. A(C  13,C  11,H  15)          109.2374         0.322726   
     67. A(N  10,C  11,C  13)          109.9273         0.375799   
     68. A(O  21,H  12,H  22)           51.4000         0.134245   
     69. A(H   8,H  12,N  10)           83.6043         0.114060   
     70. A(H   8,H  12,O  21)           98.9266         0.136939   
     71. A(N  10,H  12,H  22)          126.8389         0.112652   
     72. A(H   8,H  12,H  22)           86.5925         0.098734   
     73. A(H  16,C  13,H  17)          107.5543         0.290112   
     74. A(C  11,C  13,H  17)          108.7752         0.323289   
     75. A(C  11,C  13,H  16)          109.0491         0.323529   
     76. A(H  17,C  13,C  26)          109.7658         0.324433   
     77. A(H  16,C  13,C  26)          109.7993         0.324674   
     78. A(C  11,C  13,C  26)          111.7945         0.363552   
     79. A(H  20,O  18,H  22)          105.2680         0.318206   
     80. A(H  12,O  21,H  22)          103.0641         0.203396   
     81. A(H  12,O  21,H  23)          106.3864         0.316662   
     82. A(H  22,O  21,H  23)          105.9978         0.205875   
     83. A(H  12,H  22,H  23)           40.7232         0.098019   
     84. A(O  18,H  22,H  23)          154.5956         0.133717   
     85. A(H  12,H  22,O  21)           25.5359         0.112228   
     86. A(H  12,H  22,O  18)          152.1065         0.134548   
     87. A(O  21,H  22,H  23)           24.2172         0.111804   
     88. A(O  21,H  23,H  22)           49.7850         0.134382   
     89. A(H  28,C  26,C  29)          109.4115         0.324855   
     90. A(H  27,C  26,C  29)          109.4080         0.324901   
     91. A(C  13,C  26,C  29)          111.6418         0.365376   
     92. A(H  27,C  26,H  28)          107.6214         0.289961   
     93. A(C  13,C  26,H  28)          109.3455         0.324442   
     94. A(C  13,C  26,H  27)          109.3246         0.324487   
     95. A(H  31,C  29,H  32)          108.3894         0.291542   
     96. A(H  30,C  29,H  32)          108.3164         0.291522   
     97. A(C  26,C  29,H  32)          110.6022         0.325779   
     98. A(H  30,C  29,H  31)          108.4204         0.291563   
     99. A(C  26,C  29,H  31)          110.4665         0.325828   
    100. A(C  26,C  29,H  30)          110.5694         0.325804   
    101. D(C   2,C   1,C   0,C   5)     -0.6702         0.025658   
    102. D(C   2,C   1,C   0,C   6)    179.6090         0.025658   
    103. D(H   7,C   1,C   0,C   5)    179.8386         0.025658   
    104. D(H   7,C   1,C   0,C   6)      0.1178         0.025658   
    105. D(H  24,C   2,C   1,C   0)   -179.6888         0.028859   
    106. D(C   3,C   2,C   1,H   7)    179.8587         0.028859   
    107. D(C   3,C   2,C   1,C   0)      0.3695         0.028859   
    108. D(H  24,C   2,C   1,H   7)     -0.1996         0.028859   
    109. D(C   4,C   3,C   2,H  24)   -179.8674         0.027900   
    110. D(H   9,C   3,C   2,C   1)    179.9589         0.027900   
    111. D(C   4,C   3,C   2,C   1)      0.0742         0.027900   
    112. D(H   9,C   3,C   2,H  24)      0.0173         0.027900   
    113. D(H  25,C   4,C   3,H   9)     -0.1623         0.027716   
    114. D(C   5,C   4,C   3,C   2)     -0.2084         0.027716   
    115. D(H  25,C   4,C   3,C   2)    179.7223         0.027716   
    116. D(C   5,C   4,C   3,H   9)    179.9070         0.027716   
    117. D(C   0,C   5,C   4,H  25)    179.9685         0.028923   
    118. D(H   8,C   5,C   4,H  25)     -0.2378         0.028923   
    119. D(H   8,C   5,C   4,C   3)    179.6931         0.028923   
    120. D(C   0,C   5,C   4,C   3)     -0.1006         0.028923   
    121. D(H   8,C   5,C   0,C   6)      0.4496         0.025671   
    122. D(C   4,C   5,C   0,C   6)   -179.7548         0.025671   
    123. D(C   4,C   5,C   0,C   1)      0.5344         0.025671   
    124. D(H   8,C   5,C   0,C   1)   -179.2612         0.025671   
    125. D(H  19,C   6,C   0,C   5)   -172.0251         0.016808   
    126. D(H  19,C   6,C   0,C   1)      7.6862         0.016808   
    127. D(N  10,C   6,C   0,C   5)      8.6885         0.016808   
    128. D(N  10,C   6,C   0,C   1)   -171.6003         0.016808   
    129. D(H  12,H   8,C   5,C   4)    153.2315         0.122578   
    130. D(H  12,H   8,C   5,C   0)    -26.9732         0.122578   
    131. D(C  11,N  10,C   6,C   0)   -179.0568         0.068488   
    132. D(H  12,N  10,C   6,H  19)   -165.4346         0.068488   
    133. D(H  12,N  10,C   6,C   0)     13.8127         0.068488   
    134. D(C  11,N  10,C   6,H  19)      1.6958         0.068488   
    135. D(H  15,C  11,N  10,H  12)     47.9650         0.019347   
    136. D(H  15,C  11,N  10,C   6)   -121.8703         0.019347   
    137. D(C  13,C  11,N  10,H  12)    -70.7199         0.019347   
    138. D(C  13,C  11,N  10,C   6)    119.4448         0.019347   
    139. D(H  14,C  11,N  10,H  12)    166.7475         0.019347   
    140. D(H  14,C  11,N  10,C   6)     -3.0877         0.019347   
    141. D(H  22,H  12,N  10,C   6)     55.0792         0.001973   
    142. D(H   8,H  12,N  10,C  11)    165.8599         0.001973   
    143. D(H   8,H  12,N  10,C   6)    -25.7891         0.001973   
    144. D(H  22,H  12,H   8,C   5)    -91.7026         0.001518   
    145. D(N  10,H  12,H   8,C   5)     35.9639         0.001518   
    146. D(H  22,H  12,N  10,C  11)   -113.2719         0.001973   
    147. D(O  21,H  12,H   8,C   5)   -141.7615         0.001518   
    148. D(C  26,C  13,C  11,H  15)     56.9527         0.010953   
    149. D(C  26,C  13,C  11,N  10)    174.4393         0.010953   
    150. D(H  17,C  13,C  11,H  15)    178.3258         0.010953   
    151. D(H  17,C  13,C  11,H  14)     59.5823         0.010953   
    152. D(H  17,C  13,C  11,N  10)    -64.1876         0.010953   
    153. D(H  16,C  13,C  11,H  15)    -64.6483         0.010953   
    154. D(C  26,C  13,C  11,H  14)    -61.7907         0.010953   
    155. D(H  16,C  13,C  11,H  14)    176.6083         0.010953   
    156. D(H  16,C  13,C  11,N  10)     52.8383         0.010953   
    157. D(H  23,O  21,H  12,H  22)    111.2930         0.326110   
    158. D(H  23,O  21,H  12,H   8)   -170.3829         0.326110   
    159. D(H  22,O  21,N  10,C  11)   -114.7827         0.001501   
    160. D(H  22,O  21,N  10,C   6)     52.2695         0.001501   
    161. D(H  23,O  21,N  10,C  11)     -4.3831         0.001501   
    162. D(H  22,O  21,H  12,H   8)     78.3242         0.326110   
    163. D(H  23,O  21,N  10,C   6)    162.6692         0.001501   
    164. D(H  23,O  21,O  18,H  20)    142.0806         0.001501   
    165. D(H  12,O  21,O  18,H  20)   -106.7863         0.001501   
    166. D(H  23,H  22,O  21,H  12)    111.5804         0.001900   
    167. D(H  12,H  22,O  21,H  23)   -111.5804         0.001900   
    168. D(H  12,H  22,O  18,H  20)   -110.7824         0.322275   
    169. D(H  23,H  22,H  12,N  10)    140.5588         0.001513   
    170. D(H  23,H  22,H  12,H   8)   -140.0463         0.001513   
    171. D(H  23,H  22,H  12,O  21)    -35.7799         0.001513   
    172. D(O  21,H  22,H  12,N  10)    176.3387         0.001513   
    173. D(O  21,H  22,H  12,H   8)   -104.2664         0.001513   
    174. D(H  23,H  22,O  18,H  20)    147.5801         0.322275   
    175. D(O  18,H  22,H  12,N  10)      0.6537         0.001513   
    176. D(O  18,H  22,H  12,H   8)     80.0486         0.001513   
    177. D(O  18,H  22,H  12,O  21)   -175.6850         0.001513   
    178. D(O  21,H  23,H  22,H  12)     37.9108         0.001509   
    179. D(O  21,H  23,H  22,O  18)    173.2955         0.001509   
    180. D(H  22,H  23,O  21,H  12)   -109.2330         0.343782   
    181. D(C  29,C  26,C  13,H  17)     59.2957         0.011407   
    182. D(C  29,C  26,C  13,H  16)    -58.7383         0.011407   
    183. D(C  29,C  26,C  13,C  11)   -179.9057         0.011407   
    184. D(H  28,C  26,C  13,H  17)    -61.9195         0.011407   
    185. D(H  28,C  26,C  13,H  16)   -179.9535         0.011407   
    186. D(H  28,C  26,C  13,C  11)     58.8792         0.011407   
    187. D(H  27,C  26,C  13,H  17)   -179.5078         0.011407   
    188. D(H  27,C  26,C  13,H  16)     62.4583         0.011407   
    189. D(H  27,C  26,C  13,C  11)    -58.7091         0.011407   
    190. D(H  32,C  29,C  26,H  28)     61.2954         0.011576   
    191. D(H  32,C  29,C  26,H  27)    178.9705         0.011576   
    192. D(H  32,C  29,C  26,C  13)    -59.8814         0.011576   
    193. D(H  31,C  29,C  26,H  28)    -58.7069         0.011576   
    194. D(H  31,C  29,C  26,H  27)     58.9681         0.011576   
    195. D(H  31,C  29,C  26,C  13)   -179.8837         0.011576   
    196. D(H  30,C  29,C  26,H  28)   -178.7267         0.011576   
    197. D(H  30,C  29,C  26,H  27)    -61.0516         0.011576   
    198. D(H  30,C  29,C  26,C  13)     60.0965         0.011576   
    -----------------------------------------------------------------

Number of atoms                         .... 33
Number of degrees of freedom            .... 198

         *************************************************************
         *                GEOMETRY OPTIMIZATION CYCLE   1            *
         *************************************************************
      -----------------------------------------------------------      
     |                   =====================                   |     
     |                           x T B                           |     
     |                   =====================                   |     
     |                         S. Grimme                         |     
     |          Mulliken Center for Theoretical Chemistry        |     
     |                    University of Bonn                     |     
      -----------------------------------------------------------      

   * xtb version 6.3.0 (49875a8) compiled by 'schneider@apollo14' on 2020-05-23

   xtb is free software: you can redistribute it and/or modify it under
   the terms of the GNU Lesser General Public License as published by
   the Free Software Foundation, either version 3 of the License, or
   (at your option) any later version.
   
   xtb is distributed in the hope that it will be useful,
   but WITHOUT ANY WARRANTY; without even the implied warranty of
   MERCHANTABILITY or FITNESS FOR A PARTICULAR PURPOSE.  See the
   GNU Lesser General Public License for more details.
   
   Cite this work as:
   * S. Grimme, C. Bannwarth, P. Shushkov, J. Chem. Theory Comput., 2017,
     13, 1989-2009. DOI: 10.1021/acs.jctc.7b00118
   * C. Bannwarth, S. Ehlert and S. Grimme., J. Chem. Theory Comput., 2019,
     15, 1652-1671. DOI: 10.1021/acs.jctc.8b01176
   * P. Pracht, E. Caldeweyher, S. Ehlert, S. Grimme, ChemRxiv, 2019, preprint.
     DOI: 10.26434/chemrxiv.8326202.v1
   
   for GFN-FF:
   * S. Spicher and S. Grimme, Angew. Chem. Int. Ed., 2020,
     DOI: 10.1002/anie.202004239
   
   for DFT-D4:
   * E. Caldeweyher, C. Bannwarth and S. Grimme, J. Chem. Phys., 2017,
     147, 034112. DOI: 10.1063/1.4993215
   * E. Caldeweyher, S. Ehlert, A. Hansen, H. Neugebauer, S. Spicher,
     C. Bannwarth and S. Grimme, J. Chem. Phys., 2019, 150, 154122.
     DOI: 10.1063/1.5090222
   
   for sTDA-xTB:
   * S. Grimme and C. Bannwarth, J. Chem. Phys., 2016, 145, 054103.
     DOI: 10.1063/1.4959605
   
   in the mass-spec context:
   * V. Asgeirsson, C. Bauer and S. Grimme, Chem. Sci., 2017, 8, 4879.
     DOI: 10.1039/c7sc00601b
   * J. Koopman and S. Grimme, ACS Omega 2019, 4, 12, 15120-15133.
     DOI: 10.1021/acsomega.9b02011
   
   for metadynamics refer to:
   * S. Grimme, J. Chem. Theory Comput., 2019, 155, 2847-2862
     DOI: 10.1021/acs.jctc.9b00143
   
   with help from (in alphabetical order)
   C. Bannwarth, F. Bohle, G. Brandenburg, E. Caldeweyher, M. Checinski,
   S. Dohm, S. Ehlert, S. Ehrlich, F. März, H. Neugebauer, J. Pisarek,
   P. Pracht, P. Shushkov, and S. Spicher.
   
 * started run on 2020/06/19 at 18:07:21.781     

           -------------------------------------------------
          |                Calculation Setup                |
           -------------------------------------------------

          program call               : /opt/orca/otool_xtb opt+freq_XTB.xyz --grad -c 0 -u 0 -P 12 --namespace opt+freq --gbsa CH2Cl2
          calculation namespace      : opt+freq
          coordinate file            : opt+freq_XTB.xyz
          number of atoms            :                    33
          number of electrons        :                    80
          charge                     :                     0
          spin                       :                   0.0
          first test random number   :      0.43457043299035

   ID    Z sym.   atoms
    1    6 C      1-7, 12, 14, 27, 30
    2    1 H      8-10, 13, 15-18, 20, 21, 23-26, 28, 29, 31-33
    3    7 N      11
    4    8 O      19, 22

molecular fragmentation (1/2 indicates fragments):
111111111111211111212222111111111
# atoms in fragment 1/2:    27     6
 fragment masses (1/2) :      161.24       36.03
CMA distance (Bohr)    :   6.913
constraining FC (au)   :  0.0500
########################################################################
[WARNING] Please study the warnings concerning your input carefully
-1- prog_main_parseArguments: Process number higher than OMP_NUM_THREADS, I hope you know what you are doing.
########################################################################
 Solvent             : CH2Cl2
 Using internal parameter file: .param_gbsa2_CH2Cl2
 Gsolv ref. state (COSMO-RS): gsolv [1 M gas/solution]
 temperature (mdtemp)       :    298.14999999999998     
 dielectric constant        :    8.9299999999999997     
 rho                        :    1.3300000000000003     
 mass                       :    84.930000000000007     
 surface tension            :    15.568945408385856     
 probe radius               :   0.71987590000000001     
 Gshift (Eh)                :    4.4408291734517593E-003
 c1                         :    1.4917377599999999     
 soset                      :    0.0000000000000000     
 HB correction              :  F

           -------------------------------------------------
          |                 G F N 2 - x T B                 |
           -------------------------------------------------

        Reference                      10.1021/acs.jctc.8b01176
      * Hamiltonian:
        H0-scaling (s, p, d)           1.850000    2.230000    2.230000
        zeta-weighting                 0.500000
      * Dispersion:
        s8                             2.700000
        a1                             0.520000
        a2                             5.000000
        s9                             5.000000
      * Repulsion:
        kExp                           1.500000    1.000000
        rExp                           1.000000
      * Coulomb:
        alpha                          2.000000
        third order                    shell-resolved
        anisotropic                    true
        a3                             3.000000
        a5                             4.000000
        cn-shift                       1.200000
        cn-exp                         4.000000
        max-rad                        5.000000

q/qsh data taken from xtbrestart
CAMM data taken from xtbrestart

          ...................................................
          :                      SETUP                      :
          :.................................................:
          :  # basis functions                  75          :
          :  # atomic orbitals                  75          :
          :  # shells                           47          :
          :  # electrons                        80          :
          :  max. iterations                   250          :
          :  Hamiltonian                  GFN2-xTB          :
          :  restarted?                       true          :
          :  GBSA solvation                   true          :
          :  PC potential                    false          :
          :  electronic temp.          300.0000000     K    :
          :  accuracy                    1.0000000          :
          :  -> integral cutoff          0.2500000E+02      :
          :  -> integral neglect         0.1000000E-07      :
          :  -> SCF convergence          0.1000000E-05 Eh   :
          :  -> wf. convergence          0.1000000E-03 e    :
          :  Broyden damping             0.4000000          :
          ...................................................

 iter      E             dE          RMSdq      gap      omega  full diag
   1    -44.9056692 -0.449057E+02  0.951E-07    3.10       0.0  T
   2    -44.9056692  0.994760E-13  0.563E-07    3.10   30934.6  T
   3    -44.9056692  0.639488E-13  0.325E-07    3.10   53585.4  T

   *** convergence criteria satisfied after 3 iterations ***

         #    Occupation            Energy/Eh            Energy/eV
      -------------------------------------------------------------
         1        2.0000           -0.6773881             -18.4327
       ...           ...                  ...                  ...
        34        2.0000           -0.4317733             -11.7491
        35        2.0000           -0.4292077             -11.6793
        36        2.0000           -0.4282513             -11.6533
        37        2.0000           -0.4265119             -11.6060
        38        2.0000           -0.4121504             -11.2152
        39        2.0000           -0.4035799             -10.9820
        40        2.0000           -0.3914028             -10.6506 (HOMO)
        41                         -0.2775168              -7.5516 (LUMO)
        42                         -0.2294031              -6.2424
        43                         -0.1920510              -5.2260
        44                         -0.0881015              -2.3974
        45                          0.0338287               0.9205
       ...                                ...                  ...
        75                          0.6658699              18.1192
      -------------------------------------------------------------
                  HL-Gap            0.1138860 Eh            3.0990 eV
             Fermi-level           -0.3344598 Eh           -9.1011 eV

 SCC (total)                   0 d,  0 h,  0 min,  0.066 sec
 SCC setup                      ...        0 min,  0.001 sec (  1.885%)
 Dispersion                     ...        0 min,  0.000 sec (  0.659%)
 classical contributions        ...        0 min,  0.000 sec (  0.222%)
 integral evaluation            ...        0 min,  0.017 sec ( 26.014%)
 iterations                     ...        0 min,  0.016 sec ( 23.893%)
 molecular gradient             ...        0 min,  0.030 sec ( 45.236%)
 printout                       ...        0 min,  0.001 sec (  2.060%)

         :::::::::::::::::::::::::::::::::::::::::::::::::::::
         ::                     SUMMARY                     ::
         :::::::::::::::::::::::::::::::::::::::::::::::::::::
         :: total energy             -44.283316053922 Eh    ::
         :: total w/o Gsasa/hb       -44.264726608594 Eh    ::
         :: gradient norm              0.000521404642 Eh/a0 ::
         :: HOMO-LUMO gap              3.098996543230 eV    ::
         ::.................................................::
         :: SCC energy               -44.924258600947 Eh    ::
         :: -> isotropic ES            0.083089933712 Eh    ::
         :: -> anisotropic ES         -0.004047833317 Eh    ::
         :: -> anisotropic XC          0.026351526231 Eh    ::
         :: -> dispersion             -0.024530211298 Eh    ::
         :: -> Gsolv                  -0.025648723396 Eh    ::
         ::    -> Gborn               -0.007059278068 Eh    ::
         ::    -> Gsasa               -0.023030274501 Eh    ::
         ::    -> Ghb                  0.000000000000 Eh    ::
         ::    -> Gshift               0.004440829173 Eh    ::
         :: repulsion energy           0.640900257360 Eh    ::
         :: add. restraining           0.000000000000 Eh    ::
         :::::::::::::::::::::::::::::::::::::::::::::::::::::

           -------------------------------------------------
          |                Property Printout                |
           -------------------------------------------------

    * Orbital Energies and Occupations

         #    Occupation            Energy/Eh            Energy/eV
      -------------------------------------------------------------
         1        2.0000           -0.6773881             -18.4327
       ...           ...                  ...                  ...
        28        2.0000           -0.4773058             -12.9882
        29        2.0000           -0.4653251             -12.6621
        30        2.0000           -0.4499998             -12.2451
        31        2.0000           -0.4436892             -12.0734
        32        2.0000           -0.4409626             -11.9992
        33        2.0000           -0.4406908             -11.9918
        34        2.0000           -0.4317733             -11.7491
        35        2.0000           -0.4292077             -11.6793
        36        2.0000           -0.4282513             -11.6533
        37        2.0000           -0.4265119             -11.6060
        38        2.0000           -0.4121504             -11.2152
        39        2.0000           -0.4035799             -10.9820
        40        2.0000           -0.3914028             -10.6506 (HOMO)
        41                         -0.2775168              -7.5516 (LUMO)
        42                         -0.2294031              -6.2424
        43                         -0.1920510              -5.2260
        44                         -0.0881015              -2.3974
        45                          0.0338287               0.9205
        46                          0.0572765               1.5586
        47                          0.0908966               2.4734
        48                          0.1069406               2.9100
        49                          0.1152388               3.1358
        50                          0.1191207               3.2414
        51                          0.1301166               3.5407
       ...                                ...                  ...
        75                          0.6658699              18.1192
      -------------------------------------------------------------
                  HL-Gap            0.1138860 Eh            3.0990 eV
             Fermi-level           -0.3344598 Eh           -9.1011 eV

     #   Z        covCN         q      C6AA      α(0)
     1   6 C      2.974     0.005    27.915     8.666
     2   6 C      2.927    -0.029    28.724     8.789
     3   6 C      2.917    -0.028    28.700     8.785
     4   6 C      2.920    -0.023    28.587     8.768
     5   6 C      2.918    -0.027    28.669     8.780
     6   6 C      2.922    -0.028    28.704     8.786
     7   6 C      2.859     0.080    26.209     8.391
     8   1 H      0.926     0.038     2.474     2.460
     9   1 H      0.926     0.065     2.145     2.290
    10   1 H      0.926     0.044     2.398     2.422
    11   7 N      1.830    -0.258    27.554     7.778
    12   6 C      3.765     0.020    20.283     6.419
    13   1 H      0.803     0.319     0.667     1.283
    14   6 C      3.804    -0.061    21.661     6.626
    15   1 H      0.923     0.012     2.863     2.646
    16   1 H      0.924     0.046     2.375     2.410
    17   1 H      0.924     0.048     2.348     2.396
    18   1 H      0.924     0.036     2.496     2.471
    19   8 O      1.608    -0.633    25.988     6.880
    20   1 H      0.923     0.006     2.956     2.689
    21   1 H      0.805     0.281     0.781     1.388
    22   8 O      1.607    -0.622    25.716     6.844
    23   1 H      0.803     0.314     0.681     1.296
    24   1 H      0.805     0.289     0.756     1.366
    25   1 H      0.926     0.042     2.427     2.436
    26   1 H      0.926     0.045     2.388     2.416
    27   6 C      3.801    -0.054    21.552     6.610
    28   1 H      0.924     0.034     2.524     2.485
    29   1 H      0.924     0.032     2.558     2.501
    30   6 C      3.752    -0.105    22.563     6.774
    31   1 H      0.925     0.039     2.469     2.457
    32   1 H      0.925     0.038     2.473     2.459
    33   1 H      0.925     0.037     2.493     2.469

 Mol. C6AA /au·bohr⁶  :       9602.323007
 Mol. C8AA /au·bohr⁸  :     214501.721511
 Mol. α(0) /au        :        151.237099


Wiberg/Mayer (AO) data.
largest (>0.10) Wiberg bond orders for each atom
          total WBO             WBO to atom ...
     1  C   3.989        C    2 1.371    C    6 1.366    C    7 1.095
     2  C   3.987        C    3 1.458    C    1 1.371    H    8 0.968    C    5 0.104
     3  C   3.992        C    2 1.458    C    4 1.431    H   25 0.970    C    6 0.106
     4  C   3.987        C    3 1.431    C    5 1.427    H   10 0.971
     5  C   3.992        C    6 1.463    C    4 1.427    H   26 0.970    C    2 0.104
     6  C   3.989        C    5 1.463    C    1 1.366    H    9 0.963    C    3 0.106
     7  C   3.968        N   11 1.820    C    1 1.095    H   20 0.939
     8  H   0.999        C    2 0.968
     9  H   0.996        C    6 0.963
    10  H   0.998        C    4 0.971
    11  N   3.136        C    7 1.820    C   12 1.027
    12  C   3.983        N   11 1.027    C   14 0.983    H   15 0.965    H   16 0.955
    13  H   0.898        O   22 0.824
    14  C   3.990        C   27 1.006    C   12 0.983    H   18 0.978    H   17 0.975
    15  H   1.000        C   12 0.965
    16  H   0.994        C   12 0.955
    17  H   0.998        C   14 0.975
    18  H   0.999        C   14 0.978
    19  O   1.797        H   21 0.921    H   23 0.850
    20  H   1.000        C    7 0.939
    21  H   0.921        O   19 0.921
    22  O   1.855        H   24 0.914    H   13 0.824
    23  H   0.901        O   19 0.850
    24  H   0.917        O   22 0.914
    25  H   0.998        C    3 0.970
    26  H   0.998        C    5 0.970
    27  C   3.996        C   30 1.019    C   14 1.006    H   29 0.978    H   28 0.978
    28  H   0.999        C   27 0.978
    29  H   0.999        C   27 0.978
    30  C   3.995        C   27 1.019    H   33 0.988    H   31 0.988    H   32 0.987
    31  H   0.999        C   30 0.988
    32  H   0.998        C   30 0.987
    33  H   0.999        C   30 0.988
Topologies differ in total number of bonds
Writing topology from bond orders to xtbtopo.mol

molecular dipole:
                 x           y           z       tot (Debye)
 q only:        0.131      -0.066       1.147
   full:        0.102      -0.438       1.485       3.944
molecular quadrupole (traceless):
                xx          xy          yy          xz          yz          zz
 q only:       14.573       1.950      -0.546      -7.329      -1.601     -14.028
  q+dip:       16.644       3.630       3.152      -8.080      -5.827     -19.796
   full:       15.759       3.976       1.424      -8.654      -3.892     -17.183


           -------------------------------------------------
          | TOTAL ENERGY              -44.283316053922 Eh   |
          | GRADIENT NORM               0.000521404642 Eh/α |
          | HOMO-LUMO GAP               3.098996543230 eV   |
           -------------------------------------------------

------------------------------------------------------------------------
 * finished run on 2020/06/19 at 18:07:21.885     
------------------------------------------------------------------------
 total:
 * wall-time:     0 d,  0 h,  0 min,  0.104 sec
 *  cpu-time:     0 d,  0 h,  0 min,  1.154 sec
 * ratio c/w:    11.095 speedup
 SCF:
 * wall-time:     0 d,  0 h,  0 min,  0.067 sec
 *  cpu-time:     0 d,  0 h,  0 min,  0.753 sec
 * ratio c/w:    11.330 speedup


-------------------------   --------------------
FINAL SINGLE POINT ENERGY       -44.283316053920
-------------------------   --------------------

------------------------------------------------------------------------------
                         ORCA GEOMETRY RELAXATION STEP
------------------------------------------------------------------------------

Reading the OPT-File                    .... done
Getting information on internals        .... done
Copying old internal coords+grads       .... done
Making the new internal coordinates     .... (new redundants).... done
Validating the new internal coordinates .... (new redundants).... done
Calculating the B-matrix                .... done
Calculating the G,G- and P matrices     .... done
Transforming gradient to internals      .... done
Projecting the internal gradient        .... done
Number of atoms                         ....  33
Number of internal coordinates          .... 198
Current Energy                          ....   -44.283316054 Eh
Current gradient norm                   ....     0.000521405 Eh/bohr
Maximum allowed component of the step   ....  0.300
Current trust radius                    ....  0.300
Evaluating the initial hessian          ....  (Almloef) done
Projecting the Hessian                  .... done
Forming the augmented Hessian           .... done
Diagonalizing the augmented Hessian     .... done
Last element of RFO vector              ....  0.999971356
Lowest eigenvalues of augmented Hessian:
 -0.000001755  0.008910255  0.010953498  0.011407081  0.011575710
Length of the computed step             ....  0.007569090
The final length of the internal step   ....  0.007569090
Converting the step to cartesian space:
 Initial RMS(Int)=    0.0005379118
Transforming coordinates:
 Iter   0:  RMS(Cart)=    0.0026645772 RMS(Int)=    0.0005375593
 Iter   1:  RMS(Cart)=    0.0000029408 RMS(Int)=    0.0000014860
 Iter   2:  RMS(Cart)=    0.0000000054 RMS(Int)=    0.0000000013
done
Storing new coordinates                 .... done

                                .--------------------.
          ----------------------|Geometry convergence|-------------------------
          Item                value                   Tolerance       Converged
          ---------------------------------------------------------------------
          RMS gradient        0.0000350534            0.0001000000      YES
          MAX gradient        0.0002832822            0.0003000000      YES
          RMS step            0.0005379118            0.0020000000      YES
          MAX step            0.0022112553            0.0040000000      YES
          ........................................................
          Max(Bonds)      0.0011      Max(Angles)    0.10
          Max(Dihed)        0.13      Max(Improp)    0.00
          ---------------------------------------------------------------------

                    ***********************HURRAY********************
                    ***        THE OPTIMIZATION HAS CONVERGED     ***
                    *************************************************


    ---------------------------------------------------------------------------
                         Redundant Internal Coordinates

                          --- Optimized Parameters ---  
                            (Angstroem and degrees)

        Definition                    OldVal   dE/dq     Step     FinalVal
    ----------------------------------------------------------------------------
     1. B(C   1,C   0)                1.3967 -0.000010  0.0000    1.3967   
     2. B(C   2,C   1)                1.3817  0.000017 -0.0000    1.3817   
     3. B(C   3,C   2)                1.3860 -0.000015  0.0000    1.3860   
     4. B(C   4,C   3)                1.3868 -0.000007  0.0000    1.3868   
     5. B(C   5,C   4)                1.3814 -0.000045  0.0000    1.3814   
     6. B(C   5,C   0)                1.3967  0.000002 -0.0000    1.3966   
     7. B(C   6,C   0)                1.4524 -0.000001  0.0000    1.4525   
     8. B(H   7,C   1)                1.0812 -0.000011  0.0000    1.0812   
     9. B(H   8,C   5)                1.0775 -0.000020 -0.0000    1.0775   
    10. B(H   9,C   3)                1.0801 -0.000023  0.0000    1.0801   
    11. B(N  10,C   6)                1.2653  0.000050  0.0000    1.2653   
    12. B(C  11,N  10)                1.4342  0.000094 -0.0001    1.4341   
    13. B(H  12,H   8)                2.1594 -0.000046  0.0011    2.1605   
    14. B(H  12,N  10)                1.7665  0.000081 -0.0010    1.7655   
    15. B(C  13,C  11)                1.5325  0.000027 -0.0000    1.5325   
    16. B(H  14,C  11)                1.1017 -0.000047  0.0001    1.1018   
    17. B(H  15,C  11)                1.0957 -0.000065  0.0001    1.0958   
    18. B(H  16,C  13)                1.0916 -0.000009  0.0000    1.0916   
    19. B(H  17,C  13)                1.0928  0.000010 -0.0000    1.0928   
    20. B(H  19,C   6)                1.1003  0.000010 -0.0000    1.1003   
    21. B(H  20,O  18)                0.9605  0.000168 -0.0002    0.9604   
    22. B(O  21,H  12)                0.9864 -0.000007 -0.0000    0.9864   
    23. B(H  22,O  18)                0.9784  0.000283 -0.0003    0.9781   
    24. B(H  22,O  21)                1.7883  0.000006 -0.0008    1.7875   
    25. B(H  22,H  12)                2.2290  0.000033 -0.0008    2.2282   
    26. B(H  23,O  21)                0.9606  0.000070 -0.0001    0.9605   
    27. B(H  23,H  22)                2.2511  0.000014 -0.0007    2.2505   
    28. B(H  24,C   2)                1.0802 -0.000031  0.0000    1.0802   
    29. B(H  25,C   4)                1.0801  0.000005 -0.0000    1.0801   
    30. B(C  26,C  13)                1.5266  0.000021 -0.0000    1.5266   
    31. B(H  27,C  26)                1.0925 -0.000059  0.0001    1.0926   
    32. B(H  28,C  26)                1.0927  0.000016 -0.0000    1.0927   
    33. B(C  29,C  26)                1.5245  0.000041 -0.0001    1.5245   
    34. B(H  30,C  29)                1.0879 -0.000023  0.0000    1.0879   
    35. B(H  31,C  29)                1.0878  0.000018 -0.0000    1.0878   
    36. B(H  32,C  29)                1.0880 -0.000026  0.0000    1.0881   
    37. A(C   5,C   0,C   6)          122.22  0.000021    0.00    122.22   
    38. A(C   1,C   0,C   6)          118.81 -0.000016   -0.00    118.81   
    39. A(C   1,C   0,C   5)          118.97 -0.000004   -0.00    118.97   
    40. A(C   0,C   1,C   2)          120.55 -0.000016    0.00    120.56   
    41. A(C   2,C   1,H   7)          119.93  0.000024   -0.00    119.92   
    42. A(C   0,C   1,H   7)          119.52 -0.000008    0.00    119.52   
    43. A(C   3,C   2,H  24)          120.11  0.000023   -0.00    120.11   
    44. A(C   1,C   2,H  24)          119.88 -0.000029    0.00    119.88   
    45. A(C   1,C   2,C   3)          120.01  0.000006   -0.00    120.01   
    46. A(C   4,C   3,H   9)          120.11  0.000036   -0.01    120.10   
    47. A(C   2,C   3,C   4)          119.90  0.000002   -0.00    119.90   
    48. A(C   2,C   3,H   9)          119.99 -0.000038    0.01    120.00   
    49. A(C   5,C   4,H  25)          119.73  0.000034   -0.00    119.72   
    50. A(C   3,C   4,C   5)          120.35 -0.000007    0.00    120.35   
    51. A(C   3,C   4,H  25)          119.92 -0.000027    0.00    119.92   
    52. A(C   4,C   5,H   8)          120.35 -0.000057    0.01    120.36   
    53. A(C   0,C   5,C   4)          120.21  0.000020    0.00    120.21   
    54. A(C   0,C   5,H   8)          119.44  0.000037   -0.01    119.42   
    55. A(C   0,C   6,H  19)          115.20  0.000035   -0.01    115.19   
    56. A(C   0,C   6,N  10)          123.86 -0.000029    0.02    123.88   
    57. A(N  10,C   6,H  19)          120.93 -0.000006   -0.01    120.92   
    58. A(C   5,H   8,H  12)          130.00 -0.000046   -0.00    130.00   
    59. A(C   6,N  10,H  12)          131.00 -0.000038    0.02    131.02   
    60. A(C  11,N  10,H  12)          107.73  0.000080   -0.03    107.70   
    61. A(C   6,N  10,C  11)          120.29 -0.000042   -0.00    120.29   
    62. A(H  14,C  11,H  15)          108.33  0.000004   -0.00    108.33   
    63. A(N  10,C  11,H  15)          107.30 -0.000000    0.00    107.30   
    64. A(C  13,C  11,H  14)          109.93 -0.000006    0.00    109.93   
    65. A(N  10,C  11,H  14)          112.03  0.000019   -0.01    112.03   
    66. A(C  13,C  11,H  15)          109.24 -0.000006    0.00    109.24   
    67. A(N  10,C  11,C  13)          109.93 -0.000011    0.00    109.93   
    68. A(O  21,H  12,H  22)           51.40 -0.000014   -0.00     51.40   
    69. A(H   8,H  12,N  10)           83.60  0.000032   -0.00     83.60   
    70. A(H   8,H  12,O  21)           98.93 -0.000028    0.03     98.96   
    71. A(N  10,H  12,H  22)          126.84  0.000088   -0.10    126.74   
    72. A(H   8,H  12,H  22)           86.59 -0.000029    0.03     86.63   
    73. A(H  16,C  13,H  17)          107.55  0.000010    0.00    107.56   
    74. A(C  11,C  13,H  17)          108.78  0.000005   -0.01    108.77   
    75. A(C  11,C  13,H  16)          109.05 -0.000040    0.01    109.06   
    76. A(H  17,C  13,C  26)          109.77 -0.000029    0.00    109.77   
    77. A(H  16,C  13,C  26)          109.80 -0.000008    0.00    109.80   
    78. A(C  11,C  13,C  26)          111.79  0.000060   -0.01    111.78   
    79. A(H  20,O  18,H  22)          105.27  0.000093   -0.02    105.25   
    80. A(H  12,O  21,H  22)          103.06  0.000022   -0.01    103.06   
    81. A(H  12,O  21,H  23)          106.39  0.000021   -0.01    106.37   
    82. A(H  22,O  21,H  23)          106.00 -0.000026    0.01    106.00   
    83. A(H  12,H  22,H  23)           40.72  0.000014    0.01     40.73   
    84. A(O  18,H  22,H  23)          154.60 -0.000010   -0.02    154.57   
    85. A(H  12,H  22,O  21)           25.54 -0.000008    0.01     25.55   
    86. A(H  12,H  22,O  18)          152.11  0.000004    0.01    152.11   
    87. A(O  21,H  22,H  23)           24.22  0.000019    0.00     24.22   
    88. A(O  21,H  23,H  22)           49.78  0.000007   -0.01     49.77   
    89. A(H  28,C  26,C  29)          109.41 -0.000006    0.00    109.41   
    90. A(H  27,C  26,C  29)          109.41 -0.000005    0.00    109.41   
    91. A(C  13,C  26,C  29)          111.64 -0.000016    0.00    111.65   
    92. A(H  27,C  26,H  28)          107.62  0.000001   -0.00    107.62   
    93. A(C  13,C  26,H  28)          109.35  0.000019   -0.01    109.34   
    94. A(C  13,C  26,H  27)          109.32  0.000008   -0.00    109.32   
    95. A(H  31,C  29,H  32)          108.39 -0.000008    0.00    108.39   
    96. A(H  30,C  29,H  32)          108.32  0.000005   -0.00    108.32   
    97. A(C  26,C  29,H  32)          110.60  0.000013   -0.00    110.60   
    98. A(H  30,C  29,H  31)          108.42  0.000013   -0.00    108.42   
    99. A(C  26,C  29,H  31)          110.47 -0.000000    0.00    110.47   
   100. A(C  26,C  29,H  30)          110.57 -0.000022    0.00    110.57   
   101. D(C   2,C   1,C   0,C   5)     -0.67 -0.000006    0.00     -0.67   
   102. D(C   2,C   1,C   0,C   6)    179.61 -0.000018    0.00    179.61   
   103. D(H   7,C   1,C   0,C   5)    179.84  0.000007   -0.01    179.83   
   104. D(H   7,C   1,C   0,C   6)      0.12 -0.000006   -0.01      0.10   
   105. D(H  24,C   2,C   1,C   0)   -179.69  0.000008   -0.01   -179.70   
   106. D(C   3,C   2,C   1,H   7)    179.86 -0.000009    0.00    179.86   
   107. D(C   3,C   2,C   1,C   0)      0.37  0.000004   -0.01      0.36   
   108. D(H  24,C   2,C   1,H   7)     -0.20 -0.000005    0.00     -0.20   
   109. D(C   4,C   3,C   2,H  24)   -179.87 -0.000004    0.01   -179.86   
   110. D(H   9,C   3,C   2,C   1)    179.96  0.000001    0.00    179.96   
   111. D(C   4,C   3,C   2,C   1)      0.07  0.000001    0.01      0.08   
   112. D(H   9,C   3,C   2,H  24)      0.02 -0.000003    0.00      0.02   
   113. D(H  25,C   4,C   3,H   9)     -0.16  0.000005   -0.02     -0.18   
   114. D(C   5,C   4,C   3,C   2)     -0.21 -0.000003    0.01     -0.20   
   115. D(H  25,C   4,C   3,C   2)    179.72  0.000005   -0.02    179.70   
   116. D(C   5,C   4,C   3,H   9)    179.91 -0.000004    0.01    179.92   
   117. D(C   0,C   5,C   4,H  25)    179.97 -0.000007    0.01    179.98   
   118. D(H   8,C   5,C   4,H  25)     -0.24 -0.000002   -0.01     -0.25   
   119. D(H   8,C   5,C   4,C   3)    179.69  0.000007   -0.04    179.66   
   120. D(C   0,C   5,C   4,C   3)     -0.10  0.000001   -0.02     -0.12   
   121. D(H   8,C   5,C   0,C   6)      0.45  0.000011    0.03      0.48   
   122. D(C   4,C   5,C   0,C   6)   -179.75  0.000016    0.01   -179.74   
   123. D(C   4,C   5,C   0,C   1)      0.53  0.000003    0.01      0.55   
   124. D(H   8,C   5,C   0,C   1)   -179.26 -0.000002    0.03   -179.23   
   125. D(H  19,C   6,C   0,C   5)   -172.03  0.000006   -0.05   -172.08   
   126. D(H  19,C   6,C   0,C   1)      7.69  0.000019   -0.05      7.64   
   127. D(N  10,C   6,C   0,C   5)      8.69  0.000028   -0.04      8.65   
   128. D(N  10,C   6,C   0,C   1)   -171.60  0.000041   -0.04   -171.64   
   129. D(H  12,H   8,C   5,C   4)    153.23 -0.000053    0.05    153.28   
   130. D(H  12,H   8,C   5,C   0)    -26.97 -0.000047    0.03    -26.94   
   131. D(C  11,N  10,C   6,C   0)   -179.06 -0.000021   -0.03   -179.09   
   132. D(H  12,N  10,C   6,H  19)   -165.43 -0.000010    0.02   -165.41   
   133. D(H  12,N  10,C   6,C   0)     13.81 -0.000032    0.01     13.82   
   134. D(C  11,N  10,C   6,H  19)      1.70  0.000002   -0.02      1.68   
   135. D(H  15,C  11,N  10,H  12)     47.97  0.000004   -0.05     47.91   
   136. D(H  15,C  11,N  10,C   6)   -121.87  0.000005   -0.02   -121.89   
   137. D(C  13,C  11,N  10,H  12)    -70.72  0.000017   -0.06    -70.78   
   138. D(C  13,C  11,N  10,C   6)    119.44  0.000018   -0.03    119.41   
   139. D(H  14,C  11,N  10,H  12)    166.75  0.000019   -0.06    166.69   
   140. D(H  14,C  11,N  10,C   6)     -3.09  0.000020   -0.03     -3.12   
   141. D(H  22,H  12,N  10,C   6)     55.08 -0.000036    0.09     55.17   
   142. D(H   8,H  12,N  10,C  11)    165.86 -0.000004    0.06    165.92   
   143. D(H   8,H  12,N  10,C   6)    -25.79 -0.000003    0.03    -25.76   
   144. D(H  22,H  12,H   8,C   5)    -91.70 -0.000051    0.06    -91.64   
   145. D(N  10,H  12,H   8,C   5)     35.96  0.000039   -0.05     35.92   
   146. D(H  22,H  12,N  10,C  11)   -113.27 -0.000036    0.13   -113.15   
   147. D(O  21,H  12,H   8,C   5)   -141.76 -0.000036    0.06   -141.70   
   148. D(C  26,C  13,C  11,H  15)     56.95  0.000005   -0.02     56.93   
   149. D(C  26,C  13,C  11,N  10)    174.44 -0.000005   -0.01    174.43   
   150. D(H  17,C  13,C  11,H  15)    178.33  0.000011   -0.03    178.30   
   151. D(H  17,C  13,C  11,H  14)     59.58  0.000013   -0.03     59.55   
   152. D(H  17,C  13,C  11,N  10)    -64.19  0.000001   -0.02    -64.21   
   153. D(H  16,C  13,C  11,H  15)    -64.65  0.000004   -0.02    -64.67   
   154. D(C  26,C  13,C  11,H  14)    -61.79  0.000008   -0.02    -61.81   
   155. D(H  16,C  13,C  11,H  14)    176.61  0.000006   -0.02    176.58   
   156. D(H  16,C  13,C  11,N  10)     52.84 -0.000006   -0.02     52.82   
   157. D(H  23,O  21,H  12,H  22)    111.29 -0.000013    0.00    111.29   
   158. D(H  23,O  21,H  12,H   8)   -170.38 -0.000032    0.02   -170.37   
   159. D(H  22,O  21,N  10,C  11)   -114.78 -0.000040    0.11   -114.67   
   160. D(H  22,O  21,N  10,C   6)     52.27 -0.000012    0.03     52.30   
   161. D(H  23,O  21,N  10,C  11)     -4.38 -0.000040    0.09     -4.30   
   162. D(H  22,O  21,H  12,H   8)     78.32 -0.000019    0.02     78.34   
   163. D(H  23,O  21,N  10,C   6)    162.67 -0.000012    0.00    162.67   
   164. D(H  23,O  21,O  18,H  20)    142.08 -0.000022    0.03    142.11   
   165. D(H  12,O  21,O  18,H  20)   -106.79  0.000000    0.02   -106.77   
   166. D(H  23,H  22,O  21,H  12)    111.58  0.000022   -0.01    111.57   
   167. D(H  12,H  22,O  21,H  23)   -111.58 -0.000022    0.01   -111.57   
   168. D(H  12,H  22,O  18,H  20)   -110.78  0.000012   -0.00   -110.78   
   169. D(H  23,H  22,H  12,N  10)    140.56 -0.000004   -0.06    140.50   
   170. D(H  23,H  22,H  12,H   8)   -140.05 -0.000004   -0.02   -140.06   
   171. D(H  23,H  22,H  12,O  21)    -35.78 -0.000013   -0.00    -35.78   
   172. D(O  21,H  22,H  12,N  10)    176.34  0.000008   -0.06    176.28   
   173. D(O  21,H  22,H  12,H   8)   -104.27  0.000009   -0.01   -104.28   
   174. D(H  23,H  22,O  18,H  20)    147.58 -0.000024    0.01    147.59   
   175. D(O  18,H  22,H  12,N  10)      0.65 -0.000008   -0.03      0.63   
   176. D(O  18,H  22,H  12,H   8)     80.05 -0.000007    0.02     80.07   
   177. D(O  18,H  22,H  12,O  21)   -175.68 -0.000016    0.03   -175.66   
   178. D(O  21,H  23,H  22,H  12)     37.91 -0.000033    0.01     37.93   
   179. D(O  21,H  23,H  22,O  18)    173.30 -0.000001    0.03    173.33   
   180. D(H  22,H  23,O  21,H  12)   -109.23 -0.000022    0.01   -109.22   
   181. D(C  29,C  26,C  13,H  17)     59.30 -0.000002   -0.04     59.26   
   182. D(C  29,C  26,C  13,H  16)    -58.74  0.000008   -0.04    -58.78   
   183. D(C  29,C  26,C  13,C  11)   -179.91  0.000024   -0.05   -179.96   
   184. D(H  28,C  26,C  13,H  17)    -61.92  0.000004   -0.04    -61.96   
   185. D(H  28,C  26,C  13,H  16)   -179.95  0.000013   -0.04   -180.00   
   186. D(H  28,C  26,C  13,C  11)     58.88  0.000029   -0.05     58.83   
   187. D(H  27,C  26,C  13,H  17)   -179.51 -0.000013   -0.03   -179.54   
   188. D(H  27,C  26,C  13,H  16)     62.46 -0.000003   -0.04     62.42   
   189. D(H  27,C  26,C  13,C  11)    -58.71  0.000013   -0.04    -58.75   
   190. D(H  32,C  29,C  26,H  28)     61.30  0.000006   -0.01     61.29   
   191. D(H  32,C  29,C  26,H  27)    178.97 -0.000000   -0.01    178.97   
   192. D(H  32,C  29,C  26,C  13)    -59.88 -0.000004   -0.00    -59.88   
   193. D(H  31,C  29,C  26,H  28)    -58.71  0.000007   -0.01    -58.71   
   194. D(H  31,C  29,C  26,H  27)     58.97  0.000001   -0.01     58.96   
   195. D(H  31,C  29,C  26,C  13)   -179.88 -0.000003   -0.00   -179.89   
   196. D(H  30,C  29,C  26,H  28)   -178.73  0.000005   -0.01   -178.73   
   197. D(H  30,C  29,C  26,H  27)    -61.05 -0.000000   -0.00    -61.06   
   198. D(H  30,C  29,C  26,C  13)     60.10 -0.000004   -0.00     60.10   
    ----------------------------------------------------------------------------
                 *******************************************************
                 *** FINAL ENERGY EVALUATION AT THE STATIONARY POINT ***
                 ***               (AFTER    1 CYCLES)               ***
                 *******************************************************
      -----------------------------------------------------------      
     |                   =====================                   |     
     |                           x T B                           |     
     |                   =====================                   |     
     |                         S. Grimme                         |     
     |          Mulliken Center for Theoretical Chemistry        |     
     |                    University of Bonn                     |     
      -----------------------------------------------------------      

   * xtb version 6.3.0 (49875a8) compiled by 'schneider@apollo14' on 2020-05-23

   xtb is free software: you can redistribute it and/or modify it under
   the terms of the GNU Lesser General Public License as published by
   the Free Software Foundation, either version 3 of the License, or
   (at your option) any later version.
   
   xtb is distributed in the hope that it will be useful,
   but WITHOUT ANY WARRANTY; without even the implied warranty of
   MERCHANTABILITY or FITNESS FOR A PARTICULAR PURPOSE.  See the
   GNU Lesser General Public License for more details.
   
   Cite this work as:
   * S. Grimme, C. Bannwarth, P. Shushkov, J. Chem. Theory Comput., 2017,
     13, 1989-2009. DOI: 10.1021/acs.jctc.7b00118
   * C. Bannwarth, S. Ehlert and S. Grimme., J. Chem. Theory Comput., 2019,
     15, 1652-1671. DOI: 10.1021/acs.jctc.8b01176
   * P. Pracht, E. Caldeweyher, S. Ehlert, S. Grimme, ChemRxiv, 2019, preprint.
     DOI: 10.26434/chemrxiv.8326202.v1
   
   for GFN-FF:
   * S. Spicher and S. Grimme, Angew. Chem. Int. Ed., 2020,
     DOI: 10.1002/anie.202004239
   
   for DFT-D4:
   * E. Caldeweyher, C. Bannwarth and S. Grimme, J. Chem. Phys., 2017,
     147, 034112. DOI: 10.1063/1.4993215
   * E. Caldeweyher, S. Ehlert, A. Hansen, H. Neugebauer, S. Spicher,
     C. Bannwarth and S. Grimme, J. Chem. Phys., 2019, 150, 154122.
     DOI: 10.1063/1.5090222
   
   for sTDA-xTB:
   * S. Grimme and C. Bannwarth, J. Chem. Phys., 2016, 145, 054103.
     DOI: 10.1063/1.4959605
   
   in the mass-spec context:
   * V. Asgeirsson, C. Bauer and S. Grimme, Chem. Sci., 2017, 8, 4879.
     DOI: 10.1039/c7sc00601b
   * J. Koopman and S. Grimme, ACS Omega 2019, 4, 12, 15120-15133.
     DOI: 10.1021/acsomega.9b02011
   
   for metadynamics refer to:
   * S. Grimme, J. Chem. Theory Comput., 2019, 155, 2847-2862
     DOI: 10.1021/acs.jctc.9b00143
   
   with help from (in alphabetical order)
   C. Bannwarth, F. Bohle, G. Brandenburg, E. Caldeweyher, M. Checinski,
   S. Dohm, S. Ehlert, S. Ehrlich, F. März, H. Neugebauer, J. Pisarek,
   P. Pracht, P. Shushkov, and S. Spicher.
   
 * started run on 2020/06/19 at 18:07:22.427     

           -------------------------------------------------
          |                Calculation Setup                |
           -------------------------------------------------

          program call               : /opt/orca/otool_xtb opt+freq_XTB.xyz --grad -c 0 -u 0 -P 12 --namespace opt+freq --gbsa CH2Cl2
          calculation namespace      : opt+freq
          coordinate file            : opt+freq_XTB.xyz
          number of atoms            :                    33
          number of electrons        :                    80
          charge                     :                     0
          spin                       :                   0.0
          first test random number   :      0.98829830458991

   ID    Z sym.   atoms
    1    6 C      1-7, 12, 14, 27, 30
    2    1 H      8-10, 13, 15-18, 20, 21, 23-26, 28, 29, 31-33
    3    7 N      11
    4    8 O      19, 22

molecular fragmentation (1/2 indicates fragments):
111111111111211111212222111111111
# atoms in fragment 1/2:    27     6
 fragment masses (1/2) :      161.24       36.03
CMA distance (Bohr)    :   6.911
constraining FC (au)   :  0.0500
########################################################################
[WARNING] Please study the warnings concerning your input carefully
-1- prog_main_parseArguments: Process number higher than OMP_NUM_THREADS, I hope you know what you are doing.
########################################################################
 Solvent             : CH2Cl2
 Using internal parameter file: .param_gbsa2_CH2Cl2
 Gsolv ref. state (COSMO-RS): gsolv [1 M gas/solution]
 temperature (mdtemp)       :    298.14999999999998     
 dielectric constant        :    8.9299999999999997     
 rho                        :    1.3300000000000003     
 mass                       :    84.930000000000007     
 surface tension            :    15.568945408385856     
 probe radius               :   0.71987590000000001     
 Gshift (Eh)                :    4.4408291734517593E-003
 c1                         :    1.4917377599999999     
 soset                      :    0.0000000000000000     
 HB correction              :  F

           -------------------------------------------------
          |                 G F N 2 - x T B                 |
           -------------------------------------------------

        Reference                      10.1021/acs.jctc.8b01176
      * Hamiltonian:
        H0-scaling (s, p, d)           1.850000    2.230000    2.230000
        zeta-weighting                 0.500000
      * Dispersion:
        s8                             2.700000
        a1                             0.520000
        a2                             5.000000
        s9                             5.000000
      * Repulsion:
        kExp                           1.500000    1.000000
        rExp                           1.000000
      * Coulomb:
        alpha                          2.000000
        third order                    shell-resolved
        anisotropic                    true
        a3                             3.000000
        a5                             4.000000
        cn-shift                       1.200000
        cn-exp                         4.000000
        max-rad                        5.000000

q/qsh data taken from xtbrestart
CAMM data taken from xtbrestart

          ...................................................
          :                      SETUP                      :
          :.................................................:
          :  # basis functions                  75          :
          :  # atomic orbitals                  75          :
          :  # shells                           47          :
          :  # electrons                        80          :
          :  max. iterations                   250          :
          :  Hamiltonian                  GFN2-xTB          :
          :  restarted?                       true          :
          :  GBSA solvation                   true          :
          :  PC potential                    false          :
          :  electronic temp.          300.0000000     K    :
          :  accuracy                    1.0000000          :
          :  -> integral cutoff          0.2500000E+02      :
          :  -> integral neglect         0.1000000E-07      :
          :  -> SCF convergence          0.1000000E-05 Eh   :
          :  -> wf. convergence          0.1000000E-03 e    :
          :  Broyden damping             0.4000000          :
          ...................................................

 iter      E             dE          RMSdq      gap      omega  full diag
   1    -44.9057286 -0.449057E+02  0.448E-03    3.10       0.0  T
   2    -44.9057286 -0.532308E-08  0.265E-03    3.10       6.6  T
   3    -44.9057286  0.137220E-09  0.281E-04    3.10      62.0  T
   4    -44.9057286 -0.156907E-08  0.136E-04    3.10     127.6  T

   *** convergence criteria satisfied after 4 iterations ***

         #    Occupation            Energy/Eh            Energy/eV
      -------------------------------------------------------------
         1        2.0000           -0.6773868             -18.4326
       ...           ...                  ...                  ...
        34        2.0000           -0.4317805             -11.7493
        35        2.0000           -0.4292025             -11.6792
        36        2.0000           -0.4282594             -11.6535
        37        2.0000           -0.4265271             -11.6064
        38        2.0000           -0.4121591             -11.2154
        39        2.0000           -0.4035942             -10.9824
        40        2.0000           -0.3914180             -10.6510 (HOMO)
        41                         -0.2775357              -7.5521 (LUMO)
        42                         -0.2294168              -6.2427
        43                         -0.1920635              -5.2263
        44                         -0.0881136              -2.3977
        45                          0.0339184               0.9230
       ...                                ...                  ...
        75                          0.6658654              18.1191
      -------------------------------------------------------------
                  HL-Gap            0.1138823 Eh            3.0989 eV
             Fermi-level           -0.3344769 Eh           -9.1016 eV

 SCC (total)                   0 d,  0 h,  0 min,  0.059 sec
 SCC setup                      ...        0 min,  0.001 sec (  2.174%)
 Dispersion                     ...        0 min,  0.000 sec (  0.762%)
 classical contributions        ...        0 min,  0.000 sec (  0.244%)
 integral evaluation            ...        0 min,  0.016 sec ( 27.809%)
 iterations                     ...        0 min,  0.013 sec ( 21.821%)
 molecular gradient             ...        0 min,  0.027 sec ( 45.766%)
 printout                       ...        0 min,  0.001 sec (  1.388%)

         :::::::::::::::::::::::::::::::::::::::::::::::::::::
         ::                     SUMMARY                     ::
         :::::::::::::::::::::::::::::::::::::::::::::::::::::
         :: total energy             -44.283317479605 Eh    ::
         :: total w/o Gsasa/hb       -44.264729200890 Eh    ::
         :: gradient norm              0.000276946885 Eh/a0 ::
         :: HOMO-LUMO gap              3.098895437444 eV    ::
         ::.................................................::
         :: SCC energy               -44.924316849536 Eh    ::
         :: -> isotropic ES            0.083101950405 Eh    ::
         :: -> anisotropic ES         -0.004056040725 Eh    ::
         :: -> anisotropic XC          0.026347716700 Eh    ::
         :: -> dispersion             -0.024531734252 Eh    ::
         :: -> Gsolv                  -0.025650302793 Eh    ::
         ::    -> Gborn               -0.007062024079 Eh    ::
         ::    -> Gsasa               -0.023029107888 Eh    ::
         ::    -> Ghb                  0.000000000000 Eh    ::
         ::    -> Gshift               0.004440829173 Eh    ::
         :: repulsion energy           0.640957107464 Eh    ::
         :: add. restraining           0.000000000000 Eh    ::
         :::::::::::::::::::::::::::::::::::::::::::::::::::::

           -------------------------------------------------
          |                Property Printout                |
           -------------------------------------------------

    * Orbital Energies and Occupations

         #    Occupation            Energy/Eh            Energy/eV
      -------------------------------------------------------------
         1        2.0000           -0.6773868             -18.4326
       ...           ...                  ...                  ...
        28        2.0000           -0.4773235             -12.9886
        29        2.0000           -0.4653312             -12.6623
        30        2.0000           -0.4500191             -12.2456
        31        2.0000           -0.4436961             -12.0736
        32        2.0000           -0.4409570             -11.9990
        33        2.0000           -0.4406704             -11.9913
        34        2.0000           -0.4317805             -11.7493
        35        2.0000           -0.4292025             -11.6792
        36        2.0000           -0.4282594             -11.6535
        37        2.0000           -0.4265271             -11.6064
        38        2.0000           -0.4121591             -11.2154
        39        2.0000           -0.4035942             -10.9824
        40        2.0000           -0.3914180             -10.6510 (HOMO)
        41                         -0.2775357              -7.5521 (LUMO)
        42                         -0.2294168              -6.2427
        43                         -0.1920635              -5.2263
        44                         -0.0881136              -2.3977
        45                          0.0339184               0.9230
        46                          0.0574700               1.5638
        47                          0.0909161               2.4740
        48                          0.1069448               2.9101
        49                          0.1152280               3.1355
        50                          0.1191026               3.2409
        51                          0.1302408               3.5440
       ...                                ...                  ...
        75                          0.6658654              18.1191
      -------------------------------------------------------------
                  HL-Gap            0.1138823 Eh            3.0989 eV
             Fermi-level           -0.3344769 Eh           -9.1016 eV

     #   Z        covCN         q      C6AA      α(0)
     1   6 C      2.974     0.005    27.915     8.667
     2   6 C      2.927    -0.029    28.723     8.789
     3   6 C      2.917    -0.028    28.700     8.785
     4   6 C      2.920    -0.023    28.587     8.768
     5   6 C      2.918    -0.027    28.669     8.780
     6   6 C      2.922    -0.028    28.704     8.786
     7   6 C      2.859     0.080    26.209     8.391
     8   1 H      0.926     0.038     2.474     2.460
     9   1 H      0.926     0.065     2.145     2.290
    10   1 H      0.926     0.044     2.398     2.422
    11   7 N      1.830    -0.258    27.552     7.778
    12   6 C      3.766     0.020    20.283     6.419
    13   1 H      0.803     0.319     0.667     1.283
    14   6 C      3.804    -0.061    21.661     6.626
    15   1 H      0.923     0.012     2.863     2.646
    16   1 H      0.924     0.046     2.374     2.410
    17   1 H      0.924     0.048     2.348     2.396
    18   1 H      0.924     0.036     2.496     2.471
    19   8 O      1.608    -0.633    25.990     6.881
    20   1 H      0.923     0.006     2.956     2.689
    21   1 H      0.805     0.281     0.781     1.388
    22   8 O      1.607    -0.622    25.718     6.844
    23   1 H      0.803     0.314     0.680     1.296
    24   1 H      0.805     0.289     0.756     1.366
    25   1 H      0.926     0.042     2.427     2.436
    26   1 H      0.926     0.045     2.388     2.416
    27   6 C      3.801    -0.054    21.552     6.610
    28   1 H      0.924     0.034     2.524     2.485
    29   1 H      0.924     0.032     2.557     2.501
    30   6 C      3.752    -0.105    22.563     6.774
    31   1 H      0.925     0.039     2.469     2.457
    32   1 H      0.925     0.038     2.473     2.459
    33   1 H      0.925     0.037     2.493     2.469

 Mol. C6AA /au·bohr⁶  :       9602.313191
 Mol. C8AA /au·bohr⁸  :     214501.589317
 Mol. α(0) /au        :        151.236929


Wiberg/Mayer (AO) data.
largest (>0.10) Wiberg bond orders for each atom
          total WBO             WBO to atom ...
     1  C   3.989        C    2 1.371    C    6 1.366    C    7 1.095
     2  C   3.987        C    3 1.458    C    1 1.371    H    8 0.968    C    5 0.104
     3  C   3.992        C    2 1.458    C    4 1.431    H   25 0.970    C    6 0.106
     4  C   3.987        C    3 1.431    C    5 1.428    H   10 0.971
     5  C   3.992        C    6 1.463    C    4 1.428    H   26 0.970    C    2 0.104
     6  C   3.989        C    5 1.463    C    1 1.366    H    9 0.963    C    3 0.106
     7  C   3.968        N   11 1.820    C    1 1.095    H   20 0.939
     8  H   0.999        C    2 0.968
     9  H   0.996        C    6 0.963
    10  H   0.998        C    4 0.971
    11  N   3.136        C    7 1.820    C   12 1.027
    12  C   3.983        N   11 1.027    C   14 0.983    H   15 0.965    H   16 0.955
    13  H   0.898        O   22 0.824
    14  C   3.990        C   27 1.006    C   12 0.983    H   18 0.978    H   17 0.975
    15  H   1.000        C   12 0.965
    16  H   0.994        C   12 0.955
    17  H   0.998        C   14 0.975
    18  H   0.999        C   14 0.978
    19  O   1.797        H   21 0.921    H   23 0.850
    20  H   1.000        C    7 0.939
    21  H   0.921        O   19 0.921
    22  O   1.855        H   24 0.914    H   13 0.824
    23  H   0.901        O   19 0.850
    24  H   0.917        O   22 0.914
    25  H   0.998        C    3 0.970
    26  H   0.998        C    5 0.970
    27  C   3.996        C   30 1.019    C   14 1.006    H   29 0.978    H   28 0.978
    28  H   0.999        C   27 0.978
    29  H   0.999        C   27 0.978
    30  C   3.995        C   27 1.019    H   33 0.988    H   31 0.988    H   32 0.987
    31  H   0.999        C   30 0.988
    32  H   0.998        C   30 0.987
    33  H   0.999        C   30 0.988
Topologies differ in total number of bonds
Writing topology from bond orders to xtbtopo.mol

molecular dipole:
                 x           y           z       tot (Debye)
 q only:        0.132      -0.066       1.148
   full:        0.104      -0.437       1.486       3.947
molecular quadrupole (traceless):
                xx          xy          yy          xz          yz          zz
 q only:       14.568       1.946      -0.552      -7.353      -1.611     -14.016
  q+dip:       16.639       3.620       3.145      -8.103      -5.837     -19.783
   full:       15.753       3.966       1.415      -8.680      -3.902     -17.168


           -------------------------------------------------
          | TOTAL ENERGY              -44.283317479605 Eh   |
          | GRADIENT NORM               0.000276946885 Eh/α |
          | HOMO-LUMO GAP               3.098895437444 eV   |
           -------------------------------------------------

------------------------------------------------------------------------
 * finished run on 2020/06/19 at 18:07:22.523     
------------------------------------------------------------------------
 total:
 * wall-time:     0 d,  0 h,  0 min,  0.095 sec
 *  cpu-time:     0 d,  0 h,  0 min,  0.971 sec
 * ratio c/w:    10.194 speedup
 SCF:
 * wall-time:     0 d,  0 h,  0 min,  0.059 sec
 *  cpu-time:     0 d,  0 h,  0 min,  0.621 sec
 * ratio c/w:    10.456 speedup


-------------------------   --------------------
FINAL SINGLE POINT ENERGY       -44.283317479600
-------------------------   --------------------

                                *** OPTIMIZATION RUN DONE ***

----------------------------------------------------------------------------
                           ORCA NUMERICAL FREQUENCIES
                              (12-process run)
----------------------------------------------------------------------------

Number of atoms                ... 33
[...]
     17      -0.000139  -0.000018  -0.000014
     18      -0.000111   0.000076  -0.000057
     19      -0.000139  -0.000025  -0.000005
     20       0.000059   0.000019  -0.000003
     21      -0.000014   0.000102   0.000011
     22      -0.000717  -0.000339   0.000175
     23       0.000161   0.000091  -0.000058
     24       0.010107   0.001029  -0.000508
     25      -0.005722  -0.001402   0.000422
     26       0.002133  -0.000019   0.000080
     27       0.000658   0.000349  -0.000044
     28       0.000221   0.000004   0.000026
     29      -0.000131  -0.000015   0.000001
     30       0.000082  -0.000037   0.000015
     31       0.000412   0.000164  -0.000031
     32      -0.000208  -0.000116   0.000022
     33       0.000044   0.000057  -0.000016
     34      -0.000124  -0.000074   0.000005
     35       0.000103   0.000089  -0.000040
     36       0.034786   0.030425  -0.004814
     37      -0.099846  -0.009459   0.001947
     38       0.079839   0.014940  -0.003053
     39       0.000061   0.000034  -0.000005
     40       0.000065  -0.000005   0.000006
     41       0.000006   0.000017  -0.000017
     42      -0.000714  -0.000508   0.000132
     43       0.000090   0.000155  -0.000024
     44      -0.000341  -0.000252   0.000141
     45      -0.000290  -0.000997   0.000356
     46      -0.000830  -0.000547   0.000230
     47      -0.001012  -0.000817   0.000261
     48      -0.000715  -0.000781   0.000081
     49      -0.000236  -0.000120  -0.000016
     50       0.001091   0.000694  -0.000137
     51      -0.000317  -0.000149   0.000094
     52       0.000041   0.000189  -0.000004
     53      -0.000388  -0.000432   0.000297
     54      -0.030300  -0.007178  -0.048574
     55       0.016246  -0.004367  -0.034974
     56       0.051195   0.001727   0.005699
     57       0.000599  -0.000076   0.000128
     58      -0.000468   0.000169  -0.000036
     59       0.000149   0.000059   0.000089
     60      -0.002959   0.107069   0.802709
     61       0.019815   0.076047   0.567007
     62       0.027461  -0.012997  -0.107104
     63      -0.003028   0.058807  -0.007713
     64       0.005418   0.003115  -0.000430
     65      -0.005853   0.012475  -0.001673
     66       0.473828   0.009226  -0.033482
     67      -0.273116  -0.006717  -0.011914
     68      -0.823145  -0.014621   0.018380
     69       0.023384  -0.964802   0.128728
     70       0.006354  -0.040753   0.004975
     71      -0.002419  -0.211643   0.027917
     72       0.000682   0.000172  -0.000107
     73      -0.000460  -0.000132   0.000133
     74       0.000076   0.000045  -0.000054
     75      -0.000045  -0.000047   0.000103
     76      -0.000731  -0.000263   0.000248
     77       0.000097   0.000081  -0.000158
     78       0.000023   0.000010  -0.000002
     79       0.000010   0.000010   0.000001
     80       0.000001   0.000017  -0.000015
     81      -0.000198  -0.000141   0.000066
     82      -0.000206   0.000072   0.000002
     83      -0.000082  -0.000278   0.000101
     84      -0.000049   0.000102  -0.000020
     85       0.000177   0.000123  -0.000078
     86      -0.000169  -0.000036   0.000051
     87       0.000004  -0.000001   0.000002
     88       0.000014  -0.000012  -0.000001
     89      -0.000039   0.000010  -0.000008
     90      -0.000175  -0.000082  -0.000001
     91       0.000035   0.000110   0.000026
     92       0.000087  -0.000103  -0.000013
     93      -0.000056   0.000080  -0.000093
     94       0.000024   0.000065  -0.000034
     95       0.000070  -0.000058   0.000039
     96       0.000082   0.000041   0.000038
     97      -0.000022  -0.000018   0.000028
     98       0.000428   0.000025   0.000117


-----------
IR SPECTRUM  
-----------

 Mode    freq (cm**-1)   T**2         TX         TY         TZ
-------------------------------------------------------------------
   6:         4.04    0.000000  (  0.000000   0.000000   0.000000)
   7:        19.56    0.000000  (  0.000000   0.000000   0.000000)
   8:        25.64    0.000000  (  0.000000   0.000000   0.000000)
   9:        38.92    0.000000  (  0.000000   0.000000   0.000000)
  10:        48.62    0.000000  (  0.000000   0.000000   0.000000)
  11:        59.19    0.000000  (  0.000000   0.000000   0.000000)
  12:        73.72    0.000000  (  0.000000   0.000000   0.000000)
  13:        94.78    0.000000  (  0.000000   0.000000   0.000000)
  14:       104.82    0.000000  (  0.000000   0.000000   0.000000)
  15:       113.70    0.000000  (  0.000000   0.000000   0.000000)
  16:       153.72    0.000000  (  0.000000   0.000000   0.000000)
  17:       173.86    0.000000  (  0.000000   0.000000   0.000000)
  18:       211.18    0.000000  (  0.000000   0.000000   0.000000)
  19:       233.20    0.000000  (  0.000000   0.000000   0.000000)
  20:       238.74    0.000000  (  0.000000   0.000000   0.000000)
  21:       251.26    0.000000  (  0.000000   0.000000   0.000000)
  22:       269.94    0.000000  (  0.000000   0.000000   0.000000)
  23:       282.55    0.000000  (  0.000000   0.000000   0.000000)
  24:       365.74    0.000000  (  0.000000   0.000000   0.000000)
  25:       381.39    0.000000  (  0.000000   0.000000   0.000000)
  26:       415.44    0.000000  (  0.000000   0.000000   0.000000)
  27:       427.17    0.000000  (  0.000000   0.000000   0.000000)
  28:       431.83    0.000000  (  0.000000   0.000000   0.000000)
  29:       470.82    0.000000  (  0.000000   0.000000   0.000000)
  30:       501.57    0.000000  (  0.000000   0.000000   0.000000)
  31:       588.35    0.000000  (  0.000000   0.000000   0.000000)
  32:       606.57    0.000000  (  0.000000   0.000000   0.000000)
  33:       626.05    0.000000  (  0.000000   0.000000   0.000000)
  34:       659.34    0.000000  (  0.000000   0.000000   0.000000)
  35:       703.66    0.000000  (  0.000000   0.000000   0.000000)
  36:       753.59    0.000000  (  0.000000   0.000000   0.000000)
  37:       776.56    0.000000  (  0.000000   0.000000   0.000000)
  38:       833.09    0.000000  (  0.000000   0.000000   0.000000)
  39:       862.77    0.000000  (  0.000000   0.000000   0.000000)
  40:       877.76    0.000000  (  0.000000   0.000000   0.000000)
  41:       907.19    0.000000  (  0.000000   0.000000   0.000000)
  42:       924.35    0.000000  (  0.000000   0.000000   0.000000)
  43:       931.48    0.000000  (  0.000000   0.000000   0.000000)
  44:       939.49    0.000000  (  0.000000   0.000000   0.000000)
  45:       945.36    0.000000  (  0.000000   0.000000   0.000000)
  46:       954.07    0.000000  (  0.000000   0.000000   0.000000)
  47:       989.24    0.000000  (  0.000000   0.000000   0.000000)
  48:      1048.42    0.000000  (  0.000000   0.000000   0.000000)
  49:      1076.01    0.000000  (  0.000000   0.000000   0.000000)
  50:      1080.44    0.000000  (  0.000000   0.000000   0.000000)
  51:      1100.44    0.000000  (  0.000000   0.000000   0.000000)
  52:      1122.78    0.000000  (  0.000000   0.000000   0.000000)
  53:      1126.92    0.000000  (  0.000000   0.000000   0.000000)
  54:      1160.91    0.000000  (  0.000000   0.000000   0.000000)
  55:      1179.55    0.000000  (  0.000000   0.000000   0.000000)
  56:      1191.47    0.000000  (  0.000000   0.000000   0.000000)
  57:      1213.47    0.000000  (  0.000000   0.000000   0.000000)
  58:      1239.00    0.000000  (  0.000000   0.000000   0.000000)
  59:      1252.53    0.000000  (  0.000000   0.000000   0.000000)
  60:      1269.89    0.000000  (  0.000000   0.000000   0.000000)
  61:      1275.68    0.000000  (  0.000000   0.000000   0.000000)
  62:      1278.27    0.000000  (  0.000000   0.000000   0.000000)
  63:      1321.76    0.000000  (  0.000000   0.000000   0.000000)
  64:      1328.79    0.000000  (  0.000000   0.000000   0.000000)
  65:      1360.83    0.000000  (  0.000000   0.000000   0.000000)
  66:      1368.89    0.000000  (  0.000000   0.000000   0.000000)
  67:      1414.97    0.000000  (  0.000000   0.000000   0.000000)
  68:      1433.55    0.000000  (  0.000000   0.000000   0.000000)
  69:      1467.82    0.000000  (  0.000000   0.000000   0.000000)
  70:      1469.75    0.000000  (  0.000000   0.000000   0.000000)
  71:      1490.80    0.000000  (  0.000000   0.000000   0.000000)
  72:      1495.20    0.000000  (  0.000000   0.000000   0.000000)
  73:      1500.96    0.000000  (  0.000000   0.000000   0.000000)
  74:      1503.06    0.000000  (  0.000000   0.000000   0.000000)
  75:      1526.58    0.000000  (  0.000000   0.000000   0.000000)
  76:      1548.40    0.000000  (  0.000000   0.000000   0.000000)
  77:      1577.54    0.000000  (  0.000000   0.000000   0.000000)
  78:      1590.07    0.000000  (  0.000000   0.000000   0.000000)
  79:      1697.69    0.000000  (  0.000000   0.000000   0.000000)
  80:      2830.83    0.000000  (  0.000000   0.000000   0.000000)
  81:      2845.82    0.000000  (  0.000000   0.000000   0.000000)
  82:      2927.86    0.000000  (  0.000000   0.000000   0.000000)
  83:      2960.06    0.000000  (  0.000000   0.000000   0.000000)
  84:      2972.12    0.000000  (  0.000000   0.000000   0.000000)
  85:      2978.71    0.000000  (  0.000000   0.000000   0.000000)
  86:      2989.09    0.000000  (  0.000000   0.000000   0.000000)
  87:      3027.45    0.000000  (  0.000000   0.000000   0.000000)
  88:      3029.19    0.000000  (  0.000000   0.000000   0.000000)
  89:      3036.22    0.000000  (  0.000000   0.000000   0.000000)
  90:      3059.80    0.000000  (  0.000000   0.000000   0.000000)
  91:      3066.64    0.000000  (  0.000000   0.000000   0.000000)
  92:      3075.41    0.000000  (  0.000000   0.000000   0.000000)
  93:      3082.05    0.000000  (  0.000000   0.000000   0.000000)
  94:      3091.81    0.000000  (  0.000000   0.000000   0.000000)
  95:      3127.86    0.000000  (  0.000000   0.000000   0.000000)
  96:      3272.17    0.000000  (  0.000000   0.000000   0.000000)
  97:      3634.17    0.000000  (  0.000000   0.000000   0.000000)
  98:      3641.45    0.000000  (  0.000000   0.000000   0.000000)

The first frequency considered to be a vibration is 6
The total number of vibrations considered is 93


--------------------------
THERMOCHEMISTRY AT 298.15K
--------------------------

Temperature         ... 298.15 K
Pressure            ... 1.00 atm
Total Mass          ... 197.28 AMU

Throughout the following assumptions are being made:
  (1) The electronic state is orbitally nondegenerate
  (2) There are no thermally accessible electronically excited states
  (3) Hindered rotations indicated by low frequency modes are not
      treated as such but are treated as vibrations and this may
      cause some error
  (4) All equations used are the standard statistical mechanics
      equations for an ideal gas
  (5) All vibrations are strictly harmonic

freq.       4.04  E(vib)   ...       0.59 
freq.      19.56  E(vib)   ...       0.56 
freq.      25.64  E(vib)   ...       0.56 
freq.      38.92  E(vib)   ...       0.54 
freq.      48.62  E(vib)   ...       0.53 
freq.      59.19  E(vib)   ...       0.51 
freq.      73.72  E(vib)   ...       0.49 
freq.      94.78  E(vib)   ...       0.47 
freq.     104.82  E(vib)   ...       0.46 
freq.     113.70  E(vib)   ...       0.44 
freq.     153.72  E(vib)   ...       0.40 
freq.     173.86  E(vib)   ...       0.38 
freq.     211.18  E(vib)   ...       0.34 
freq.     233.20  E(vib)   ...       0.32 
freq.     238.74  E(vib)   ...       0.32 
freq.     251.26  E(vib)   ...       0.30 
freq.     269.94  E(vib)   ...       0.29 
freq.     282.55  E(vib)   ...       0.28 
freq.     365.74  E(vib)   ...       0.22 
freq.     381.39  E(vib)   ...       0.21 
freq.     415.44  E(vib)   ...       0.18 
freq.     427.17  E(vib)   ...       0.18 
freq.     431.83  E(vib)   ...       0.18 
freq.     470.82  E(vib)   ...       0.15 
freq.     501.57  E(vib)   ...       0.14 
freq.     588.35  E(vib)   ...       0.10 
freq.     606.57  E(vib)   ...       0.10 
freq.     626.05  E(vib)   ...       0.09 
freq.     659.34  E(vib)   ...       0.08 
freq.     703.66  E(vib)   ...       0.07 
freq.     753.59  E(vib)   ...       0.06 
freq.     776.56  E(vib)   ...       0.05 
freq.     833.09  E(vib)   ...       0.04 
freq.     862.77  E(vib)   ...       0.04 
freq.     877.76  E(vib)   ...       0.04 
freq.     907.19  E(vib)   ...       0.03 
freq.     924.35  E(vib)   ...       0.03 
freq.     931.48  E(vib)   ...       0.03 
freq.     939.49  E(vib)   ...       0.03 
freq.     945.36  E(vib)   ...       0.03 
freq.     954.07  E(vib)   ...       0.03 
freq.     989.24  E(vib)   ...       0.02 
freq.    1048.42  E(vib)   ...       0.02 
freq.    1076.01  E(vib)   ...       0.02 
freq.    1080.44  E(vib)   ...       0.02 
freq.    1100.44  E(vib)   ...       0.02 
freq.    1122.78  E(vib)   ...       0.01 
freq.    1126.92  E(vib)   ...       0.01 
freq.    1160.91  E(vib)   ...       0.01 
freq.    1179.55  E(vib)   ...       0.01 
freq.    1191.47  E(vib)   ...       0.01 
freq.    1213.47  E(vib)   ...       0.01 
freq.    1239.00  E(vib)   ...       0.01 
freq.    1252.53  E(vib)   ...       0.01 
freq.    1269.89  E(vib)   ...       0.01 
freq.    1275.68  E(vib)   ...       0.01 
freq.    1278.27  E(vib)   ...       0.01 
freq.    1321.76  E(vib)   ...       0.01 
freq.    1328.79  E(vib)   ...       0.01 
freq.    1360.83  E(vib)   ...       0.01 
freq.    1368.89  E(vib)   ...       0.01 
freq.    1414.97  E(vib)   ...       0.00 
freq.    1433.55  E(vib)   ...       0.00 
freq.    1467.82  E(vib)   ...       0.00 
freq.    1469.75  E(vib)   ...       0.00 
freq.    1490.80  E(vib)   ...       0.00 
freq.    1495.20  E(vib)   ...       0.00 
freq.    1500.96  E(vib)   ...       0.00 
freq.    1503.06  E(vib)   ...       0.00 
freq.    1526.58  E(vib)   ...       0.00 
freq.    1548.40  E(vib)   ...       0.00 
freq.    1577.54  E(vib)   ...       0.00 
freq.    1590.07  E(vib)   ...       0.00 
freq.    1697.69  E(vib)   ...       0.00 
freq.    2830.83  E(vib)   ...       0.00 
freq.    2845.82  E(vib)   ...       0.00 
freq.    2927.86  E(vib)   ...       0.00 
freq.    2960.06  E(vib)   ...       0.00 
freq.    2972.12  E(vib)   ...       0.00 
freq.    2978.71  E(vib)   ...       0.00 
freq.    2989.09  E(vib)   ...       0.00 
freq.    3027.45  E(vib)   ...       0.00 
freq.    3029.19  E(vib)   ...       0.00 
freq.    3036.22  E(vib)   ...       0.00 
freq.    3059.80  E(vib)   ...       0.00 
freq.    3066.64  E(vib)   ...       0.00 
freq.    3075.41  E(vib)   ...       0.00 
freq.    3082.05  E(vib)   ...       0.00 
freq.    3091.81  E(vib)   ...       0.00 
freq.    3127.86  E(vib)   ...       0.00 
freq.    3272.17  E(vib)   ...       0.00 
freq.    3634.17  E(vib)   ...       0.00 
freq.    3641.45  E(vib)   ...       0.00 

------------
INNER ENERGY
------------

The inner energy is: U= E(el) + E(ZPE) + E(vib) + E(rot) + E(trans)
    E(el)   - is the total energy from the electronic structure calculation
              = E(kin-el) + E(nuc-el) + E(el-el) + E(nuc-nuc)
    E(ZPE)  - the the zero temperature vibrational energy from the frequency calculation
    E(vib)  - the the finite temperature correction to E(ZPE) due to population
              of excited vibrational states
    E(rot)  - is the rotational thermal energy
    E(trans)- is the translational thermal energy

Summary of contributions to the inner energy U:
Electronic energy                ...    -44.28331748 Eh
Zero point energy                ...      0.27481880 Eh     172.45 kcal/mol
Thermal vibrational correction   ...      0.01617542 Eh      10.15 kcal/mol
Thermal rotational correction    ...      0.00141627 Eh       0.89 kcal/mol
Thermal translational correction ...      0.00141627 Eh       0.89 kcal/mol
-----------------------------------------------------------------------
Total thermal energy                    -43.98949072 Eh


Summary of corrections to the electronic energy:
(perhaps to be used in another calculation)
Total thermal correction                  0.01900796 Eh      11.93 kcal/mol
Non-thermal (ZPE) correction              0.27481880 Eh     172.45 kcal/mol
-----------------------------------------------------------------------
Total correction                          0.29382676 Eh     184.38 kcal/mol


--------
ENTHALPY
--------

The enthalpy is H = U + kB*T
                kB is Boltzmann's constant
Total free energy                 ...    -43.98949072 Eh 
Thermal Enthalpy correction       ...      0.00094421 Eh       0.59 kcal/mol
-----------------------------------------------------------------------
Total Enthalpy                    ...    -43.98854651 Eh


Note: Only C1 symmetry has been detected, increase convergence thresholds 
      if your molecule has a higher symmetry. Symmetry factor of 1.0 is   
      used for the rotational entropy correction. 
 

Note: Rotational entropy computed according to Herzberg 
Infrared and Raman Spectra, Chapter V,1, Van Nostrand Reinhold, 1945 
Point Group:  C1, Symmetry Number:   1  
Rotational constants in cm-1:     0.028733     0.009254     0.007746 

Vibrational entropy computed according to the QRRHO of S. Grimme
Chem.Eur.J. 2012 18 9955


-------
ENTROPY
-------

The entropy contributions are T*S = T*(S(el)+S(vib)+S(rot)+S(trans))
     S(el)   - electronic entropy
     S(vib)  - vibrational entropy
     S(rot)  - rotational entropy
     S(trans)- translational entropy
The entropies will be listed as mutliplied by the temperature to get
units of energy

Electronic entropy                ...      0.00000000 Eh      0.00 kcal/mol
Vibrational entropy               ...      0.03081459 Eh     19.34 kcal/mol
Rotational entropy                ...      0.01569188 Eh      9.85 kcal/mol
Translational entropy             ...      0.01983352 Eh     12.45 kcal/mol
-----------------------------------------------------------------------
Final entropy term                ...      0.06633999 Eh     41.63 kcal/mol

In case the symmetry of your molecule has not been determined correctly
or in case you have a reason to use a different symmetry number we print 
out the resulting rotational entropy values for sn=1,12 :
 --------------------------------------------------------
|  sn= 1 | S(rot)=       0.01569188 Eh      9.85 kcal/mol|
|  sn= 2 | S(rot)=       0.01503742 Eh      9.44 kcal/mol|
|  sn= 3 | S(rot)=       0.01465459 Eh      9.20 kcal/mol|
|  sn= 4 | S(rot)=       0.01438297 Eh      9.03 kcal/mol|
|  sn= 5 | S(rot)=       0.01417228 Eh      8.89 kcal/mol|
|  sn= 6 | S(rot)=       0.01400013 Eh      8.79 kcal/mol|
|  sn= 7 | S(rot)=       0.01385459 Eh      8.69 kcal/mol|
|  sn= 8 | S(rot)=       0.01372851 Eh      8.61 kcal/mol|
|  sn= 9 | S(rot)=       0.01361730 Eh      8.54 kcal/mol|
|  sn=10 | S(rot)=       0.01351782 Eh      8.48 kcal/mol|
|  sn=11 | S(rot)=       0.01342783 Eh      8.43 kcal/mol|
|  sn=12 | S(rot)=       0.01334568 Eh      8.37 kcal/mol|
 --------------------------------------------------------


-------------------
GIBBS FREE ENERGY
-------------------

The Gibbs free energy is G = H - T*S

Total enthalpy                    ...    -43.98854651 Eh 
Total entropy correction          ...     -0.06633999 Eh    -41.63 kcal/mol
-----------------------------------------------------------------------
Final Gibbs free energy         ...    -44.05488651 Eh

For completeness - the Gibbs free energy minus the electronic energy
G-E(el)                           ...      0.22843097 Eh    143.34 kcal/mol


Total Time for Numerical Frequencies  :        81.362 sec

Timings for individual modules:

Sum of individual times         ...        0.627 sec (=   0.010 min)
Geometry relaxation             ...        0.289 sec (=   0.005 min)  46.1 %
XTB module                      ...        0.338 sec (=   0.006 min)  53.9 %
                             ****ORCA TERMINATED NORMALLY****
TOTAL RUN TIME: 0 days 0 hours 1 minutes 22 seconds 918 msec
