
                                 *****************
                                 * O   R   C   A *
                                 *****************

           --- An Ab Initio, DFT and Semiempirical electronic structure package ---

                  #######################################################
                  #                        -***-                        #
                  #          Department of theory and spectroscopy      #
                  #               Directorship: Frank Neese             #
                  #        Max Planck Institute fuer Kohlenforschung    #
                  #                Kaiser Wilhelm Platz 1               #
                  #                 D-45470 Muelheim/Ruhr               #
                  #                      Germany                        #
                  #                                                     #
                  #                  All rights reserved                #
                  #                        -***-                        #
                  #######################################################


                         Program Version 4.2.1 -  RELEASE  -


 With contributions from (in alphabetic order):
   Daniel Aravena         : Magnetic Suceptibility
   Michael Atanasov       : Ab Initio Ligand Field Theory (pilot matlab implementation)
   Alexander A. Auer      : GIAO ZORA, VPT2
   Ute Becker             : Parallelization
   Giovanni Bistoni       : ED, misc. LED, open-shell LED, HFLD
   Martin Brehm           : Molecular dynamics
   Dmytro Bykov           : SCF Hessian
   Vijay G. Chilkuri      : MRCI spin determinant printing, contributions to CSF-ICE
   Dipayan Datta          : RHF DLPNO-CCSD density
   Achintya Kumar Dutta   : EOM-CC, STEOM-CC
   Dmitry Ganyushin       : Spin-Orbit,Spin-Spin,Magnetic field MRCI
   Miquel Garcia          : C-PCM Hessian, Gaussian charge scheme
   Yang Guo               : DLPNO-NEVPT2, CIM, IAO-localization
   Andreas Hansen         : Spin unrestricted coupled pair/coupled cluster methods
   Benjamin Helmich-Paris : CASSCF linear response (MC-RPA)
   Lee Huntington         : MR-EOM, pCC
   Robert Izsak           : Overlap fitted RIJCOSX, COSX-SCS-MP3, EOM
   Christian Kollmar      : KDIIS, OOCD, Brueckner-CCSD(T), CCSD density
   Simone Kossmann        : Meta GGA functionals, TD-DFT gradient, OOMP2, MP2 Hessian
   Martin Krupicka        : AUTO-CI
   Lucas Lang             : DCDCAS
   Dagmar Lenk            : GEPOL surface, SMD
   Dimitrios Liakos       : Extrapolation schemes; Compound Job, initial MDCI parallelization
   Dimitrios Manganas     : Further ROCIS development; embedding schemes
   Dimitrios Pantazis     : SARC Basis sets
   Taras Petrenko         : DFT Hessian,TD-DFT gradient, ASA, ECA, R-Raman, ABS, FL, XAS/XES, NRVS
   Peter Pinski           : DLPNO-MP2, DLPNO-MP2 Gradient
   Christoph Reimann      : Effective Core Potentials
   Marius Retegan         : Local ZFS, SOC
   Christoph Riplinger    : Optimizer, TS searches, QM/MM, DLPNO-CCSD(T), (RO)-DLPNO pert. Triples
   Tobias Risthaus        : Range-separated hybrids, TD-DFT gradient, RPA, STAB
   Michael Roemelt        : Original ROCIS implementation
   Masaaki Saitow         : Open-shell DLPNO-CCSD energy and density
   Barbara Sandhoefer     : DKH picture change effects
   Avijit Sen             : IP-ROCIS
   Kantharuban Sivalingam : CASSCF convergence, NEVPT2, FIC-MRCI
   Bernardo de Souza      : ESD, SOC TD-DFT
   Georgi Stoychev        : AutoAux, RI-MP2 NMR
   Willem Van den Heuvel  : Paramagnetic NMR
   Boris Wezisla          : Elementary symmetry handling
   Frank Wennmohs         : Technical directorship


 We gratefully acknowledge several colleagues who have allowed us to
 interface, adapt or use parts of their codes:
   Stefan Grimme, W. Hujo, H. Kruse,             : VdW corrections, initial TS optimization,
                  C. Bannwarth                     DFT functionals, gCP, sTDA/sTD-DF
   Ed Valeev, F. Pavosevic, A. Kumar             : LibInt (2-el integral package), F12 methods
   Garnet Chan, S. Sharma, J. Yang, R. Olivares  : DMRG
   Ulf Ekstrom                                   : XCFun DFT Library
   Mihaly Kallay                                 : mrcc  (arbitrary order and MRCC methods)
   Andreas Klamt, Michael Diedenhofen            : otool_cosmo (COSMO solvation model)
   Jiri Pittner, Ondrej Demel                    : Mk-CCSD
   Frank Weinhold                                : gennbo (NPA and NBO analysis)
   Christopher J. Cramer and Donald G. Truhlar   : smd solvation model
   Lars Goerigk                                  : TD-DFT with DH, B97 family of functionals
   V. Asgeirsson, H. Jonsson                     : NEB implementation
   FAccTs GmbH                                   : IRC, NEB, NEB-TS, Multilevel, MM, QM/MM, CI optimization
   S Lehtola, MJT Oliveira, MAL Marques          : LibXC Library


 Your calculation uses the libint2 library for the computation of 2-el integrals
 For citations please refer to: http://libint.valeyev.net

 Your ORCA version has been built with support for libXC version: 4.2.3
 For citations please refer to: https://tddft.org/programs/libxc/

 This ORCA versions uses:
   CBLAS   interface :  Fast vector & matrix operations
   LAPACKE interface :  Fast linear algebra routines
   SCALAPACK package :  Parallel linear algebra routines




***************************************
The coordinates will be read from file: init.xyz
***************************************


Your calculation utilizes the SMD solvation module
Please cite in your paper:
A.V. Marenich, C.J. Cramer, D.G. Truhlar J. Phys. Chem. B, 113, (2009), 6378 

Your calculation utilizes the semiempirical GFN2-xTB method
Please cite in your paper:
C. Bannwarth, Ehlert S., S. Grimme,  J. Chem. Theory Comput., 15, (2019), 1652.
   

----- Orbital basis set information -----
Your calculation utilizes the basis: def2-SVP
   F. Weigend and R. Ahlrichs, Phys. Chem. Chem. Phys. 7, 3297 (2005).

================================================================================
                                        WARNINGS
                       Please study these warnings very carefully!
================================================================================


WARNING: The environment variable RSH_COMMAND is not set!
  ===> : All Displacements for the Numerical Hessian calculation
         will be started on localhost

WARNING: Geometry Optimization
  ===> : Switching off AutoStart
         For restart on a previous wavefunction, please use MOREAD

WARNING: Found dipole moment calculation with XTB calculation
  ===> : Switching off dipole moment calculation


INFO   : the flag for use of LIBINT has been found!

================================================================================
                                       INPUT FILE
================================================================================
NAME = opt+freq.inp
|  1> ! XTB2 Opt NumFreq
|  2> 
|  3> %cpcm
|  4>  smd true
|  5>  smdsolvent "ch2cl2"
|  6> end
|  7> 
|  8> %pal
|  9>  nprocs 12
| 10> end
| 11> 
| 12> *xyzfile 0 1 init.xyz
| 13> 
| 14> 
| 15>                          ****END OF INPUT****
================================================================================

                       *****************************
                       * Geometry Optimization Run *
                       *****************************

Geometry optimization settings:
Update method            Update   .... BFGS
Choice of coordinates    CoordSys .... Z-matrix Internals
Initial Hessian          InHess   .... Almoef's Model

Convergence Tolerances:
Energy Change            TolE     ....  5.0000e-06 Eh
Max. Gradient            TolMAXG  ....  3.0000e-04 Eh/bohr
RMS Gradient             TolRMSG  ....  1.0000e-04 Eh/bohr
Max. Displacement        TolMAXD  ....  4.0000e-03 bohr
RMS Displacement         TolRMSD  ....  2.0000e-03 bohr
Strict Convergence                ....  False
------------------------------------------------------------------------------
                        ORCA OPTIMIZATION COORDINATE SETUP
------------------------------------------------------------------------------

The optimization will be done in new redundant internal coordinates
Making redundant internal coordinates   ...  (new redundants) done
Evaluating the initial hessian          ...  (Almloef) done
Evaluating the coordinates              ...  done
Calculating the B-matrix                .... done
Calculating the G-matrix                .... done
Diagonalizing the G-matrix              .... done
Small eigenvalue found = 5.596e-03
Small eigenvalue found = 1.131e-02
Small eigenvalue found = 1.385e-02
Small eigenvalue found = 2.488e-02
The first mode is                       ....  127
The number of degrees of freedom        ....  102

    -----------------------------------------------------------------
                    Redundant Internal Coordinates


    -----------------------------------------------------------------
         Definition                    Initial Value    Approx d2E/dq
    -----------------------------------------------------------------
      1. B(C   1,C   0)                  1.4004         0.601304   
      2. B(C   2,C   1)                  1.3858         0.634495   
      3. B(C   3,C   2)                  1.3944         0.614812   
      4. B(C   4,C   3)                  1.3906         0.623314   
      5. B(C   5,C   4)                  1.3898         0.625300   
      6. B(C   5,C   0)                  1.3985         0.605587   
      7. B(C   6,C   0)                  1.4675         0.469927   
      8. B(H   7,C   1)                  1.0791         0.374834   
      9. B(H   8,C   5)                  1.0826         0.370055   
     10. B(H   9,C   3)                  1.0820         0.370894   
     11. B(N  10,C   6)                  1.2700         0.869768   
     12. B(C  11,N  10)                  1.4559         0.439228   
     13. B(H  12,N  10)                  1.7744         0.026101   
     14. B(H  12,H   7)                  2.2295         0.001048   
     15. B(C  13,C  11)                  1.5287         0.375366   
     16. B(H  14,C  11)                  1.0963         0.351858   
     17. B(H  15,C  11)                  1.0938         0.355092   
     18. B(H  16,C  13)                  1.0936         0.355358   
     19. B(H  17,C  13)                  1.0941         0.354765   
     20. B(H  19,C   6)                  1.0952         0.353318   
     21. B(H  20,O  18)                  0.9623         0.515639   
     22. B(H  22,O  18)                  0.9762         0.489910   
     23. B(H  22,O  21)                  1.8454         0.020108   
     24. B(H  23,O  21)                  0.9639         0.512543   
     25. B(H  23,H  22)                  2.3529         0.000666   
     26. B(O  24,H  12)                  0.9938         0.459304   
     27. B(H  25,O  21)                  0.9825         0.478760   
     28. B(H  25,H  22)                  2.3402         0.000698   
     29. B(H  25,O  24)                  1.7619         0.027327   
     30. B(H  25,H  12)                  2.2665         0.000915   
     31. B(H  26,O  24)                  0.9640         0.512436   
     32. B(H  27,C   2)                  1.0815         0.371463   
     33. B(H  28,C   4)                  1.0817         0.371226   
     34. B(C  29,C  13)                  1.5277         0.376692   
     35. B(H  30,C  29)                  1.0941         0.354684   
     36. B(H  31,C  29)                  1.0942         0.354628   
     37. B(C  32,C  29)                  1.5268         0.378014   
     38. B(H  33,C  32)                  1.0926         0.356713   
     39. B(H  34,C  32)                  1.0917         0.357894   
     40. B(H  35,C  32)                  1.0926         0.356625   
     41. A(C   5,C   0,C   6)          118.2233         0.411365   
     42. A(C   1,C   0,C   5)          118.9814         0.429863   
     43. A(C   1,C   0,C   6)          122.7831         0.410848   
     44. A(C   0,C   1,H   7)          119.8451         0.353476   
     45. A(C   0,C   1,C   2)          120.3037         0.433480   
     46. A(C   2,C   1,H   7)          119.8438         0.356712   
     47. A(C   1,C   2,H  27)          119.6942         0.356165   
     48. A(C   3,C   2,H  27)          120.0053         0.354266   
     49. A(C   1,C   2,C   3)          120.2977         0.435217   
     50. A(C   2,C   3,H   9)          120.0302         0.354174   
     51. A(C   4,C   3,H   9)          120.1061         0.355000   
     52. A(C   2,C   3,C   4)          119.8637         0.433826   
     53. A(C   3,C   4,H  28)          120.1770         0.355054   
     54. A(C   3,C   4,C   5)          119.8864         0.435149   
     55. A(C   5,C   4,H  28)          119.9366         0.355245   
     56. A(C   0,C   5,H   8)          119.3794         0.353133   
     57. A(C   0,C   5,C   4)          120.6605         0.432896   
     58. A(C   4,C   5,H   8)          119.9543         0.355055   
     59. A(N  10,C   6,H  19)          120.3217         0.370366   
     60. A(C   0,C   6,H  19)          115.1546         0.335799   
     61. A(C   0,C   6,N  10)          124.5190         0.436013   
     62. A(C   1,H   7,H  12)          129.1646         0.132434   
     63. A(C   6,N  10,H  12)          131.5023         0.243198   
     64. A(C   6,N  10,C  11)          118.9591         0.427935   
     65. A(C  11,N  10,H  12)          108.8116         0.221105   
     66. A(N  10,C  11,H  14)          111.3973         0.329828   
     67. A(H  14,C  11,H  15)          107.7157         0.289149   
     68. A(C  13,C  11,H  15)          108.9107         0.323828   
     69. A(N  10,C  11,H  15)          107.4807         0.330327   
     70. A(C  13,C  11,H  14)          110.2804         0.323342   
     71. A(N  10,C  11,C  13)          110.9296         0.371555   
     72. A(N  10,H  12,H  25)          132.0270         0.111775   
     73. A(H   7,H  12,H  25)           70.5201         0.097900   
     74. A(O  24,H  12,H  25)           47.8943         0.132587   
     75. A(H   7,H  12,N  10)           83.6885         0.112487   
     76. A(N  10,H  12,O  24)          174.8013         0.204020   
     77. A(H   7,H  12,O  24)          100.4697         0.133948   
     78. A(H  16,C  13,H  17)          106.7886         0.289556   
     79. A(C  11,C  13,H  17)          108.9895         0.323779   
     80. A(C  11,C  13,C  29)          112.5360         0.364166   
     81. A(C  11,C  13,H  16)          108.9176         0.323868   
     82. A(H  16,C  13,C  29)          109.6586         0.324056   
     83. A(H  17,C  13,C  29)          109.7797         0.323967   
     84. A(H  20,O  18,H  22)          104.0937         0.318285   
     85. A(H  22,O  21,H  23)          109.7370         0.200150   
     86. A(H  23,O  21,H  25)          105.1728         0.316783   
     87. A(H  22,O  21,H  25)          107.7568         0.198448   
     88. A(H  23,H  22,H  25)           38.4657         0.096556   
     89. A(O  21,H  22,H  25)           23.5669         0.109194   
     90. A(O  18,H  22,H  25)          157.3502         0.130600   
     91. A(O  21,H  22,H  23)           22.6813         0.108982   
     92. A(O  18,H  22,H  23)          156.0661         0.130164   
     93. A(O  21,H  23,H  22)           47.5817         0.130587   
     94. A(H  12,O  24,H  25)          107.3683         0.205221   
     95. A(H  12,O  24,H  26)          105.5711         0.314643   
     96. A(H  25,O  24,H  26)          115.5579         0.208136   
     97. A(H  12,H  25,O  24)           24.7374         0.112013   
     98. A(H  12,H  25,O  21)          151.3146         0.132998   
     99. A(H  22,H  25,O  24)          127.2300         0.110646   
    100. A(H  12,H  25,H  22)          103.4043         0.097118   
    101. A(O  21,H  25,H  22)           48.6764         0.130384   
    102. A(H  31,C  29,C  32)          109.5338         0.324133   
    103. A(H  30,C  29,C  32)          109.5292         0.324141   
    104. A(C  13,C  29,C  32)          112.6880         0.364604   
    105. A(H  30,C  29,H  31)          106.3516         0.289452   
    106. A(C  13,C  29,H  31)          109.3825         0.323946   
    107. A(C  13,C  29,H  30)          109.1559         0.323955   
    108. A(H  34,C  32,H  35)          107.6744         0.290117   
    109. A(H  33,C  32,H  35)          107.5868         0.289967   
    110. A(C  29,C  32,H  35)          111.1885         0.324432   
    111. A(H  33,C  32,H  34)          107.7373         0.290128   
    112. A(C  29,C  32,H  34)          111.4063         0.324621   
    113. A(C  29,C  32,H  33)          111.0677         0.324445   
    114. D(H   7,C   1,C   0,C   5)    179.7510         0.024931   
    115. D(H   7,C   1,C   0,C   6)      1.0430         0.024931   
    116. D(C   2,C   1,C   0,C   6)   -177.9636         0.024931   
    117. D(C   2,C   1,C   0,C   5)      0.7445         0.024931   
    118. D(H  27,C   2,C   1,H   7)      0.2891         0.027939   
    119. D(H  27,C   2,C   1,C   0)    179.2956         0.027939   
    120. D(C   3,C   2,C   1,C   0)     -0.0925         0.027939   
    121. D(C   3,C   2,C   1,H   7)   -179.0991         0.027939   
    122. D(C   4,C   3,C   2,C   1)     -0.3438         0.026130   
    123. D(H   9,C   3,C   2,H  27)      0.2288         0.026130   
    124. D(H   9,C   3,C   2,C   1)    179.6150         0.026130   
    125. D(C   4,C   3,C   2,H  27)   -179.7300         0.026130   
    126. D(C   5,C   4,C   3,C   2)      0.1159         0.026902   
    127. D(H  28,C   4,C   3,H   9)      0.0453         0.026902   
    128. D(H  28,C   4,C   3,C   2)   -179.9959         0.026902   
    129. D(C   5,C   4,C   3,H   9)   -179.8428         0.026902   
    130. D(H   8,C   5,C   4,C   3)    179.6692         0.027084   
    131. D(C   0,C   5,C   4,H  28)   -179.3383         0.027084   
    132. D(C   4,C   5,C   0,C   6)    177.7919         0.025308   
    133. D(H   8,C   5,C   4,H  28)     -0.2192         0.027084   
    134. D(H   8,C   5,C   0,C   1)    179.9006         0.025308   
    135. D(C   0,C   5,C   4,C   3)      0.5501         0.027084   
    136. D(C   4,C   5,C   0,C   1)     -0.9753         0.025308   
    137. D(H   8,C   5,C   0,C   6)     -1.3321         0.025308   
    138. D(H  19,C   6,C   0,C   5)      9.6678         0.015037   
    139. D(H  19,C   6,C   0,C   1)   -171.6149         0.015037   
    140. D(N  10,C   6,C   0,C   5)   -169.5384         0.015037   
    141. D(N  10,C   6,C   0,C   1)      9.1789         0.015037   
    142. D(H  12,H   7,C   1,C   2)    153.3256         0.120887   
    143. D(H  12,H   7,C   1,C   0)    -25.6855         0.120887   
    144. D(C  11,N  10,C   6,C   0)   -179.7002         0.065901   
    145. D(H  12,N  10,C   6,H  19)   -167.8931         0.065901   
    146. D(H  12,N  10,C   6,C   0)     11.2745         0.065901   
    147. D(C  11,N  10,C   6,H  19)      1.1321         0.065901   
    148. D(H  15,C  11,N  10,H  12)     51.7472         0.016450   
    149. D(H  15,C  11,N  10,C   6)   -119.5897         0.016450   
    150. D(H  14,C  11,N  10,H  12)    169.5252         0.016450   
    151. D(H  14,C  11,N  10,C   6)     -1.8117         0.016450   
    152. D(C  13,C  11,N  10,H  12)    -67.2151         0.016450   
    153. D(C  13,C  11,N  10,C   6)    121.4480         0.016450   
    154. D(H  25,H  12,N  10,C  11)   -136.2298         0.001945   
    155. D(H  25,H  12,N  10,C   6)     33.6350         0.001945   
    156. D(H  25,H  12,H   7,C   1)   -105.4557         0.001511   
    157. D(N  10,H  12,H   7,C   1)     33.4461         0.001511   
    158. D(O  24,H  12,N  10,C   6)    120.4215         0.001945   
    159. D(H   7,H  12,N  10,C   6)    -22.9055         0.001945   
    160. D(H   7,H  12,N  10,C  11)    167.2298         0.001945   
    161. D(O  24,H  12,N  10,C  11)    -49.4433         0.001945   
    162. D(O  24,H  12,H   7,C   1)   -143.3992         0.001511   
    163. D(C  29,C  13,C  11,H  15)     59.3091         0.011245   
    164. D(C  29,C  13,C  11,H  14)    -58.6932         0.011245   
    165. D(C  29,C  13,C  11,N  10)    177.4067         0.011245   
    166. D(H  17,C  13,C  11,H  15)   -178.6678         0.011245   
    167. D(H  17,C  13,C  11,H  14)     63.3300         0.011245   
    168. D(H  16,C  13,C  11,H  15)    -62.5099         0.011245   
    169. D(H  16,C  13,C  11,H  14)    179.4879         0.011245   
    170. D(H  16,C  13,C  11,N  10)     55.5878         0.011245   
    171. D(H  17,C  13,C  11,N  10)    -60.5701         0.011245   
    172. D(H  25,O  21,O  18,H  20)    -79.9207         0.001501   
    173. D(H  23,O  21,O  18,H  20)    166.1199         0.001501   
    174. D(H  23,H  22,O  21,H  25)    114.0083         0.001759   
    175. D(H  25,H  22,O  18,H  20)    -81.9564         0.328917   
    176. D(H  23,H  22,O  18,H  20)    165.2435         0.328917   
    177. D(H  25,H  22,O  21,H  23)   -114.0083         0.001759   
    178. D(O  21,H  23,H  22,H  25)     35.9544         0.001505   
    179. D(O  21,H  23,H  22,O  18)   -178.8453         0.001505   
    180. D(H  22,H  23,O  21,H  25)   -115.6587         0.333194   
    181. D(H  26,O  24,O  21,H  22)    134.5532         0.001501   
    182. D(H  12,O  24,O  21,H  22)     17.4739         0.001501   
    183. D(H  12,O  24,O  21,H  23)    133.8479         0.001501   
    184. D(H  25,O  24,H  12,N  10)    -91.4823         0.304342   
    185. D(H  25,O  24,H  12,H   7)     51.3839         0.304342   
    186. D(H  26,O  24,H  12,H  25)   -123.8082         0.304342   
    187. D(H  26,O  24,O  21,H  23)   -109.0728         0.001501   
    188. D(H  26,O  24,H  12,N  10)    144.7095         0.304342   
    189. D(H  26,O  24,H  12,H   7)    -72.4243         0.304342   
    190. D(H  22,H  25,O  24,H  26)    135.0228         0.001990   
    191. D(H  22,H  25,O  24,H  12)     17.5493         0.001990   
    192. D(H  12,H  25,O  24,H  26)    117.4735         0.001990   
    193. D(O  24,H  25,H  22,O  21)   -179.8993         0.001506   
    194. D(O  24,H  25,H  22,O  18)      2.5673         0.001506   
    195. D(H  12,H  25,H  22,H  23)    153.0632         0.001506   
    196. D(H  12,H  25,H  22,O  18)     10.0201         0.001506   
    197. D(O  21,H  25,H  22,H  23)    -34.4904         0.001506   
    198. D(O  21,H  25,H  22,O  18)   -177.5334         0.001506   
    199. D(H  22,H  25,O  21,H  23)    117.0163         0.338389   
    200. D(H  12,H  25,O  21,H  22)     15.4502         0.338389   
    201. D(H  12,H  25,O  21,H  23)    132.4665         0.338389   
    202. D(H  22,H  25,H  12,N  10)      7.2843         0.001510   
    203. D(H  12,H  25,H  22,O  21)   -172.4464         0.001506   
    204. D(H  22,H  25,H  12,H   7)     68.8745         0.001510   
    205. D(H  22,H  25,H  12,O  24)   -165.7117         0.001510   
    206. D(O  24,H  25,H  12,N  10)    172.9960         0.001510   
    207. D(O  24,H  25,H  22,H  23)    145.6103         0.001506   
    208. D(O  24,H  25,H  12,H   7)   -125.4138         0.001510   
    209. D(O  21,H  25,H  12,N  10)     -4.5842         0.001510   
    210. D(O  21,H  25,H  12,H   7)     57.0060         0.001510   
    211. D(O  21,H  25,H  12,O  24)   -177.5802         0.001510   
    212. D(C  32,C  29,C  13,H  16)    -57.9182         0.011320   
    213. D(C  32,C  29,C  13,C  11)   -179.3157         0.011320   
    214. D(H  31,C  29,C  13,H  17)    -62.9811         0.011320   
    215. D(H  31,C  29,C  13,H  16)    179.9912         0.011320   
    216. D(H  31,C  29,C  13,C  11)     58.5937         0.011320   
    217. D(H  30,C  29,C  13,H  17)   -178.9669         0.011320   
    218. D(H  30,C  29,C  13,H  16)     64.0054         0.011320   
    219. D(C  32,C  29,C  13,H  17)     59.1095         0.011320   
    220. D(H  30,C  29,C  13,C  11)    -57.3922         0.011320   
    221. D(H  35,C  32,C  29,H  31)     61.9856         0.011395   
    222. D(H  35,C  32,C  29,H  30)    178.2680         0.011395   
    223. D(H  35,C  32,C  29,C  13)    -60.0197         0.011395   
    224. D(H  34,C  32,C  29,H  31)    -58.1278         0.011395   
    225. D(H  34,C  32,C  29,H  30)     58.1546         0.011395   
    226. D(H  34,C  32,C  29,C  13)    179.8669         0.011395   
    227. D(H  33,C  32,C  29,H  31)   -178.2392         0.011395   
    228. D(H  33,C  32,C  29,H  30)    -61.9567         0.011395   
    229. D(H  33,C  32,C  29,C  13)     59.7556         0.011395   
    -----------------------------------------------------------------

Number of atoms                         .... 36
Number of degrees of freedom            .... 229

         *************************************************************
         *                GEOMETRY OPTIMIZATION CYCLE   1            *
         *************************************************************
      -----------------------------------------------------------      
     |                   =====================                   |     
     |                           x T B                           |     
     |                   =====================                   |     
     |                         S. Grimme                         |     
     |          Mulliken Center for Theoretical Chemistry        |     
     |                    University of Bonn                     |     
      -----------------------------------------------------------      

   * xtb version 6.3.0 (49875a8) compiled by 'schneider@apollo14' on 2020-05-23

   xtb is free software: you can redistribute it and/or modify it under
   the terms of the GNU Lesser General Public License as published by
   the Free Software Foundation, either version 3 of the License, or
   (at your option) any later version.
   
   xtb is distributed in the hope that it will be useful,
   but WITHOUT ANY WARRANTY; without even the implied warranty of
   MERCHANTABILITY or FITNESS FOR A PARTICULAR PURPOSE.  See the
   GNU Lesser General Public License for more details.
   
   Cite this work as:
   * S. Grimme, C. Bannwarth, P. Shushkov, J. Chem. Theory Comput., 2017,
     13, 1989-2009. DOI: 10.1021/acs.jctc.7b00118
   * C. Bannwarth, S. Ehlert and S. Grimme., J. Chem. Theory Comput., 2019,
     15, 1652-1671. DOI: 10.1021/acs.jctc.8b01176
   * P. Pracht, E. Caldeweyher, S. Ehlert, S. Grimme, ChemRxiv, 2019, preprint.
     DOI: 10.26434/chemrxiv.8326202.v1
   
   for GFN-FF:
   * S. Spicher and S. Grimme, Angew. Chem. Int. Ed., 2020,
     DOI: 10.1002/anie.202004239
   
   for DFT-D4:
   * E. Caldeweyher, C. Bannwarth and S. Grimme, J. Chem. Phys., 2017,
     147, 034112. DOI: 10.1063/1.4993215
   * E. Caldeweyher, S. Ehlert, A. Hansen, H. Neugebauer, S. Spicher,
     C. Bannwarth and S. Grimme, J. Chem. Phys., 2019, 150, 154122.
     DOI: 10.1063/1.5090222
   
   for sTDA-xTB:
   * S. Grimme and C. Bannwarth, J. Chem. Phys., 2016, 145, 054103.
     DOI: 10.1063/1.4959605
   
   in the mass-spec context:
   * V. Asgeirsson, C. Bauer and S. Grimme, Chem. Sci., 2017, 8, 4879.
     DOI: 10.1039/c7sc00601b
   * J. Koopman and S. Grimme, ACS Omega 2019, 4, 12, 15120-15133.
     DOI: 10.1021/acsomega.9b02011
   
   for metadynamics refer to:
   * S. Grimme, J. Chem. Theory Comput., 2019, 155, 2847-2862
     DOI: 10.1021/acs.jctc.9b00143
   
   with help from (in alphabetical order)
   C. Bannwarth, F. Bohle, G. Brandenburg, E. Caldeweyher, M. Checinski,
   S. Dohm, S. Ehlert, S. Ehrlich, F. März, H. Neugebauer, J. Pisarek,
   P. Pracht, P. Shushkov, and S. Spicher.
   
 * started run on 2020/06/19 at 17:09:10.457     

           -------------------------------------------------
          |                Calculation Setup                |
           -------------------------------------------------

          program call               : /opt/orca/otool_xtb opt+freq_XTB.xyz --grad -c 0 -u 0 -P 12 --namespace opt+freq --gbsa CH2Cl2
          calculation namespace      : opt+freq
          coordinate file            : opt+freq_XTB.xyz
          number of atoms            :                    36
          number of electrons        :                    88
          charge                     :                     0
          spin                       :                   0.0
          first test random number   :      0.31831061618747

   ID    Z sym.   atoms
    1    6 C      1-7, 12, 14, 30, 33
    2    1 H      8-10, 13, 15-18, 20, 21, 23, 24, 26-29, 31, 32, 34-36
    3    7 N      11
    4    8 O      19, 22, 25

molecular fragmentation (1/2 indicates fragments):
111111111111211111212222222111111111
# atoms in fragment 1/2:    27     9
 fragment masses (1/2) :      161.24       54.05
CMA distance (Bohr)    :   6.572
constraining FC (au)   :  0.0500
########################################################################
[WARNING] Please study the warnings concerning your input carefully
-1- prog_main_parseArguments: Process number higher than OMP_NUM_THREADS, I hope you know what you are doing.
########################################################################
 Solvent             : CH2Cl2
 Using internal parameter file: .param_gbsa2_CH2Cl2
 Gsolv ref. state (COSMO-RS): gsolv [1 M gas/solution]
 temperature (mdtemp)       :    298.14999999999998     
 dielectric constant        :    8.9299999999999997     
 rho                        :    1.3300000000000003     
 mass                       :    84.930000000000007     
 surface tension            :    15.568945408385856     
 probe radius               :   0.71987590000000001     
 Gshift (Eh)                :    4.4408291734517593E-003
 c1                         :    1.4917377599999999     
 soset                      :    0.0000000000000000     
 HB correction              :  F

           -------------------------------------------------
          |                 G F N 2 - x T B                 |
           -------------------------------------------------

        Reference                      10.1021/acs.jctc.8b01176
      * Hamiltonian:
        H0-scaling (s, p, d)           1.850000    2.230000    2.230000
        zeta-weighting                 0.500000
      * Dispersion:
        s8                             2.700000
        a1                             0.520000
        a2                             5.000000
        s9                             5.000000
      * Repulsion:
        kExp                           1.500000    1.000000
        rExp                           1.000000
      * Coulomb:
        alpha                          2.000000
        third order                    shell-resolved
        anisotropic                    true
        a3                             3.000000
        a5                             4.000000
        cn-shift                       1.200000
        cn-exp                         4.000000
        max-rad                        5.000000


          ...................................................
          :                      SETUP                      :
          :.................................................:
          :  # basis functions                  81          :
          :  # atomic orbitals                  81          :
          :  # shells                           51          :
          :  # electrons                        88          :
          :  max. iterations                   250          :
          :  Hamiltonian                  GFN2-xTB          :
          :  restarted?                      false          :
          :  GBSA solvation                   true          :
          :  PC potential                    false          :
          :  electronic temp.          300.0000000     K    :
          :  accuracy                    1.0000000          :
          :  -> integral cutoff          0.2500000E+02      :
          :  -> integral neglect         0.1000000E-07      :
          :  -> SCF convergence          0.1000000E-05 Eh   :
          :  -> wf. convergence          0.1000000E-03 e    :
          :  Broyden damping             0.4000000          :
          ...................................................

 iter      E             dE          RMSdq      gap      omega  full diag
   1    -49.9627374 -0.499627E+02  0.356E+00    3.29       0.0  T
   2    -49.9982687 -0.355312E-01  0.213E+00    3.36       1.0  T
   3    -49.9916657  0.660297E-02  0.785E-01    2.98       1.0  T
   4    -50.0022209 -0.105551E-01  0.312E-01    3.17       1.0  T
   5    -50.0040407 -0.181981E-02  0.690E-02    3.11       1.0  T
   6    -50.0040539 -0.132194E-04  0.322E-02    3.12       1.0  T
   7    -50.0040605 -0.663839E-05  0.153E-02    3.12       1.1  T
   8    -50.0040630 -0.244233E-05  0.414E-03    3.12       4.0  T
   9    -50.0040632 -0.199753E-06  0.164E-03    3.12      10.2  T
  10    -50.0040632 -0.318767E-08  0.869E-04    3.12      19.2  T
  11    -50.0040632 -0.985960E-08  0.294E-04    3.12      56.8  T

   *** convergence criteria satisfied after 11 iterations ***

         #    Occupation            Energy/Eh            Energy/eV
      -------------------------------------------------------------
         1        2.0000           -0.6795172             -18.4906
       ...           ...                  ...                  ...
        38        2.0000           -0.4325794             -11.7711
        39        2.0000           -0.4299214             -11.6988
        40        2.0000           -0.4286651             -11.6646
        41        2.0000           -0.4263390             -11.6013
        42        2.0000           -0.4136043             -11.2547
        43        2.0000           -0.4057413             -11.0408
        44        2.0000           -0.3938425             -10.7170 (HOMO)
        45                         -0.2792335              -7.5983 (LUMO)
        46                         -0.2333195              -6.3489
        47                         -0.1968742              -5.3572
        48                         -0.0943874              -2.5684
        49                          0.0141232               0.3843
       ...                                ...                  ...
        81                          0.6469882              17.6054
      -------------------------------------------------------------
                  HL-Gap            0.1146091 Eh            3.1187 eV
             Fermi-level           -0.3365380 Eh           -9.1577 eV

 SCC (total)                   0 d,  0 h,  0 min,  0.140 sec
 SCC setup                      ...        0 min,  0.001 sec (  1.041%)
 Dispersion                     ...        0 min,  0.001 sec (  0.362%)
 classical contributions        ...        0 min,  0.000 sec (  0.121%)
 integral evaluation            ...        0 min,  0.020 sec ( 14.147%)
 iterations                     ...        0 min,  0.055 sec ( 39.135%)
 molecular gradient             ...        0 min,  0.033 sec ( 23.212%)
 printout                       ...        0 min,  0.031 sec ( 21.966%)

         :::::::::::::::::::::::::::::::::::::::::::::::::::::
         ::                     SUMMARY                     ::
         :::::::::::::::::::::::::::::::::::::::::::::::::::::
         :: total energy             -49.367363343452 Eh    ::
         :: total w/o Gsasa/hb       -49.348041093082 Eh    ::
         :: gradient norm              0.024522918708 Eh/a0 ::
         :: HOMO-LUMO gap              3.118671468135 eV    ::
         ::.................................................::
         :: SCC energy               -50.023385420927 Eh    ::
         :: -> isotropic ES            0.116085255328 Eh    ::
         :: -> anisotropic ES         -0.007194056684 Eh    ::
         :: -> anisotropic XC          0.026197806362 Eh    ::
         :: -> dispersion             -0.027623085154 Eh    ::
         :: -> Gsolv                  -0.028523245156 Eh    ::
         ::    -> Gborn               -0.009200994786 Eh    ::
         ::    -> Gsasa               -0.023763079543 Eh    ::
         ::    -> Ghb                  0.000000000000 Eh    ::
         ::    -> Gshift               0.004440829173 Eh    ::
         :: repulsion energy           0.655835270597 Eh    ::
         :: add. restraining           0.000000000000 Eh    ::
         :::::::::::::::::::::::::::::::::::::::::::::::::::::

           -------------------------------------------------
          |                Property Printout                |
           -------------------------------------------------

    * Orbital Energies and Occupations

         #    Occupation            Energy/Eh            Energy/eV
      -------------------------------------------------------------
         1        2.0000           -0.6795172             -18.4906
       ...           ...                  ...                  ...
        32        2.0000           -0.4653985             -12.6641
        33        2.0000           -0.4488953             -12.2151
        34        2.0000           -0.4452962             -12.1171
        35        2.0000           -0.4439931             -12.0817
        36        2.0000           -0.4402337             -11.9794
        37        2.0000           -0.4401011             -11.9758
        38        2.0000           -0.4325794             -11.7711
        39        2.0000           -0.4299214             -11.6988
        40        2.0000           -0.4286651             -11.6646
        41        2.0000           -0.4263390             -11.6013
        42        2.0000           -0.4136043             -11.2547
        43        2.0000           -0.4057413             -11.0408
        44        2.0000           -0.3938425             -10.7170 (HOMO)
        45                         -0.2792335              -7.5983 (LUMO)
        46                         -0.2333195              -6.3489
        47                         -0.1968742              -5.3572
        48                         -0.0943874              -2.5684
        49                          0.0141232               0.3843
        50                          0.0376374               1.0242
        51                          0.0909781               2.4756
        52                          0.0942294               2.5641
        53                          0.0986609               2.6847
        54                          0.1160093               3.1568
        55                          0.1176686               3.2019
       ...                                ...                  ...
        81                          0.6469882              17.6054
      -------------------------------------------------------------
                  HL-Gap            0.1146091 Eh            3.1187 eV
             Fermi-level           -0.3365380 Eh           -9.1577 eV

     #   Z        covCN         q      C6AA      α(0)
     1   6 C      2.969     0.005    27.914     8.666
     2   6 C      2.918    -0.028    28.707     8.786
     3   6 C      2.914    -0.028    28.698     8.784
     4   6 C      2.915    -0.026    28.653     8.778
     5   6 C      2.913    -0.030    28.756     8.793
     6   6 C      2.923    -0.030    28.757     8.794
     7   6 C      2.854     0.080    26.215     8.392
     8   1 H      0.926     0.063     2.163     2.300
     9   1 H      0.925     0.040     2.452     2.449
    10   1 H      0.925     0.045     2.382     2.414
    11   7 N      1.825    -0.257    27.544     7.777
    12   6 C      3.763     0.016    20.346     6.430
    13   1 H      0.801     0.319     0.666     1.282
    14   6 C      3.802    -0.060    21.653     6.625
    15   1 H      0.924     0.014     2.821     2.627
    16   1 H      0.924     0.049     2.336     2.390
    17   1 H      0.924     0.048     2.348     2.396
    18   1 H      0.924     0.036     2.503     2.474
    19   8 O      1.609    -0.629    25.887     6.867
    20   1 H      0.924     0.010     2.892     2.659
    21   1 H      0.805     0.281     0.781     1.388
    22   8 O      1.607    -0.624    25.761     6.850
    23   1 H      0.803     0.314     0.681     1.296
    24   1 H      0.805     0.289     0.754     1.364
    25   8 O      1.605    -0.621    25.708     6.843
    26   1 H      0.803     0.325     0.652     1.268
    27   1 H      0.805     0.290     0.752     1.362
    28   1 H      0.925     0.049     2.330     2.387
    29   1 H      0.925     0.043     2.410     2.428
    30   6 C      3.800    -0.053    21.530     6.607
    31   1 H      0.924     0.034     2.532     2.488
    32   1 H      0.924     0.031     2.572     2.508
    33   6 C      3.750    -0.103    22.528     6.769
    34   1 H      0.924     0.037     2.485     2.465
    35   1 H      0.924     0.037     2.489     2.467
    36   1 H      0.924     0.035     2.510     2.478

 Mol. C6AA /au·bohr⁶  :      10951.559926
 Mol. C8AA /au·bohr⁸  :     241505.196230
 Mol. α(0) /au        :        160.651747


Wiberg/Mayer (AO) data.
largest (>0.10) Wiberg bond orders for each atom
          total WBO             WBO to atom ...
     1  C   3.988        C    6 1.377    C    2 1.366    C    7 1.085
     2  C   3.989        C    3 1.463    C    1 1.366    H    8 0.962    C    5 0.106
     3  C   3.991        C    2 1.463    C    4 1.423    H   28 0.970    C    6 0.105
     4  C   3.987        C    5 1.436    C    3 1.423    H   10 0.971
     5  C   3.991        C    6 1.451    C    4 1.436    H   29 0.970    C    2 0.106
     6  C   3.987        C    5 1.451    C    1 1.377    H    9 0.968    C    3 0.105
     7  C   3.966        N   11 1.830    C    1 1.085    H   20 0.942
     8  H   0.996        C    2 0.962
     9  H   0.998        C    6 0.968
    10  H   0.997        C    4 0.971
    11  N   3.129        C    7 1.830    C   12 1.018
    12  C   3.982        N   11 1.018    C   14 0.989    H   15 0.966    H   16 0.956
    13  H   0.898        O   25 0.823
    14  C   3.991        C   30 1.006    C   12 0.989    H   18 0.977    H   17 0.975
    15  H   1.000        C   12 0.966
    16  H   0.994        C   12 0.956
    17  H   0.998        C   14 0.975
    18  H   0.999        C   14 0.977
    19  O   1.801        H   21 0.916    H   23 0.860
    20  H   0.999        C    7 0.942
    21  H   0.921        O   19 0.916
    22  O   1.843        H   24 0.915    H   26 0.838
    23  H   0.902        O   19 0.860
    24  H   0.916        O   22 0.915
    25  O   1.856        H   27 0.913    H   13 0.823
    26  H   0.895        O   22 0.838
    27  H   0.916        O   25 0.913
    28  H   0.997        C    3 0.970
    29  H   0.998        C    5 0.970
    30  C   3.996        C   33 1.019    C   14 1.006    H   32 0.978    H   31 0.978
    31  H   0.999        C   30 0.978
    32  H   0.999        C   30 0.978
    33  C   3.995        C   30 1.019    H   36 0.988    H   34 0.988    H   35 0.987
    34  H   0.999        C   33 0.988
    35  H   0.998        C   33 0.987
    36  H   0.999        C   33 0.988
Topologies differ in total number of bonds
Writing topology from bond orders to xtbtopo.mol

molecular dipole:
                 x           y           z       tot (Debye)
 q only:       -0.788      -1.039       0.844
   full:       -0.862      -1.532       0.845       4.957
molecular quadrupole (traceless):
                xx          xy          yy          xz          yz          zz
 q only:        7.879      -2.575      -4.565       6.565       6.686      -3.314
  q+dip:        7.995      -6.515      -3.793       7.906      12.155      -4.202
   full:        7.107      -4.921      -3.380       6.952       9.607      -3.726


           -------------------------------------------------
          | TOTAL ENERGY              -49.367363343452 Eh   |
          | GRADIENT NORM               0.024522918708 Eh/α |
          | HOMO-LUMO GAP               3.118671468135 eV   |
           -------------------------------------------------

------------------------------------------------------------------------
 * finished run on 2020/06/19 at 17:09:10.676     
------------------------------------------------------------------------
 total:
 * wall-time:     0 d,  0 h,  0 min,  0.218 sec
 *  cpu-time:     0 d,  0 h,  0 min,  2.271 sec
 * ratio c/w:    10.403 speedup
 SCF:
 * wall-time:     0 d,  0 h,  0 min,  0.144 sec
 *  cpu-time:     0 d,  0 h,  0 min,  1.547 sec
 * ratio c/w:    10.729 speedup


-------------------------   --------------------
FINAL SINGLE POINT ENERGY       -49.367363343450
-------------------------   --------------------

------------------------------------------------------------------------------
                         ORCA GEOMETRY RELAXATION STEP
------------------------------------------------------------------------------

Reading the OPT-File                    .... done
Getting information on internals        .... done
Copying old internal coords+grads       .... done
Making the new internal coordinates     .... (new redundants).... done
Validating the new internal coordinates .... (new redundants).... done
Calculating the B-matrix                .... done
Calculating the G,G- and P matrices     .... done
Transforming gradient to internals      .... done
Projecting the internal gradient        .... done
Number of atoms                         ....  36
Number of internal coordinates          .... 229
Current Energy                          ....   -49.367363343 Eh
Current gradient norm                   ....     0.024522919 Eh/bohr
Maximum allowed component of the step   ....  0.300
Current trust radius                    ....  0.300
Evaluating the initial hessian          ....  (Almloef) done
Projecting the Hessian                  .... done
Forming the augmented Hessian           .... done
Diagonalizing the augmented Hessian     .... done
Last element of RFO vector              ....  0.992369054
Lowest eigenvalues of augmented Hessian:
 -0.001773175  0.001704843  0.010360656  0.010667747  0.011245577
Length of the computed step             ....  0.124251284
The final length of the internal step   ....  0.124251284
Converting the step to cartesian space:
 Initial RMS(Int)=    0.0082107560
Transforming coordinates:
 Iter   0:  RMS(Cart)=    0.0364333683 RMS(Int)=    0.8295679248
 Iter   1:  RMS(Cart)=    0.0002157623 RMS(Int)=    0.0000797332
 Iter   2:  RMS(Cart)=    0.0000027794 RMS(Int)=    0.0000013775
 Iter   3:  RMS(Cart)=    0.0000000462 RMS(Int)=    0.0000000190
done
Storing new coordinates                 .... done

                                .--------------------.
          ----------------------|Geometry convergence|-------------------------
          Item                value                   Tolerance       Converged
          ---------------------------------------------------------------------
          RMS gradient        0.0016961664            0.0001000000      NO
          MAX gradient        0.0130829287            0.0003000000      NO
          RMS step            0.0082107560            0.0020000000      NO
          MAX step            0.0412075468            0.0040000000      NO
          ........................................................
          Max(Bonds)      0.0218      Max(Angles)    0.65
          Max(Dihed)        0.99      Max(Improp)    0.00
          ---------------------------------------------------------------------

The optimization has not yet converged - more geometry cycles are needed


    ---------------------------------------------------------------------------
                         Redundant Internal Coordinates
                            (Angstroem and degrees)

        Definition                    Value    dE/dq     Step     New-Value
    ----------------------------------------------------------------------------
     1. B(C   1,C   0)                1.4004  0.003730 -0.0042    1.3962   
     2. B(C   2,C   1)                1.3858  0.004851 -0.0040    1.3818   
     3. B(C   3,C   2)                1.3944  0.006765 -0.0057    1.3886   
     4. B(C   4,C   3)                1.3906  0.005059 -0.0042    1.3864   
     5. B(C   5,C   4)                1.3898  0.007050 -0.0059    1.3838   
     6. B(C   5,C   0)                1.3985  0.002921 -0.0026    1.3959   
     7. B(C   6,C   0)                1.4675  0.008915 -0.0116    1.4560   
     8. B(H   7,C   1)                1.0791  0.002445 -0.0029    1.0762   
     9. B(H   8,C   5)                1.0826  0.001331 -0.0019    1.0807   
    10. B(H   9,C   3)                1.0820  0.001636 -0.0023    1.0796   
    11. B(N  10,C   6)                1.2700  0.005918 -0.0039    1.2660   
    12. B(C  11,N  10)                1.4559  0.013083 -0.0157    1.4402   
    13. B(H  12,N  10)                1.7744  0.001257 -0.0125    1.7619   
    14. B(H  12,H   7)                2.2295  0.001275 -0.0151    2.2144   
    15. B(C  13,C  11)                1.5287  0.000691 -0.0010    1.5277   
    16. B(H  14,C  11)                1.0963 -0.002550  0.0038    1.1001   
    17. B(H  15,C  11)                1.0938 -0.000823  0.0012    1.0950   
    18. B(H  16,C  13)                1.0936  0.000851 -0.0013    1.0923   
    19. B(H  17,C  13)                1.0941  0.000010 -0.0000    1.0940   
    20. B(H  19,C   6)                1.0952 -0.001849  0.0028    1.0979   
    21. B(H  20,O  18)                0.9623  0.001211 -0.0012    0.9610   
    22. B(H  22,O  18)                0.9762  0.000955 -0.0010    0.9752   
    23. B(H  22,O  21)                1.8454 -0.000143 -0.0204    1.8250   
    24. B(H  23,O  21)                0.9639  0.002077 -0.0033    0.9606   
    25. B(H  23,H  22)                2.3529  0.001196 -0.0218    2.3311   
    26. B(O  24,H  12)                0.9938  0.004007 -0.0056    0.9881   
    27. B(H  25,O  21)                0.9825  0.001352 -0.0025    0.9800   
    28. B(H  25,H  22)                2.3402  0.000623 -0.0207    2.3195   
    29. B(H  25,O  24)                1.7619 -0.000421 -0.0080    1.7539   
    30. B(H  25,H  12)                2.2665  0.001106 -0.0088    2.2577   
    31. B(H  26,O  24)                0.9640  0.002298 -0.0024    0.9616   
    32. B(H  27,C   2)                1.0815  0.001629 -0.0023    1.0792   
    33. B(H  28,C   4)                1.0817  0.001467 -0.0021    1.0796   
    34. B(C  29,C  13)                1.5277  0.002492 -0.0035    1.5243   
    35. B(H  30,C  29)                1.0941  0.000397 -0.0006    1.0935   
    36. B(H  31,C  29)                1.0942  0.000293 -0.0004    1.0937   
    37. B(C  32,C  29)                1.5268  0.004117 -0.0057    1.5210   
    38. B(H  33,C  32)                1.0926  0.002494 -0.0037    1.0889   
    39. B(H  34,C  32)                1.0917  0.002523 -0.0037    1.0880   
    40. B(H  35,C  32)                1.0926  0.002380 -0.0035    1.0891   
    41. A(C   5,C   0,C   6)          118.22  0.000646    0.11    118.33   
    42. A(C   1,C   0,C   5)          118.98  0.000730    0.01    118.99   
    43. A(C   1,C   0,C   6)          122.78 -0.001385   -0.11    122.68   
    44. A(C   0,C   1,H   7)          119.85  0.000038   -0.08    119.77   
    45. A(C   0,C   1,C   2)          120.30  0.000138   -0.02    120.28   
    46. A(C   2,C   1,H   7)          119.84 -0.000185    0.11    119.95   
    47. A(C   1,C   2,H  27)          119.69 -0.000004    0.02    119.71   
    48. A(C   3,C   2,H  27)          120.01  0.000116   -0.00    120.00   
    49. A(C   1,C   2,C   3)          120.30 -0.000113   -0.01    120.29   
    50. A(C   2,C   3,H   9)          120.03  0.000169   -0.02    120.01   
    51. A(C   4,C   3,H   9)          120.11  0.000207   -0.02    120.08   
    52. A(C   2,C   3,C   4)          119.86 -0.000376    0.04    119.90   
    53. A(C   3,C   4,H  28)          120.18  0.000237   -0.02    120.16   
    54. A(C   3,C   4,C   5)          119.89 -0.000663    0.07    119.96   
    55. A(C   5,C   4,H  28)          119.94  0.000426   -0.05    119.89   
    56. A(C   0,C   5,H   8)          119.38 -0.000581    0.12    119.50   
    57. A(C   0,C   5,C   4)          120.66  0.000284   -0.09    120.58   
    58. A(C   4,C   5,H   8)          119.95  0.000295   -0.03    119.93   
    59. A(N  10,C   6,H  19)          120.32 -0.001449    0.36    120.68   
    60. A(C   0,C   6,H  19)          115.15  0.001762   -0.15    115.00   
    61. A(C   0,C   6,N  10)          124.52 -0.000310   -0.21    124.31   
    62. A(C   1,H   7,H  12)          129.16  0.001216    0.12    129.28   
    63. A(C   6,N  10,H  12)          131.50 -0.001160    0.38    131.88   
    64. A(C   6,N  10,C  11)          118.96 -0.001075    0.14    119.10   
    65. A(C  11,N  10,H  12)          108.81  0.002271   -0.57    108.24   
    66. A(N  10,C  11,H  14)          111.40 -0.001045    0.12    111.52   
    67. A(H  14,C  11,H  15)          107.72 -0.000428    0.51    108.22   
    68. A(C  13,C  11,H  15)          108.91 -0.001392    0.24    109.15   
    69. A(N  10,C  11,H  15)          107.48  0.000541   -0.33    107.15   
    70. A(C  13,C  11,H  14)          110.28 -0.000411    0.09    110.38   
    71. A(N  10,C  11,C  13)          110.93  0.002643   -0.60    110.33   
    72. A(N  10,H  12,H  25)          132.03  0.000131    0.11    132.14   
    73. A(H   7,H  12,H  25)           70.52 -0.001548    0.22     70.74   
    74. A(O  24,H  12,H  25)           47.89 -0.000128   -0.10     47.79   
    75. A(H   7,H  12,N  10)           83.69  0.001808   -0.21     83.48   
    76. A(N  10,H  12,O  24)          174.80 -0.000499    0.23    175.03   
    77. A(H   7,H  12,O  24)          100.47 -0.001434    0.04    100.51   
    78. A(H  16,C  13,H  17)          106.79 -0.000352    0.50    107.29   
    79. A(C  11,C  13,H  17)          108.99 -0.000737    0.09    109.08   
    80. A(C  11,C  13,C  29)          112.54  0.002470   -0.58    111.96   
    81. A(C  11,C  13,H  16)          108.92 -0.000729    0.07    108.99   
    82. A(H  16,C  13,C  29)          109.66 -0.000370   -0.03    109.63   
    83. A(H  17,C  13,C  29)          109.78 -0.000432   -0.00    109.78   
    84. A(H  20,O  18,H  22)          104.09 -0.001975    0.35    104.45   
    85. A(H  22,O  21,H  23)          109.74 -0.000054   -0.06    109.68   
    86. A(H  23,O  21,H  25)          105.17  0.000035    0.08    105.25   
    87. A(H  22,O  21,H  25)          107.76 -0.000100   -0.03    107.73   
    88. A(H  23,H  22,H  25)           38.47  0.000515    0.26     38.73   
    89. A(O  21,H  22,H  25)           23.57  0.000270    0.16     23.73   
    90. A(O  18,H  22,H  25)          157.35 -0.000136   -0.41    156.94   
    91. A(O  21,H  22,H  23)           22.68  0.000372    0.15     22.83   
    92. A(O  18,H  22,H  23)          156.07 -0.000435    0.08    156.15   
    93. A(O  21,H  23,H  22)           47.58 -0.000318   -0.09     47.49   
    94. A(H  12,O  24,H  25)          107.37 -0.000860    0.17    107.54   
    95. A(H  12,O  24,H  26)          105.57  0.000067    0.18    105.75   
    96. A(H  25,O  24,H  26)          115.56  0.000145   -0.07    115.48   
    97. A(H  12,H  25,O  24)           24.74  0.000988   -0.07     24.67   
    98. A(H  12,H  25,O  21)          151.31 -0.001044    0.27    151.59   
    99. A(H  22,H  25,O  24)          127.23  0.000088    0.28    127.51   
   100. A(H  12,H  25,H  22)          103.40 -0.000847    0.40    103.81   
   101. A(O  21,H  25,H  22)           48.68 -0.000170   -0.13     48.54   
   102. A(H  31,C  29,C  32)          109.53 -0.000464   -0.03    109.50   
   103. A(H  30,C  29,C  32)          109.53 -0.000438   -0.01    109.52   
   104. A(C  13,C  29,C  32)          112.69  0.002729   -0.65    112.03   
   105. A(H  30,C  29,H  31)          106.35 -0.000488    0.62    106.97   
   106. A(C  13,C  29,H  31)          109.38 -0.000710    0.05    109.44   
   107. A(C  13,C  29,H  30)          109.16 -0.000816    0.10    109.26   
   108. A(H  34,C  32,H  35)          107.67 -0.001882    0.32    108.00   
   109. A(H  33,C  32,H  35)          107.59 -0.001515    0.34    107.93   
   110. A(C  29,C  32,H  35)          111.19  0.001315   -0.23    110.96   
   111. A(H  33,C  32,H  34)          107.74 -0.001776    0.30    108.04   
   112. A(C  29,C  32,H  34)          111.41  0.002397   -0.47    110.94   
   113. A(C  29,C  32,H  33)          111.07  0.001155   -0.21    110.86   
   114. D(H   7,C   1,C   0,C   5)    179.75 -0.000496    0.61    180.37   
   115. D(H   7,C   1,C   0,C   6)      1.04 -0.000043   -0.23      0.81   
   116. D(C   2,C   1,C   0,C   6)   -177.96  0.000515   -0.77   -178.73   
   117. D(C   2,C   1,C   0,C   5)      0.74  0.000063    0.08      0.82   
   118. D(H  27,C   2,C   1,H   7)      0.29  0.000330   -0.29     -0.00   
   119. D(H  27,C   2,C   1,C   0)    179.30 -0.000226    0.24    179.54   
   120. D(C   3,C   2,C   1,C   0)     -0.09 -0.000033   -0.18     -0.27   
   121. D(C   3,C   2,C   1,H   7)   -179.10  0.000523   -0.71   -179.81   
   122. D(C   4,C   3,C   2,C   1)     -0.34  0.000019    0.09     -0.25   
   123. D(H   9,C   3,C   2,H  27)      0.23  0.000114   -0.19      0.04   
   124. D(H   9,C   3,C   2,C   1)    179.61 -0.000080    0.23    179.85   
   125. D(C   4,C   3,C   2,H  27)   -179.73  0.000213   -0.33   -180.06   
   126. D(C   5,C   4,C   3,C   2)      0.12 -0.000020    0.09      0.20   
   127. D(H  28,C   4,C   3,H   9)      0.05 -0.000004    0.02      0.06   
   128. D(H  28,C   4,C   3,C   2)   -180.00 -0.000103    0.16   -179.84   
   129. D(C   5,C   4,C   3,H   9)   -179.84  0.000079   -0.05   -179.90   
   130. D(H   8,C   5,C   4,C   3)    179.67 -0.000153    0.17    179.84   
   131. D(C   0,C   5,C   4,H  28)   -179.34  0.000124   -0.25   -179.59   
   132. D(C   4,C   5,C   0,C   6)    177.79 -0.000527    0.90    178.70   
   133. D(H   8,C   5,C   4,H  28)     -0.22 -0.000071    0.10     -0.11   
   134. D(H   8,C   5,C   0,C   1)    179.90  0.000118   -0.25    179.65   
   135. D(C   0,C   5,C   4,C   3)      0.55  0.000041   -0.18      0.37   
   136. D(C   4,C   5,C   0,C   1)     -0.98 -0.000068    0.10     -0.87   
   137. D(H   8,C   5,C   0,C   6)     -1.33 -0.000341    0.55     -0.78   
   138. D(H  19,C   6,C   0,C   5)      9.67  0.000268   -0.91      8.76   
   139. D(H  19,C   6,C   0,C   1)   -171.61 -0.000180   -0.07   -171.69   
   140. D(N  10,C   6,C   0,C   5)   -169.54  0.000024   -0.66   -170.20   
   141. D(N  10,C   6,C   0,C   1)      9.18 -0.000424    0.18      9.35   
   142. D(H  12,H   7,C   1,C   2)    153.33 -0.000401    0.50    153.83   
   143. D(H  12,H   7,C   1,C   0)    -25.69  0.000152   -0.03    -25.71   
   144. D(C  11,N  10,C   6,C   0)   -179.70  0.000227   -0.33   -180.03   
   145. D(H  12,N  10,C   6,H  19)   -167.89 -0.000556    0.42   -167.47   
   146. D(H  12,N  10,C   6,C   0)     11.27 -0.000276    0.16     11.43   
   147. D(C  11,N  10,C   6,H  19)      1.13 -0.000052   -0.06      1.07   
   148. D(H  15,C  11,N  10,H  12)     51.75  0.000396   -0.48     51.27   
   149. D(H  15,C  11,N  10,C   6)   -119.59  0.000275   -0.17   -119.76   
   150. D(H  14,C  11,N  10,H  12)    169.53 -0.000382    0.00    169.53   
   151. D(H  14,C  11,N  10,C   6)     -1.81 -0.000503    0.31     -1.51   
   152. D(C  13,C  11,N  10,H  12)    -67.22  0.000243   -0.22    -67.43   
   153. D(C  13,C  11,N  10,C   6)    121.45  0.000122    0.08    121.53   
   154. D(H  25,H  12,N  10,C  11)   -136.23 -0.000191    0.12   -136.11   
   155. D(H  25,H  12,N  10,C   6)     33.63  0.000028   -0.28     33.36   
   156. D(H  25,H  12,H   7,C   1)   -105.46  0.000459    0.03   -105.43   
   157. D(N  10,H  12,H   7,C   1)     33.45  0.000303    0.17     33.62   
   158. D(O  24,H  12,N  10,C   6)    120.42 -0.000088   -0.13    120.29   
   159. D(H   7,H  12,N  10,C   6)    -22.91  0.000408   -0.30    -23.20   
   160. D(H   7,H  12,N  10,C  11)    167.23  0.000189    0.10    167.33   
   161. D(O  24,H  12,N  10,C  11)    -49.44 -0.000307    0.27    -49.17   
   162. D(O  24,H  12,H   7,C   1)   -143.40  0.000628    0.02   -143.38   
   163. D(C  29,C  13,C  11,H  15)     59.31 -0.001001    0.62     59.93   
   164. D(C  29,C  13,C  11,H  14)    -58.69  0.000596   -0.19    -58.88   
   165. D(C  29,C  13,C  11,N  10)    177.41  0.000370    0.01    177.42   
   166. D(H  17,C  13,C  11,H  15)   -178.67 -0.000425    0.30   -178.37   
   167. D(H  17,C  13,C  11,H  14)     63.33  0.001172   -0.51     62.82   
   168. D(H  16,C  13,C  11,H  15)    -62.51 -0.001653    0.99    -61.52   
   169. D(H  16,C  13,C  11,H  14)    179.49 -0.000055    0.18    179.67   
   170. D(H  16,C  13,C  11,N  10)     55.59 -0.000282    0.38     55.97   
   171. D(H  17,C  13,C  11,N  10)    -60.57  0.000946   -0.31    -60.88   
   172. D(H  25,O  21,O  18,H  20)    -79.92  0.000114   -0.33    -80.25   
   173. D(H  23,O  21,O  18,H  20)    166.12  0.000140   -0.37    165.75   
   174. D(H  23,H  22,O  21,H  25)    114.01 -0.000040    0.05    114.05   
   175. D(H  25,H  22,O  18,H  20)    -81.96  0.000119   -0.02    -81.98   
   176. D(H  23,H  22,O  18,H  20)    165.24 -0.000094   -0.02    165.22   
   177. D(H  25,H  22,O  21,H  23)   -114.01  0.000040   -0.05   -114.05   
   178. D(O  21,H  23,H  22,H  25)     35.95 -0.000008    0.01     35.97   
   179. D(O  21,H  23,H  22,O  18)   -178.85  0.000278   -0.44   -179.29   
   180. D(H  22,H  23,O  21,H  25)   -115.66  0.000124    0.02   -115.64   
   181. D(H  26,O  24,O  21,H  22)    134.55 -0.000266    0.76    135.31   
   182. D(H  12,O  24,O  21,H  22)     17.47  0.000172    0.38     17.86   
   183. D(H  12,O  24,O  21,H  23)    133.85  0.000050    0.31    134.16   
   184. D(H  25,O  24,H  12,N  10)    -91.48 -0.000357    0.04    -91.44   
   185. D(H  25,O  24,H  12,H   7)     51.38 -0.000812    0.22     51.61   
   186. D(H  26,O  24,H  12,H  25)   -123.81  0.000259   -0.11   -123.91   
   187. D(H  26,O  24,O  21,H  23)   -109.07 -0.000389    0.68   -108.39   
   188. D(H  26,O  24,H  12,N  10)    144.71 -0.000098   -0.07    144.64   
   189. D(H  26,O  24,H  12,H   7)    -72.42 -0.000553    0.12    -72.31   
   190. D(H  22,H  25,O  24,H  26)    135.02 -0.000211    0.83    135.85   
   191. D(H  22,H  25,O  24,H  12)     17.55  0.000221    0.53     18.07   
   192. D(H  12,H  25,O  24,H  26)    117.47 -0.000432    0.30    117.78   
   193. D(O  24,H  25,H  22,O  21)   -179.90 -0.000090   -0.25   -180.15   
   194. D(O  24,H  25,H  22,O  18)      2.57 -0.000087   -0.64      1.92   
   195. D(H  12,H  25,H  22,H  23)    153.06  0.000076   -0.04    153.02   
   196. D(H  12,H  25,H  22,O  18)     10.02  0.000258   -0.43      9.59   
   197. D(O  21,H  25,H  22,H  23)    -34.49 -0.000179   -0.00    -34.49   
   198. D(O  21,H  25,H  22,O  18)   -177.53  0.000003   -0.39   -177.92   
   199. D(H  22,H  25,O  21,H  23)    117.02 -0.000092   -0.04    116.97   
   200. D(H  12,H  25,O  21,H  22)     15.45  0.000061    0.02     15.47   
   201. D(H  12,H  25,O  21,H  23)    132.47 -0.000031   -0.02    132.44   
   202. D(H  22,H  25,H  12,N  10)      7.28 -0.000578    0.69      7.97   
   203. D(H  12,H  25,H  22,O  21)   -172.45  0.000255   -0.04   -172.49   
   204. D(H  22,H  25,H  12,H   7)     68.87  0.000340    0.52     69.40   
   205. D(H  22,H  25,H  12,O  24)   -165.71  0.000110    0.39   -165.32   
   206. D(O  24,H  25,H  12,N  10)    173.00 -0.000688    0.30    173.29   
   207. D(O  24,H  25,H  22,H  23)    145.61 -0.000269   -0.25    145.36   
   208. D(O  24,H  25,H  12,H   7)   -125.41  0.000230    0.13   -125.28   
   209. D(O  21,H  25,H  12,N  10)     -4.58 -0.000551    0.68     -3.91   
   210. D(O  21,H  25,H  12,H   7)     57.01  0.000367    0.51     57.52   
   211. D(O  21,H  25,H  12,O  24)   -177.58  0.000137    0.38   -177.20   
   212. D(C  32,C  29,C  13,H  16)    -57.92  0.000501   -0.44    -58.36   
   213. D(C  32,C  29,C  13,C  11)   -179.32  0.000031   -0.12   -179.44   
   214. D(H  31,C  29,C  13,H  17)    -62.98 -0.001144    0.60    -62.38   
   215. D(H  31,C  29,C  13,H  16)    179.99 -0.000248    0.01    180.00   
   216. D(H  31,C  29,C  13,C  11)     58.59 -0.000718    0.32     58.92   
   217. D(H  30,C  29,C  13,H  17)   -178.97  0.000295   -0.23   -179.19   
   218. D(H  30,C  29,C  13,H  16)     64.01  0.001191   -0.82     63.19   
   219. D(C  32,C  29,C  13,H  17)     59.11 -0.000395    0.15     59.26   
   220. D(H  30,C  29,C  13,C  11)    -57.39  0.000721   -0.50    -57.90   
   221. D(H  35,C  32,C  29,H  31)     61.99  0.000691   -0.39     61.60   
   222. D(H  35,C  32,C  29,H  30)    178.27 -0.000413    0.33    178.60   
   223. D(H  35,C  32,C  29,C  13)    -60.02  0.000076    0.01    -60.01   
   224. D(H  34,C  32,C  29,H  31)    -58.13  0.000568   -0.33    -58.45   
   225. D(H  34,C  32,C  29,H  30)     58.15 -0.000536    0.39     58.55   
   226. D(H  34,C  32,C  29,C  13)    179.87 -0.000047    0.07    179.94   
   227. D(H  33,C  32,C  29,H  31)   -178.24  0.000424   -0.25   -178.49   
   228. D(H  33,C  32,C  29,H  30)    -61.96 -0.000679    0.47    -61.49   
   229. D(H  33,C  32,C  29,C  13)     59.76 -0.000191    0.15     59.90   
    ----------------------------------------------------------------------------

         *************************************************************
         *                GEOMETRY OPTIMIZATION CYCLE   2            *
         *************************************************************
      -----------------------------------------------------------      
     |                   =====================                   |     
     |                           x T B                           |     
     |                   =====================                   |     
     |                         S. Grimme                         |     
     |          Mulliken Center for Theoretical Chemistry        |     
     |                    University of Bonn                     |     
      -----------------------------------------------------------      

   * xtb version 6.3.0 (49875a8) compiled by 'schneider@apollo14' on 2020-05-23

   xtb is free software: you can redistribute it and/or modify it under
   the terms of the GNU Lesser General Public License as published by
   the Free Software Foundation, either version 3 of the License, or
   (at your option) any later version.
   
   xtb is distributed in the hope that it will be useful,
   but WITHOUT ANY WARRANTY; without even the implied warranty of
   MERCHANTABILITY or FITNESS FOR A PARTICULAR PURPOSE.  See the
   GNU Lesser General Public License for more details.
   
   Cite this work as:
   * S. Grimme, C. Bannwarth, P. Shushkov, J. Chem. Theory Comput., 2017,
     13, 1989-2009. DOI: 10.1021/acs.jctc.7b00118
   * C. Bannwarth, S. Ehlert and S. Grimme., J. Chem. Theory Comput., 2019,
     15, 1652-1671. DOI: 10.1021/acs.jctc.8b01176
   * P. Pracht, E. Caldeweyher, S. Ehlert, S. Grimme, ChemRxiv, 2019, preprint.
     DOI: 10.26434/chemrxiv.8326202.v1
   
   for GFN-FF:
   * S. Spicher and S. Grimme, Angew. Chem. Int. Ed., 2020,
     DOI: 10.1002/anie.202004239
   
   for DFT-D4:
   * E. Caldeweyher, C. Bannwarth and S. Grimme, J. Chem. Phys., 2017,
     147, 034112. DOI: 10.1063/1.4993215
   * E. Caldeweyher, S. Ehlert, A. Hansen, H. Neugebauer, S. Spicher,
     C. Bannwarth and S. Grimme, J. Chem. Phys., 2019, 150, 154122.
     DOI: 10.1063/1.5090222
   
   for sTDA-xTB:
   * S. Grimme and C. Bannwarth, J. Chem. Phys., 2016, 145, 054103.
     DOI: 10.1063/1.4959605
   
   in the mass-spec context:
   * V. Asgeirsson, C. Bauer and S. Grimme, Chem. Sci., 2017, 8, 4879.
     DOI: 10.1039/c7sc00601b
   * J. Koopman and S. Grimme, ACS Omega 2019, 4, 12, 15120-15133.
     DOI: 10.1021/acsomega.9b02011
   
   for metadynamics refer to:
   * S. Grimme, J. Chem. Theory Comput., 2019, 155, 2847-2862
     DOI: 10.1021/acs.jctc.9b00143
   
   with help from (in alphabetical order)
   C. Bannwarth, F. Bohle, G. Brandenburg, E. Caldeweyher, M. Checinski,
   S. Dohm, S. Ehlert, S. Ehrlich, F. März, H. Neugebauer, J. Pisarek,
   P. Pracht, P. Shushkov, and S. Spicher.
   
 * started run on 2020/06/19 at 17:09:11.370     

           -------------------------------------------------
          |                Calculation Setup                |
           -------------------------------------------------

          program call               : /opt/orca/otool_xtb opt+freq_XTB.xyz --grad -c 0 -u 0 -P 12 --namespace opt+freq --gbsa CH2Cl2
          calculation namespace      : opt+freq
          coordinate file            : opt+freq_XTB.xyz
          number of atoms            :                    36
          number of electrons        :                    88
          charge                     :                     0
          spin                       :                   0.0
          first test random number   :      0.63023099259410

   ID    Z sym.   atoms
    1    6 C      1-7, 12, 14, 30, 33
    2    1 H      8-10, 13, 15-18, 20, 21, 23, 24, 26-29, 31, 32, 34-36
    3    7 N      11
    4    8 O      19, 22, 25

molecular fragmentation (1/2 indicates fragments):
111111111111211111212222222111111111
# atoms in fragment 1/2:    27     9
 fragment masses (1/2) :      161.24       54.05
CMA distance (Bohr)    :   6.564
constraining FC (au)   :  0.0500
########################################################################
[WARNING] Please study the warnings concerning your input carefully
-1- prog_main_parseArguments: Process number higher than OMP_NUM_THREADS, I hope you know what you are doing.
########################################################################
 Solvent             : CH2Cl2
 Using internal parameter file: .param_gbsa2_CH2Cl2
 Gsolv ref. state (COSMO-RS): gsolv [1 M gas/solution]
 temperature (mdtemp)       :    298.14999999999998     
 dielectric constant        :    8.9299999999999997     
 rho                        :    1.3300000000000003     
 mass                       :    84.930000000000007     
 surface tension            :    15.568945408385856     
 probe radius               :   0.71987590000000001     
 Gshift (Eh)                :    4.4408291734517593E-003
 c1                         :    1.4917377599999999     
 soset                      :    0.0000000000000000     
 HB correction              :  F

           -------------------------------------------------
          |                 G F N 2 - x T B                 |
           -------------------------------------------------

        Reference                      10.1021/acs.jctc.8b01176
      * Hamiltonian:
        H0-scaling (s, p, d)           1.850000    2.230000    2.230000
        zeta-weighting                 0.500000
      * Dispersion:
        s8                             2.700000
        a1                             0.520000
        a2                             5.000000
        s9                             5.000000
      * Repulsion:
        kExp                           1.500000    1.000000
        rExp                           1.000000
      * Coulomb:
        alpha                          2.000000
        third order                    shell-resolved
        anisotropic                    true
        a3                             3.000000
        a5                             4.000000
        cn-shift                       1.200000
        cn-exp                         4.000000
        max-rad                        5.000000


          ...................................................
          :                      SETUP                      :
          :.................................................:
          :  # basis functions                  81          :
          :  # atomic orbitals                  81          :
          :  # shells                           51          :
          :  # electrons                        88          :
          :  max. iterations                   250          :
          :  Hamiltonian                  GFN2-xTB          :
          :  restarted?                      false          :
          :  GBSA solvation                   true          :
          :  PC potential                    false          :
          :  electronic temp.          300.0000000     K    :
          :  accuracy                    1.0000000          :
          :  -> integral cutoff          0.2500000E+02      :
          :  -> integral neglect         0.1000000E-07      :
          :  -> SCF convergence          0.1000000E-05 Eh   :
          :  -> wf. convergence          0.1000000E-03 e    :
          :  Broyden damping             0.4000000          :
          ...................................................

 iter      E             dE          RMSdq      gap      omega  full diag
   1    -49.9787425 -0.499787E+02  0.355E+00    3.29       0.0  T
   2    -50.0148871 -0.361446E-01  0.213E+00    3.37       1.0  T
   3    -50.0086196  0.626746E-02  0.786E-01    2.99       1.0  T
   4    -50.0189399 -0.103203E-01  0.309E-01    3.18       1.0  T
   5    -50.0206980 -0.175813E-02  0.682E-02    3.12       1.0  T
   6    -50.0207107 -0.126677E-04  0.316E-02    3.13       1.0  T
   7    -50.0207167 -0.597525E-05  0.150E-02    3.13       1.1  T
   8    -50.0207190 -0.235495E-05  0.401E-03    3.13       4.2  T
   9    -50.0207192 -0.183300E-06  0.160E-03    3.13      10.4  T
  10    -50.0207192 -0.277441E-08  0.814E-04    3.13      20.5  T
  11    -50.0207192 -0.868773E-08  0.288E-04    3.13      57.8  T

   *** convergence criteria satisfied after 11 iterations ***

         #    Occupation            Energy/Eh            Energy/eV
      -------------------------------------------------------------
         1        2.0000           -0.6803008             -18.5119
       ...           ...                  ...                  ...
        38        2.0000           -0.4321456             -11.7593
        39        2.0000           -0.4293824             -11.6841
        40        2.0000           -0.4284055             -11.6575
        41        2.0000           -0.4266485             -11.6097
        42        2.0000           -0.4142556             -11.2725
        43        2.0000           -0.4054830             -11.0338
        44        2.0000           -0.3938060             -10.7160 (HOMO)
        45                         -0.2786665              -7.5829 (LUMO)
        46                         -0.2320078              -6.3133
        47                         -0.1942768              -5.2865
        48                         -0.0908738              -2.4728
        49                          0.0257046               0.6995
       ...                                ...                  ...
        81                          0.6623198              18.0226
      -------------------------------------------------------------
                  HL-Gap            0.1151394 Eh            3.1331 eV
             Fermi-level           -0.3362363 Eh           -9.1495 eV

 SCC (total)                   0 d,  0 h,  0 min,  0.108 sec
 SCC setup                      ...        0 min,  0.002 sec (  1.392%)
 Dispersion                     ...        0 min,  0.000 sec (  0.455%)
 classical contributions        ...        0 min,  0.000 sec (  0.156%)
 integral evaluation            ...        0 min,  0.019 sec ( 17.867%)
 iterations                     ...        0 min,  0.053 sec ( 49.163%)
 molecular gradient             ...        0 min,  0.032 sec ( 29.678%)
 printout                       ...        0 min,  0.001 sec (  1.268%)

         :::::::::::::::::::::::::::::::::::::::::::::::::::::
         ::                     SUMMARY                     ::
         :::::::::::::::::::::::::::::::::::::::::::::::::::::
         :: total energy             -49.368450162504 Eh    ::
         :: total w/o Gsasa/hb       -49.349241893066 Eh    ::
         :: gradient norm              0.010971333270 Eh/a0 ::
         :: HOMO-LUMO gap              3.133103748986 eV    ::
         ::.................................................::
         :: SCC energy               -50.039927499437 Eh    ::
         :: -> isotropic ES            0.116005128883 Eh    ::
         :: -> anisotropic ES         -0.007607265882 Eh    ::
         :: -> anisotropic XC          0.025733600722 Eh    ::
         :: -> dispersion             -0.027756912613 Eh    ::
         :: -> Gsolv                  -0.028366936486 Eh    ::
         ::    -> Gborn               -0.009158667048 Eh    ::
         ::    -> Gsasa               -0.023649098612 Eh    ::
         ::    -> Ghb                  0.000000000000 Eh    ::
         ::    -> Gshift               0.004440829173 Eh    ::
         :: repulsion energy           0.671285353506 Eh    ::
         :: add. restraining           0.000000000000 Eh    ::
         :::::::::::::::::::::::::::::::::::::::::::::::::::::

           -------------------------------------------------
          |                Property Printout                |
           -------------------------------------------------

    * Orbital Energies and Occupations

         #    Occupation            Energy/Eh            Energy/eV
      -------------------------------------------------------------
         1        2.0000           -0.6803008             -18.5119
       ...           ...                  ...                  ...
        32        2.0000           -0.4655790             -12.6690
        33        2.0000           -0.4489427             -12.2164
        34        2.0000           -0.4456405             -12.1265
        35        2.0000           -0.4438587             -12.0780
        36        2.0000           -0.4403213             -11.9818
        37        2.0000           -0.4401263             -11.9764
        38        2.0000           -0.4321456             -11.7593
        39        2.0000           -0.4293824             -11.6841
        40        2.0000           -0.4284055             -11.6575
        41        2.0000           -0.4266485             -11.6097
        42        2.0000           -0.4142556             -11.2725
        43        2.0000           -0.4054830             -11.0338
        44        2.0000           -0.3938060             -10.7160 (HOMO)
        45                         -0.2786665              -7.5829 (LUMO)
        46                         -0.2320078              -6.3133
        47                         -0.1942768              -5.2865
        48                         -0.0908738              -2.4728
        49                          0.0257046               0.6995
        50                          0.0454375               1.2364
        51                          0.0938872               2.5548
        52                          0.0962716               2.6197
        53                          0.1072778               2.9192
        54                          0.1175332               3.1982
        55                          0.1199056               3.2628
       ...                                ...                  ...
        81                          0.6623198              18.0226
      -------------------------------------------------------------
                  HL-Gap            0.1151394 Eh            3.1331 eV
             Fermi-level           -0.3362363 Eh           -9.1495 eV

     #   Z        covCN         q      C6AA      α(0)
     1   6 C      2.973     0.005    27.913     8.666
     2   6 C      2.922    -0.029    28.716     8.788
     3   6 C      2.917    -0.028    28.696     8.784
     4   6 C      2.919    -0.026    28.649     8.777
     5   6 C      2.916    -0.030    28.751     8.793
[...]
     74       0.000934   0.008531  -0.001231  -0.058527  -0.007355  -0.001632
     75      -0.000345   0.303700  -0.059272   0.006252  -0.011619  -0.005008
     76       0.003297   0.815145  -0.173252   0.011540   0.034829   0.016310
     77      -0.001603  -0.372506   0.075607  -0.007741  -0.021170  -0.010236
     78      -0.001340  -0.006770   0.000945   0.163357   0.020494   0.004454
     79       0.000252   0.019574  -0.003626  -0.112027  -0.014255  -0.003182
     80      -0.001548  -0.019042   0.004824   0.968630   0.124096   0.028118
     81       0.015890  -0.000075   0.000246  -0.000053  -0.000028   0.000021
     82      -0.143104   0.000031  -0.000792   0.000075   0.000408   0.000315
     83      -0.059458  -0.000156  -0.000231   0.000093   0.000218   0.000165
     84      -0.009394   0.002102   0.000241  -0.000015  -0.000137  -0.000053
     85       0.008641  -0.001877  -0.000240   0.000026   0.000135   0.000085
     86      -0.004775   0.001079   0.000097   0.000025  -0.000059  -0.000025
     87       0.000014  -0.000006  -0.000013   0.000009  -0.000004   0.000002
     88      -0.000028   0.000011   0.000023   0.000034   0.000003   0.000024
     89      -0.000032   0.000102   0.000003  -0.000024  -0.000009  -0.000017
     90       0.000011   0.000075   0.000128   0.000114   0.000046   0.000045
     91      -0.000104   0.000423  -0.000196  -0.000386  -0.000037  -0.000182
     92       0.000026  -0.000543   0.000063   0.000474   0.000084   0.000229
     93      -0.000255   0.000156   0.000073  -0.000093   0.000021  -0.000008
     94       0.000458  -0.000015  -0.000045  -0.000015  -0.000003  -0.000056
     95       0.000286  -0.000213  -0.000115  -0.000017   0.000011  -0.000003
     96      -0.000009  -0.000045  -0.000023  -0.000000  -0.000006   0.000001
     97      -0.000025   0.000074   0.000024   0.000021   0.000002   0.000012
     98       0.000018   0.000005   0.000024  -0.000006   0.000000  -0.000001
     99       0.000077   0.000058   0.000229   0.000045   0.000040   0.000040
    100      -0.000161  -0.000423  -0.000326  -0.000100  -0.000028  -0.000042
    101      -0.000076  -0.000560  -0.000189  -0.000121  -0.000024  -0.000032
    102       0.000092   0.000166  -0.000006  -0.000020   0.000060  -0.000009
    103       0.000047   0.000131  -0.000031  -0.000015   0.000016  -0.000013
    104       0.000134   0.000414  -0.000029   0.000089   0.000037   0.000008
    105      -0.000056   0.000020  -0.000005  -0.000051   0.000003  -0.000028
    106       0.000423  -0.000674   0.000041  -0.000181  -0.000010  -0.000102
    107      -0.000327   0.000262  -0.000042   0.000088  -0.000002   0.000075


-----------
IR SPECTRUM  
-----------

 Mode    freq (cm**-1)   T**2         TX         TY         TZ
-------------------------------------------------------------------
   6:         2.58    0.000000  (  0.000000   0.000000   0.000000)
   7:        10.89    0.000000  (  0.000000   0.000000   0.000000)
   8:        19.90    0.000000  (  0.000000   0.000000   0.000000)
   9:        29.54    0.000000  (  0.000000   0.000000   0.000000)
  10:        40.46    0.000000  (  0.000000   0.000000   0.000000)
  11:        48.71    0.000000  (  0.000000   0.000000   0.000000)
  12:        54.06    0.000000  (  0.000000   0.000000   0.000000)
  13:        72.00    0.000000  (  0.000000   0.000000   0.000000)
  14:        81.94    0.000000  (  0.000000   0.000000   0.000000)
  15:        98.00    0.000000  (  0.000000   0.000000   0.000000)
  16:       109.10    0.000000  (  0.000000   0.000000   0.000000)
  17:       121.01    0.000000  (  0.000000   0.000000   0.000000)
  18:       144.77    0.000000  (  0.000000   0.000000   0.000000)
  19:       175.20    0.000000  (  0.000000   0.000000   0.000000)
  20:       199.62    0.000000  (  0.000000   0.000000   0.000000)
  21:       210.19    0.000000  (  0.000000   0.000000   0.000000)
  22:       220.12    0.000000  (  0.000000   0.000000   0.000000)
  23:       234.28    0.000000  (  0.000000   0.000000   0.000000)
  24:       255.34    0.000000  (  0.000000   0.000000   0.000000)
  25:       265.46    0.000000  (  0.000000   0.000000   0.000000)
  26:       283.28    0.000000  (  0.000000   0.000000   0.000000)
  27:       294.59    0.000000  (  0.000000   0.000000   0.000000)
  28:       367.94    0.000000  (  0.000000   0.000000   0.000000)
  29:       391.24    0.000000  (  0.000000   0.000000   0.000000)
  30:       408.92    0.000000  (  0.000000   0.000000   0.000000)
  31:       421.33    0.000000  (  0.000000   0.000000   0.000000)
  32:       429.90    0.000000  (  0.000000   0.000000   0.000000)
  33:       435.89    0.000000  (  0.000000   0.000000   0.000000)
  34:       450.11    0.000000  (  0.000000   0.000000   0.000000)
  35:       509.14    0.000000  (  0.000000   0.000000   0.000000)
  36:       587.95    0.000000  (  0.000000   0.000000   0.000000)
  37:       620.03    0.000000  (  0.000000   0.000000   0.000000)
  38:       636.27    0.000000  (  0.000000   0.000000   0.000000)
  39:       661.87    0.000000  (  0.000000   0.000000   0.000000)
  40:       686.42    0.000000  (  0.000000   0.000000   0.000000)
  41:       753.29    0.000000  (  0.000000   0.000000   0.000000)
  42:       761.74    0.000000  (  0.000000   0.000000   0.000000)
  43:       781.87    0.000000  (  0.000000   0.000000   0.000000)
  44:       833.86    0.000000  (  0.000000   0.000000   0.000000)
  45:       863.51    0.000000  (  0.000000   0.000000   0.000000)
  46:       875.66    0.000000  (  0.000000   0.000000   0.000000)
  47:       906.44    0.000000  (  0.000000   0.000000   0.000000)
  48:       918.90    0.000000  (  0.000000   0.000000   0.000000)
  49:       929.91    0.000000  (  0.000000   0.000000   0.000000)
  50:       935.59    0.000000  (  0.000000   0.000000   0.000000)
  51:       945.02    0.000000  (  0.000000   0.000000   0.000000)
  52:       955.67    0.000000  (  0.000000   0.000000   0.000000)
  53:       989.68    0.000000  (  0.000000   0.000000   0.000000)
  54:      1048.10    0.000000  (  0.000000   0.000000   0.000000)
  55:      1077.79    0.000000  (  0.000000   0.000000   0.000000)
  56:      1081.94    0.000000  (  0.000000   0.000000   0.000000)
  57:      1100.87    0.000000  (  0.000000   0.000000   0.000000)
  58:      1118.58    0.000000  (  0.000000   0.000000   0.000000)
  59:      1127.61    0.000000  (  0.000000   0.000000   0.000000)
  60:      1162.07    0.000000  (  0.000000   0.000000   0.000000)
  61:      1179.21    0.000000  (  0.000000   0.000000   0.000000)
  62:      1187.78    0.000000  (  0.000000   0.000000   0.000000)
  63:      1216.69    0.000000  (  0.000000   0.000000   0.000000)
  64:      1238.22    0.000000  (  0.000000   0.000000   0.000000)
  65:      1259.26    0.000000  (  0.000000   0.000000   0.000000)
  66:      1270.31    0.000000  (  0.000000   0.000000   0.000000)
  67:      1277.01    0.000000  (  0.000000   0.000000   0.000000)
  68:      1278.96    0.000000  (  0.000000   0.000000   0.000000)
  69:      1319.20    0.000000  (  0.000000   0.000000   0.000000)
  70:      1331.04    0.000000  (  0.000000   0.000000   0.000000)
  71:      1358.68    0.000000  (  0.000000   0.000000   0.000000)
  72:      1368.52    0.000000  (  0.000000   0.000000   0.000000)
  73:      1412.42    0.000000  (  0.000000   0.000000   0.000000)
  74:      1432.19    0.000000  (  0.000000   0.000000   0.000000)
  75:      1464.07    0.000000  (  0.000000   0.000000   0.000000)
  76:      1468.10    0.000000  (  0.000000   0.000000   0.000000)
  77:      1487.34    0.000000  (  0.000000   0.000000   0.000000)
  78:      1495.83    0.000000  (  0.000000   0.000000   0.000000)
  79:      1498.67    0.000000  (  0.000000   0.000000   0.000000)
  80:      1501.81    0.000000  (  0.000000   0.000000   0.000000)
  81:      1517.98    0.000000  (  0.000000   0.000000   0.000000)
  82:      1533.31    0.000000  (  0.000000   0.000000   0.000000)
  83:      1548.61    0.000000  (  0.000000   0.000000   0.000000)
  84:      1577.56    0.000000  (  0.000000   0.000000   0.000000)
  85:      1590.38    0.000000  (  0.000000   0.000000   0.000000)
  86:      1699.61    0.000000  (  0.000000   0.000000   0.000000)
  87:      2835.78    0.000000  (  0.000000   0.000000   0.000000)
  88:      2847.20    0.000000  (  0.000000   0.000000   0.000000)
  89:      2937.55    0.000000  (  0.000000   0.000000   0.000000)
  90:      2958.75    0.000000  (  0.000000   0.000000   0.000000)
  91:      2967.64    0.000000  (  0.000000   0.000000   0.000000)
  92:      2978.81    0.000000  (  0.000000   0.000000   0.000000)
  93:      2996.18    0.000000  (  0.000000   0.000000   0.000000)
  94:      3025.91    0.000000  (  0.000000   0.000000   0.000000)
  95:      3026.30    0.000000  (  0.000000   0.000000   0.000000)
  96:      3029.83    0.000000  (  0.000000   0.000000   0.000000)
  97:      3035.59    0.000000  (  0.000000   0.000000   0.000000)
  98:      3067.71    0.000000  (  0.000000   0.000000   0.000000)
  99:      3076.71    0.000000  (  0.000000   0.000000   0.000000)
 100:      3081.99    0.000000  (  0.000000   0.000000   0.000000)
 101:      3091.96    0.000000  (  0.000000   0.000000   0.000000)
 102:      3116.41    0.000000  (  0.000000   0.000000   0.000000)
 103:      3161.94    0.000000  (  0.000000   0.000000   0.000000)
 104:      3282.16    0.000000  (  0.000000   0.000000   0.000000)
 105:      3629.01    0.000000  (  0.000000   0.000000   0.000000)
 106:      3636.35    0.000000  (  0.000000   0.000000   0.000000)
 107:      3639.12    0.000000  (  0.000000   0.000000   0.000000)

The first frequency considered to be a vibration is 6
The total number of vibrations considered is 102


--------------------------
THERMOCHEMISTRY AT 298.15K
--------------------------

Temperature         ... 298.15 K
Pressure            ... 1.00 atm
Total Mass          ... 215.29 AMU

Throughout the following assumptions are being made:
  (1) The electronic state is orbitally nondegenerate
  (2) There are no thermally accessible electronically excited states
  (3) Hindered rotations indicated by low frequency modes are not
      treated as such but are treated as vibrations and this may
      cause some error
  (4) All equations used are the standard statistical mechanics
      equations for an ideal gas
  (5) All vibrations are strictly harmonic

freq.       2.58  E(vib)   ...       0.59 
freq.      10.89  E(vib)   ...       0.58 
freq.      19.90  E(vib)   ...       0.56 
freq.      29.54  E(vib)   ...       0.55 
freq.      40.46  E(vib)   ...       0.54 
freq.      48.71  E(vib)   ...       0.53 
freq.      54.06  E(vib)   ...       0.52 
freq.      72.00  E(vib)   ...       0.50 
freq.      81.94  E(vib)   ...       0.48 
freq.      98.00  E(vib)   ...       0.46 
freq.     109.10  E(vib)   ...       0.45 
freq.     121.01  E(vib)   ...       0.44 
freq.     144.77  E(vib)   ...       0.41 
freq.     175.20  E(vib)   ...       0.38 
freq.     199.62  E(vib)   ...       0.35 
freq.     210.19  E(vib)   ...       0.34 
freq.     220.12  E(vib)   ...       0.33 
freq.     234.28  E(vib)   ...       0.32 
freq.     255.34  E(vib)   ...       0.30 
freq.     265.46  E(vib)   ...       0.29 
freq.     283.28  E(vib)   ...       0.28 
freq.     294.59  E(vib)   ...       0.27 
freq.     367.94  E(vib)   ...       0.21 
freq.     391.24  E(vib)   ...       0.20 
freq.     408.92  E(vib)   ...       0.19 
freq.     421.33  E(vib)   ...       0.18 
freq.     429.90  E(vib)   ...       0.18 
freq.     435.89  E(vib)   ...       0.17 
freq.     450.11  E(vib)   ...       0.17 
freq.     509.14  E(vib)   ...       0.14 
freq.     587.95  E(vib)   ...       0.10 
freq.     620.03  E(vib)   ...       0.09 
freq.     636.27  E(vib)   ...       0.09 
freq.     661.87  E(vib)   ...       0.08 
freq.     686.42  E(vib)   ...       0.07 
freq.     753.29  E(vib)   ...       0.06 
freq.     761.74  E(vib)   ...       0.06 
freq.     781.87  E(vib)   ...       0.05 
freq.     833.86  E(vib)   ...       0.04 
freq.     863.51  E(vib)   ...       0.04 
freq.     875.66  E(vib)   ...       0.04 
freq.     906.44  E(vib)   ...       0.03 
freq.     918.90  E(vib)   ...       0.03 
freq.     929.91  E(vib)   ...       0.03 
freq.     935.59  E(vib)   ...       0.03 
freq.     945.02  E(vib)   ...       0.03 
freq.     955.67  E(vib)   ...       0.03 
freq.     989.68  E(vib)   ...       0.02 
freq.    1048.10  E(vib)   ...       0.02 
freq.    1077.79  E(vib)   ...       0.02 
freq.    1081.94  E(vib)   ...       0.02 
freq.    1100.87  E(vib)   ...       0.02 
freq.    1118.58  E(vib)   ...       0.01 
freq.    1127.61  E(vib)   ...       0.01 
freq.    1162.07  E(vib)   ...       0.01 
freq.    1179.21  E(vib)   ...       0.01 
freq.    1187.78  E(vib)   ...       0.01 
freq.    1216.69  E(vib)   ...       0.01 
freq.    1238.22  E(vib)   ...       0.01 
freq.    1259.26  E(vib)   ...       0.01 
freq.    1270.31  E(vib)   ...       0.01 
freq.    1277.01  E(vib)   ...       0.01 
freq.    1278.96  E(vib)   ...       0.01 
freq.    1319.20  E(vib)   ...       0.01 
freq.    1331.04  E(vib)   ...       0.01 
freq.    1358.68  E(vib)   ...       0.01 
freq.    1368.52  E(vib)   ...       0.01 
freq.    1412.42  E(vib)   ...       0.00 
freq.    1432.19  E(vib)   ...       0.00 
freq.    1464.07  E(vib)   ...       0.00 
freq.    1468.10  E(vib)   ...       0.00 
freq.    1487.34  E(vib)   ...       0.00 
freq.    1495.83  E(vib)   ...       0.00 
freq.    1498.67  E(vib)   ...       0.00 
freq.    1501.81  E(vib)   ...       0.00 
freq.    1517.98  E(vib)   ...       0.00 
freq.    1533.31  E(vib)   ...       0.00 
freq.    1548.61  E(vib)   ...       0.00 
freq.    1577.56  E(vib)   ...       0.00 
freq.    1590.38  E(vib)   ...       0.00 
freq.    1699.61  E(vib)   ...       0.00 
freq.    2835.78  E(vib)   ...       0.00 
freq.    2847.20  E(vib)   ...       0.00 
freq.    2937.55  E(vib)   ...       0.00 
freq.    2958.75  E(vib)   ...       0.00 
freq.    2967.64  E(vib)   ...       0.00 
freq.    2978.81  E(vib)   ...       0.00 
freq.    2996.18  E(vib)   ...       0.00 
freq.    3025.91  E(vib)   ...       0.00 
freq.    3026.30  E(vib)   ...       0.00 
freq.    3029.83  E(vib)   ...       0.00 
freq.    3035.59  E(vib)   ...       0.00 
freq.    3067.71  E(vib)   ...       0.00 
freq.    3076.71  E(vib)   ...       0.00 
freq.    3081.99  E(vib)   ...       0.00 
freq.    3091.96  E(vib)   ...       0.00 
freq.    3116.41  E(vib)   ...       0.00 
freq.    3161.94  E(vib)   ...       0.00 
freq.    3282.16  E(vib)   ...       0.00 
freq.    3629.01  E(vib)   ...       0.00 
freq.    3636.35  E(vib)   ...       0.00 
freq.    3639.12  E(vib)   ...       0.00 

------------
INNER ENERGY
------------

The inner energy is: U= E(el) + E(ZPE) + E(vib) + E(rot) + E(trans)
    E(el)   - is the total energy from the electronic structure calculation
              = E(kin-el) + E(nuc-el) + E(el-el) + E(nuc-nuc)
    E(ZPE)  - the the zero temperature vibrational energy from the frequency calculation
    E(vib)  - the the finite temperature correction to E(ZPE) due to population
              of excited vibrational states
    E(rot)  - is the rotational thermal energy
    E(trans)- is the translational thermal energy

Summary of contributions to the inner energy U:
Electronic energy                ...    -49.36975503 Eh
Zero point energy                ...      0.29771509 Eh     186.82 kcal/mol
Thermal vibrational correction   ...      0.01924767 Eh      12.08 kcal/mol
Thermal rotational correction    ...      0.00141627 Eh       0.89 kcal/mol
Thermal translational correction ...      0.00141627 Eh       0.89 kcal/mol
-----------------------------------------------------------------------
Total thermal energy                    -49.04995973 Eh


Summary of corrections to the electronic energy:
(perhaps to be used in another calculation)
Total thermal correction                  0.02208021 Eh      13.86 kcal/mol
Non-thermal (ZPE) correction              0.29771509 Eh     186.82 kcal/mol
-----------------------------------------------------------------------
Total correction                          0.31979530 Eh     200.67 kcal/mol


--------
ENTHALPY
--------

The enthalpy is H = U + kB*T
                kB is Boltzmann's constant
Total free energy                 ...    -49.04995973 Eh 
Thermal Enthalpy correction       ...      0.00094421 Eh       0.59 kcal/mol
-----------------------------------------------------------------------
Total Enthalpy                    ...    -49.04901552 Eh


Note: Only C1 symmetry has been detected, increase convergence thresholds 
      if your molecule has a higher symmetry. Symmetry factor of 1.0 is   
      used for the rotational entropy correction. 
 

Note: Rotational entropy computed according to Herzberg 
Infrared and Raman Spectra, Chapter V,1, Van Nostrand Reinhold, 1945 
Point Group:  C1, Symmetry Number:   1  
Rotational constants in cm-1:     0.018611     0.008917     0.007045 

Vibrational entropy computed according to the QRRHO of S. Grimme
Chem.Eur.J. 2012 18 9955


-------
ENTROPY
-------

The entropy contributions are T*S = T*(S(el)+S(vib)+S(rot)+S(trans))
     S(el)   - electronic entropy
     S(vib)  - vibrational entropy
     S(rot)  - rotational entropy
     S(trans)- translational entropy
The entropies will be listed as mutliplied by the temperature to get
units of energy

Electronic entropy                ...      0.00000000 Eh      0.00 kcal/mol
Vibrational entropy               ...      0.03722101 Eh     23.36 kcal/mol
Rotational entropy                ...      0.01595918 Eh     10.01 kcal/mol
Translational entropy             ...      0.01995728 Eh     12.52 kcal/mol
-----------------------------------------------------------------------
Final entropy term                ...      0.07313747 Eh     45.89 kcal/mol

In case the symmetry of your molecule has not been determined correctly
or in case you have a reason to use a different symmetry number we print 
out the resulting rotational entropy values for sn=1,12 :
 --------------------------------------------------------
|  sn= 1 | S(rot)=       0.01595918 Eh     10.01 kcal/mol|
|  sn= 2 | S(rot)=       0.01530472 Eh      9.60 kcal/mol|
|  sn= 3 | S(rot)=       0.01492189 Eh      9.36 kcal/mol|
|  sn= 4 | S(rot)=       0.01465027 Eh      9.19 kcal/mol|
|  sn= 5 | S(rot)=       0.01443958 Eh      9.06 kcal/mol|
|  sn= 6 | S(rot)=       0.01426744 Eh      8.95 kcal/mol|
|  sn= 7 | S(rot)=       0.01412189 Eh      8.86 kcal/mol|
|  sn= 8 | S(rot)=       0.01399581 Eh      8.78 kcal/mol|
|  sn= 9 | S(rot)=       0.01388460 Eh      8.71 kcal/mol|
|  sn=10 | S(rot)=       0.01378512 Eh      8.65 kcal/mol|
|  sn=11 | S(rot)=       0.01369513 Eh      8.59 kcal/mol|
|  sn=12 | S(rot)=       0.01361298 Eh      8.54 kcal/mol|
 --------------------------------------------------------


-------------------
GIBBS FREE ENERGY
-------------------

The Gibbs free energy is G = H - T*S

Total enthalpy                    ...    -49.04901552 Eh 
Total entropy correction          ...     -0.07313747 Eh    -45.89 kcal/mol
-----------------------------------------------------------------------
Final Gibbs free energy         ...    -49.12215299 Eh

For completeness - the Gibbs free energy minus the electronic energy
G-E(el)                           ...      0.24760204 Eh    155.37 kcal/mol


Total Time for Numerical Frequencies  :       103.582 sec

Timings for individual modules:

Sum of individual times         ...       44.507 sec (=   0.742 min)
Geometry relaxation             ...       25.423 sec (=   0.424 min)  57.1 %
XTB module                      ...       19.084 sec (=   0.318 min)  42.9 %
                             ****ORCA TERMINATED NORMALLY****
TOTAL RUN TIME: 0 days 0 hours 2 minutes 48 seconds 820 msec
