
                                 *****************
                                 * O   R   C   A *
                                 *****************

           --- An Ab Initio, DFT and Semiempirical electronic structure package ---

                  #######################################################
                  #                        -***-                        #
                  #          Department of theory and spectroscopy      #
                  #               Directorship: Frank Neese             #
                  #        Max Planck Institute fuer Kohlenforschung    #
                  #                Kaiser Wilhelm Platz 1               #
                  #                 D-45470 Muelheim/Ruhr               #
                  #                      Germany                        #
                  #                                                     #
                  #                  All rights reserved                #
                  #                        -***-                        #
                  #######################################################


                         Program Version 4.2.1 -  RELEASE  -


 With contributions from (in alphabetic order):
   Daniel Aravena         : Magnetic Suceptibility
   Michael Atanasov       : Ab Initio Ligand Field Theory (pilot matlab implementation)
   Alexander A. Auer      : GIAO ZORA, VPT2
   Ute Becker             : Parallelization
   Giovanni Bistoni       : ED, misc. LED, open-shell LED, HFLD
   Martin Brehm           : Molecular dynamics
   Dmytro Bykov           : SCF Hessian
   Vijay G. Chilkuri      : MRCI spin determinant printing, contributions to CSF-ICE
   Dipayan Datta          : RHF DLPNO-CCSD density
   Achintya Kumar Dutta   : EOM-CC, STEOM-CC
   Dmitry Ganyushin       : Spin-Orbit,Spin-Spin,Magnetic field MRCI
   Miquel Garcia          : C-PCM Hessian, Gaussian charge scheme
   Yang Guo               : DLPNO-NEVPT2, CIM, IAO-localization
   Andreas Hansen         : Spin unrestricted coupled pair/coupled cluster methods
   Benjamin Helmich-Paris : CASSCF linear response (MC-RPA)
   Lee Huntington         : MR-EOM, pCC
   Robert Izsak           : Overlap fitted RIJCOSX, COSX-SCS-MP3, EOM
   Christian Kollmar      : KDIIS, OOCD, Brueckner-CCSD(T), CCSD density
   Simone Kossmann        : Meta GGA functionals, TD-DFT gradient, OOMP2, MP2 Hessian
   Martin Krupicka        : AUTO-CI
   Lucas Lang             : DCDCAS
   Dagmar Lenk            : GEPOL surface, SMD
   Dimitrios Liakos       : Extrapolation schemes; Compound Job, initial MDCI parallelization
   Dimitrios Manganas     : Further ROCIS development; embedding schemes
   Dimitrios Pantazis     : SARC Basis sets
   Taras Petrenko         : DFT Hessian,TD-DFT gradient, ASA, ECA, R-Raman, ABS, FL, XAS/XES, NRVS
   Peter Pinski           : DLPNO-MP2, DLPNO-MP2 Gradient
   Christoph Reimann      : Effective Core Potentials
   Marius Retegan         : Local ZFS, SOC
   Christoph Riplinger    : Optimizer, TS searches, QM/MM, DLPNO-CCSD(T), (RO)-DLPNO pert. Triples
   Tobias Risthaus        : Range-separated hybrids, TD-DFT gradient, RPA, STAB
   Michael Roemelt        : Original ROCIS implementation
   Masaaki Saitow         : Open-shell DLPNO-CCSD energy and density
   Barbara Sandhoefer     : DKH picture change effects
   Avijit Sen             : IP-ROCIS
   Kantharuban Sivalingam : CASSCF convergence, NEVPT2, FIC-MRCI
   Bernardo de Souza      : ESD, SOC TD-DFT
   Georgi Stoychev        : AutoAux, RI-MP2 NMR
   Willem Van den Heuvel  : Paramagnetic NMR
   Boris Wezisla          : Elementary symmetry handling
   Frank Wennmohs         : Technical directorship


 We gratefully acknowledge several colleagues who have allowed us to
 interface, adapt or use parts of their codes:
   Stefan Grimme, W. Hujo, H. Kruse,             : VdW corrections, initial TS optimization,
                  C. Bannwarth                     DFT functionals, gCP, sTDA/sTD-DF
   Ed Valeev, F. Pavosevic, A. Kumar             : LibInt (2-el integral package), F12 methods
   Garnet Chan, S. Sharma, J. Yang, R. Olivares  : DMRG
   Ulf Ekstrom                                   : XCFun DFT Library
   Mihaly Kallay                                 : mrcc  (arbitrary order and MRCC methods)
   Andreas Klamt, Michael Diedenhofen            : otool_cosmo (COSMO solvation model)
   Jiri Pittner, Ondrej Demel                    : Mk-CCSD
   Frank Weinhold                                : gennbo (NPA and NBO analysis)
   Christopher J. Cramer and Donald G. Truhlar   : smd solvation model
   Lars Goerigk                                  : TD-DFT with DH, B97 family of functionals
   V. Asgeirsson, H. Jonsson                     : NEB implementation
   FAccTs GmbH                                   : IRC, NEB, NEB-TS, Multilevel, MM, QM/MM, CI optimization
   S Lehtola, MJT Oliveira, MAL Marques          : LibXC Library


 Your calculation uses the libint2 library for the computation of 2-el integrals
 For citations please refer to: http://libint.valeyev.net

 Your ORCA version has been built with support for libXC version: 4.2.3
 For citations please refer to: https://tddft.org/programs/libxc/

 This ORCA versions uses:
   CBLAS   interface :  Fast vector & matrix operations
   LAPACKE interface :  Fast linear algebra routines
   SCALAPACK package :  Parallel linear algebra routines




***************************************
The coordinates will be read from file: init.xyz
***************************************


Your calculation utilizes the SMD solvation module
Please cite in your paper:
A.V. Marenich, C.J. Cramer, D.G. Truhlar J. Phys. Chem. B, 113, (2009), 6378 

Your calculation utilizes the semiempirical GFN2-xTB method
Please cite in your paper:
C. Bannwarth, Ehlert S., S. Grimme,  J. Chem. Theory Comput., 15, (2019), 1652.
   

----- Orbital basis set information -----
Your calculation utilizes the basis: def2-SVP
   F. Weigend and R. Ahlrichs, Phys. Chem. Chem. Phys. 7, 3297 (2005).

================================================================================
                                        WARNINGS
                       Please study these warnings very carefully!
================================================================================


WARNING: The environment variable RSH_COMMAND is not set!
  ===> : All Displacements for the Numerical Hessian calculation
         will be started on localhost

WARNING: Geometry Optimization
  ===> : Switching off AutoStart
         For restart on a previous wavefunction, please use MOREAD

WARNING: Found dipole moment calculation with XTB calculation
  ===> : Switching off dipole moment calculation


INFO   : the flag for use of LIBINT has been found!

================================================================================
                                       INPUT FILE
================================================================================
NAME = opt+freq.inp
|  1> ! XTB2 Opt NumFreq
|  2> 
|  3> %cpcm
|  4>  smd true
|  5>  smdsolvent "ch2cl2"
|  6> end
|  7> 
|  8> %pal
|  9>  nprocs 12
| 10> end
| 11> 
| 12> *xyzfile 0 1 init.xyz
| 13> 
| 14> 
| 15>                          ****END OF INPUT****
================================================================================

                       *****************************
                       * Geometry Optimization Run *
                       *****************************

Geometry optimization settings:
Update method            Update   .... BFGS
Choice of coordinates    CoordSys .... Z-matrix Internals
Initial Hessian          InHess   .... Almoef's Model

Convergence Tolerances:
Energy Change            TolE     ....  5.0000e-06 Eh
Max. Gradient            TolMAXG  ....  3.0000e-04 Eh/bohr
RMS Gradient             TolRMSG  ....  1.0000e-04 Eh/bohr
Max. Displacement        TolMAXD  ....  4.0000e-03 bohr
RMS Displacement         TolRMSD  ....  2.0000e-03 bohr
Strict Convergence                ....  False
------------------------------------------------------------------------------
                        ORCA OPTIMIZATION COORDINATE SETUP
------------------------------------------------------------------------------

The optimization will be done in new redundant internal coordinates
Making redundant internal coordinates   ...  (new redundants) done
Evaluating the initial hessian          ...  (Almloef) done
Evaluating the coordinates              ...  done
Calculating the B-matrix                .... done
Calculating the G-matrix                .... done
Diagonalizing the G-matrix              .... done
Small eigenvalue found = 4.360e-03
Small eigenvalue found = 8.220e-03
Small eigenvalue found = 2.354e-02
Small eigenvalue found = 2.949e-02
The first mode is                       ....   58
The number of degrees of freedom        ....   75

    -----------------------------------------------------------------
                    Redundant Internal Coordinates


    -----------------------------------------------------------------
         Definition                    Initial Value    Approx d2E/dq
    -----------------------------------------------------------------
      1. B(C   1,C   0)                  1.3903         0.624083   
      2. B(C   2,C   1)                  1.3903         0.624123   
      3. B(C   3,C   2)                  1.3978         0.607205   
      4. B(C   4,C   3)                  1.4005         0.601140   
      5. B(C   5,C   4)                  1.3861         0.633707   
      6. B(C   5,C   0)                  1.3949         0.613718   
      7. B(H   6,C   0)                  1.0820         0.370792   
      8. B(H   7,C   2)                  1.0831         0.369277   
      9. B(H   8,C   4)                  1.0812         0.371981   
     10. B(C   9,C   3)                  1.4715         0.463204   
     11. B(H  10,C   9)                  1.0977         0.350045   
     12. B(N  11,C   9)                  1.2680         0.876044   
     13. B(C  12,N  11)                  1.4529         0.444215   
     14. B(C  13,C  12)                  1.5297         0.374043   
     15. B(H  14,C  13)                  1.0944         0.354370   
     16. B(H  15,C  13)                  1.0934         0.355599   
     17. B(H  16,C  12)                  1.0941         0.354654   
     18. B(H  17,C  12)                  1.0989         0.348473   
     19. B(C  18,C  13)                  1.5282         0.376071   
     20. B(H  19,C  18)                  1.0943         0.354445   
     21. B(H  20,C  18)                  1.0942         0.354646   
     22. B(H  21,C   5)                  1.0821         0.370711   
     23. B(H  22,C   1)                  1.0820         0.370792   
     24. B(C  23,C  18)                  1.5268         0.378043   
     25. B(H  24,C  23)                  1.0926         0.356616   
     26. B(H  25,C  23)                  1.0918         0.357716   
     27. B(H  26,C  23)                  1.0926         0.356676   
     28. A(C   1,C   0,H   6)          120.1039         0.355058   
     29. A(C   5,C   0,H   6)          120.0483         0.354051   
     30. A(C   1,C   0,C   5)          119.8478         0.433783   
     31. A(C   0,C   1,C   2)          119.9102         0.435098   
     32. A(C   2,C   1,H  22)          119.9322         0.355061   
     33. A(C   0,C   1,H  22)          120.1575         0.355057   
     34. A(C   3,C   2,H   7)          119.3598         0.353167   
     35. A(C   1,C   2,H   7)          119.9787         0.354815   
     36. A(C   1,C   2,C   3)          120.6614         0.432957   
     37. A(C   4,C   3,C   9)          122.1257         0.409780   
     38. A(C   2,C   3,C   9)          118.8885         0.410510   
     39. A(C   2,C   3,C   4)          118.9858         0.430048   
     40. A(C   5,C   4,H   8)          120.5611         0.356174   
     41. A(C   3,C   4,C   5)          120.3224         0.433362   
     42. A(C   3,C   4,H   8)          119.1164         0.353003   
     43. A(C   0,C   5,C   4)          120.2721         0.434980   
     44. A(C   4,C   5,H  21)          119.8177         0.355967   
     45. A(C   0,C   5,H  21)          119.9102         0.354038   
     46. A(C   3,C   9,H  10)          115.1180         0.334478   
     47. A(H  10,C   9,N  11)          121.2753         0.370231   
     48. A(C   3,C   9,N  11)          123.6066         0.435447   
     49. A(C   9,N  11,C  12)          118.4071         0.429356   
     50. A(C  13,C  12,H  17)          109.7475         0.322644   
     51. A(N  11,C  12,H  17)          111.8848         0.329916   
     52. A(C  13,C  12,H  16)          108.8509         0.323575   
     53. A(H  16,C  12,H  17)          107.5881         0.288656   
     54. A(N  11,C  12,H  16)          107.6769         0.330877   
     55. A(N  11,C  12,C  13)          110.9674         0.372052   
     56. A(H  15,C  13,C  18)          109.8610         0.324004   
     57. A(H  14,C  13,C  18)          109.6754         0.323820   
     58. A(C  12,C  13,C  18)          112.7239         0.363843   
     59. A(H  14,C  13,H  15)          106.6590         0.289536   
     60. A(C  12,C  13,H  15)          108.9749         0.323716   
     61. A(C  12,C  13,H  14)          108.7565         0.323533   
     62. A(C  13,C  18,H  19)          109.2476         0.323831   
     63. A(H  20,C  18,C  23)          109.4356         0.324139   
     64. A(H  19,C  18,C  23)          109.5463         0.324109   
     65. A(C  13,C  18,C  23)          112.7529         0.364506   
     66. A(H  19,C  18,H  20)          106.3212         0.289424   
     67. A(C  13,C  18,H  20)          109.3322         0.323861   
     68. A(H  25,C  23,H  26)          107.7100         0.290101   
     69. A(H  24,C  23,H  26)          107.5680         0.289961   
     70. A(C  18,C  23,H  26)          111.1163         0.324443   
     71. A(H  24,C  23,H  25)          107.7009         0.290093   
     72. A(C  18,C  23,H  25)          111.4223         0.324598   
     73. A(C  18,C  23,H  24)          111.1423         0.324434   
     74. D(H  22,C   1,C   0,C   5)    179.9257         0.026973   
     75. D(C   2,C   1,C   0,H   6)   -179.9259         0.026973   
     76. D(C   2,C   1,C   0,C   5)      0.0322         0.026973   
     77. D(H  22,C   1,C   0,H   6)     -0.0324         0.026973   
     78. D(H   7,C   2,C   1,H  22)      0.0410         0.026976   
     79. D(H   7,C   2,C   1,C   0)    179.9348         0.026976   
     80. D(C   3,C   2,C   1,H  22)    179.9388         0.026976   
     81. D(C   3,C   2,C   1,C   0)     -0.1674         0.026976   
     82. D(C   9,C   3,C   2,C   1)   -179.7639         0.025451   
     83. D(C   4,C   3,C   2,C   1)      0.2186         0.025451   
     84. D(C   4,C   3,C   2,H   7)   -179.8830         0.025451   
     85. D(C   9,C   3,C   2,H   7)      0.1345         0.025451   
     86. D(C   5,C   4,C   3,C   9)    179.8450         0.024917   
     87. D(H   8,C   4,C   3,C   2)    179.9310         0.024917   
     88. D(C   5,C   4,C   3,C   2)     -0.1368         0.024917   
     89. D(H   8,C   4,C   3,C   9)     -0.0871         0.024917   
     90. D(C   0,C   5,C   4,H   8)    179.9359         0.027865   
     91. D(H  21,C   5,C   0,H   6)      0.0289         0.026031   
     92. D(H  21,C   5,C   0,C   1)   -179.9292         0.026031   
     93. D(C   4,C   5,C   0,H   6)   -179.9932         0.026031   
     94. D(C   0,C   5,C   4,C   3)      0.0047         0.027865   
     95. D(H  21,C   5,C   4,C   3)    179.9826         0.027865   
     96. D(C   4,C   5,C   0,C   1)      0.0487         0.026031   
     97. D(H  21,C   5,C   4,H   8)     -0.0862         0.027865   
     98. D(N  11,C   9,C   3,C   4)     -2.1659         0.014613   
     99. D(N  11,C   9,C   3,C   2)    177.8160         0.014613   
    100. D(H  10,C   9,C   3,C   4)    177.9562         0.014613   
    101. D(H  10,C   9,C   3,C   2)     -2.0619         0.014613   
    102. D(C  12,N  11,C   9,H  10)      0.7616         0.060522   
    103. D(C  12,N  11,C   9,C   3)   -179.1090         0.060522   
    104. D(C  13,C  12,N  11,C   9)    116.7886         0.015539   
    105. D(H  17,C  12,N  11,C   9)     -6.1587         0.015539   
    106. D(H  16,C  12,N  11,C   9)   -124.1796         0.015539   
    107. D(C  18,C  13,C  12,H  17)    -59.1572         0.011170   
    108. D(C  18,C  13,C  12,H  16)     58.3470         0.011170   
    109. D(C  18,C  13,C  12,N  11)    176.6705         0.011170   
    110. D(H  15,C  13,C  12,H  17)    178.6009         0.011170   
    111. D(H  15,C  13,C  12,H  16)    -63.8948         0.011170   
    112. D(H  15,C  13,C  12,N  11)     54.4286         0.011170   
    113. D(H  14,C  13,C  12,H  17)     62.6939         0.011170   
    114. D(H  14,C  13,C  12,H  16)   -179.8018         0.011170   
    115. D(H  14,C  13,C  12,N  11)    -61.4784         0.011170   
    116. D(C  23,C  18,C  13,H  15)    -59.6887         0.011285   
    117. D(C  23,C  18,C  13,H  14)     57.2391         0.011285   
    118. D(C  23,C  18,C  13,C  12)    178.5695         0.011285   
    119. D(H  20,C  18,C  13,H  15)    178.3382         0.011285   
    120. D(H  20,C  18,C  13,H  14)    -64.7340         0.011285   
    121. D(H  20,C  18,C  13,C  12)     56.5964         0.011285   
    122. D(H  19,C  18,C  13,H  15)     62.3654         0.011285   
    123. D(H  19,C  18,C  13,H  14)    179.2933         0.011285   
    124. D(H  19,C  18,C  13,C  12)    -59.3764         0.011285   
    125. D(H  26,C  23,C  18,H  20)     61.7638         0.011397   
    126. D(H  26,C  23,C  18,C  13)    -60.1510         0.011397   
    127. D(H  25,C  23,C  18,H  20)    -58.3567         0.011397   
    128. D(H  25,C  23,C  18,H  19)     57.8429         0.011397   
    129. D(H  25,C  23,C  18,C  13)    179.7286         0.011397   
    130. D(H  24,C  23,C  18,H  20)   -178.4831         0.011397   
    131. D(H  26,C  23,C  18,H  19)    177.9634         0.011397   
    132. D(H  24,C  23,C  18,H  19)    -62.2835         0.011397   
    133. D(H  24,C  23,C  18,C  13)     59.6022         0.011397   
    -----------------------------------------------------------------

Number of atoms                         .... 27
Number of degrees of freedom            .... 133

         *************************************************************
         *                GEOMETRY OPTIMIZATION CYCLE   1            *
         *************************************************************
      -----------------------------------------------------------      
     |                   =====================                   |     
     |                           x T B                           |     
     |                   =====================                   |     
     |                         S. Grimme                         |     
     |          Mulliken Center for Theoretical Chemistry        |     
     |                    University of Bonn                     |     
      -----------------------------------------------------------      

   * xtb version 6.3.0 (49875a8) compiled by 'schneider@apollo14' on 2020-05-23

   xtb is free software: you can redistribute it and/or modify it under
   the terms of the GNU Lesser General Public License as published by
   the Free Software Foundation, either version 3 of the License, or
   (at your option) any later version.
   
   xtb is distributed in the hope that it will be useful,
   but WITHOUT ANY WARRANTY; without even the implied warranty of
   MERCHANTABILITY or FITNESS FOR A PARTICULAR PURPOSE.  See the
   GNU Lesser General Public License for more details.
   
   Cite this work as:
   * S. Grimme, C. Bannwarth, P. Shushkov, J. Chem. Theory Comput., 2017,
     13, 1989-2009. DOI: 10.1021/acs.jctc.7b00118
   * C. Bannwarth, S. Ehlert and S. Grimme., J. Chem. Theory Comput., 2019,
     15, 1652-1671. DOI: 10.1021/acs.jctc.8b01176
   * P. Pracht, E. Caldeweyher, S. Ehlert, S. Grimme, ChemRxiv, 2019, preprint.
     DOI: 10.26434/chemrxiv.8326202.v1
   
   for GFN-FF:
   * S. Spicher and S. Grimme, Angew. Chem. Int. Ed., 2020,
     DOI: 10.1002/anie.202004239
   
   for DFT-D4:
   * E. Caldeweyher, C. Bannwarth and S. Grimme, J. Chem. Phys., 2017,
     147, 034112. DOI: 10.1063/1.4993215
   * E. Caldeweyher, S. Ehlert, A. Hansen, H. Neugebauer, S. Spicher,
     C. Bannwarth and S. Grimme, J. Chem. Phys., 2019, 150, 154122.
     DOI: 10.1063/1.5090222
   
   for sTDA-xTB:
   * S. Grimme and C. Bannwarth, J. Chem. Phys., 2016, 145, 054103.
     DOI: 10.1063/1.4959605
   
   in the mass-spec context:
   * V. Asgeirsson, C. Bauer and S. Grimme, Chem. Sci., 2017, 8, 4879.
     DOI: 10.1039/c7sc00601b
   * J. Koopman and S. Grimme, ACS Omega 2019, 4, 12, 15120-15133.
     DOI: 10.1021/acsomega.9b02011
   
   for metadynamics refer to:
   * S. Grimme, J. Chem. Theory Comput., 2019, 155, 2847-2862
     DOI: 10.1021/acs.jctc.9b00143
   
   with help from (in alphabetical order)
   C. Bannwarth, F. Bohle, G. Brandenburg, E. Caldeweyher, M. Checinski,
   S. Dohm, S. Ehlert, S. Ehrlich, F. März, H. Neugebauer, J. Pisarek,
   P. Pracht, P. Shushkov, and S. Spicher.
   
 * started run on 2020/06/19 at 16:15:47.775     

           -------------------------------------------------
          |                Calculation Setup                |
           -------------------------------------------------

          program call               : /opt/orca/otool_xtb opt+freq_XTB.xyz --grad -c 0 -u 0 -P 12 --namespace opt+freq --gbsa CH2Cl2
          calculation namespace      : opt+freq
          coordinate file            : opt+freq_XTB.xyz
          number of atoms            :                    27
          number of electrons        :                    64
          charge                     :                     0
          spin                       :                   0.0
          first test random number   :      0.14276419685329

   ID    Z sym.   atoms
    1    6 C      1-6, 10, 13, 14, 19, 24
    2    1 H      7-9, 11, 15-18, 20-23, 25-27
    3    7 N      12
########################################################################
[WARNING] Please study the warnings concerning your input carefully
-1- prog_main_parseArguments: Process number higher than OMP_NUM_THREADS, I hope you know what you are doing.
########################################################################
 Solvent             : CH2Cl2
 Using internal parameter file: .param_gbsa2_CH2Cl2
 Gsolv ref. state (COSMO-RS): gsolv [1 M gas/solution]
 temperature (mdtemp)       :    298.14999999999998     
 dielectric constant        :    8.9299999999999997     
 rho                        :    1.3300000000000003     
 mass                       :    84.930000000000007     
 surface tension            :    15.568945408385856     
 probe radius               :   0.71987590000000001     
 Gshift (Eh)                :    4.4408291734517593E-003
 c1                         :    1.4917377599999999     
 soset                      :    0.0000000000000000     
 HB correction              :  F

           -------------------------------------------------
          |                 G F N 2 - x T B                 |
           -------------------------------------------------

        Reference                      10.1021/acs.jctc.8b01176
      * Hamiltonian:
        H0-scaling (s, p, d)           1.850000    2.230000    2.230000
        zeta-weighting                 0.500000
      * Dispersion:
        s8                             2.700000
        a1                             0.520000
        a2                             5.000000
        s9                             5.000000
      * Repulsion:
        kExp                           1.500000    1.000000
        rExp                           1.000000
      * Coulomb:
        alpha                          2.000000
        third order                    shell-resolved
        anisotropic                    true
        a3                             3.000000
        a5                             4.000000
        cn-shift                       1.200000
        cn-exp                         4.000000
        max-rad                        5.000000


          ...................................................
          :                      SETUP                      :
          :.................................................:
          :  # basis functions                  63          :
          :  # atomic orbitals                  63          :
          :  # shells                           39          :
          :  # electrons                        64          :
          :  max. iterations                   250          :
          :  Hamiltonian                  GFN2-xTB          :
          :  restarted?                      false          :
          :  GBSA solvation                   true          :
          :  PC potential                    false          :
          :  electronic temp.          300.0000000     K    :
          :  accuracy                    1.0000000          :
          :  -> integral cutoff          0.2500000E+02      :
          :  -> integral neglect         0.1000000E-07      :
          :  -> SCF convergence          0.1000000E-05 Eh   :
          :  -> wf. convergence          0.1000000E-03 e    :
          :  Broyden damping             0.4000000          :
          ...................................................

 iter      E             dE          RMSdq      gap      omega  full diag
   1    -34.6221785 -0.346222E+02  0.372E+00    3.28       0.0  T
   2    -34.6566267 -0.344482E-01  0.221E+00    3.16       1.0  T
   3    -34.6539371  0.268960E-02  0.750E-01    2.85       1.0  T
   4    -34.6582192 -0.428212E-02  0.339E-01    2.95       1.0  T
   5    -34.6601339 -0.191469E-02  0.652E-02    2.88       1.0  T
   6    -34.6601456 -0.116483E-04  0.332E-02    2.89       1.0  T
   7    -34.6601524 -0.685198E-05  0.140E-02    2.89       1.4  T
   8    -34.6601533 -0.895790E-06  0.340E-03    2.89       5.7  T
   9    -34.6601534 -0.103749E-06  0.135E-03    2.89      14.2  T
  10    -34.6601534 -0.331711E-08  0.822E-04    2.89      23.4  T
  11    -34.6601534 -0.421698E-08  0.210E-04    2.89      91.6  T

   *** convergence criteria satisfied after 11 iterations ***

         #    Occupation            Energy/Eh            Energy/eV
      -------------------------------------------------------------
         1        2.0000           -0.6496300             -17.6773
       ...           ...                  ...                  ...
        26        2.0000           -0.4377999             -11.9131
        27        2.0000           -0.4284293             -11.6582
        28        2.0000           -0.4250670             -11.5667
        29        2.0000           -0.4227385             -11.5033
        30        2.0000           -0.4086548             -11.1201
        31        2.0000           -0.3986131             -10.8468
        32        2.0000           -0.3761510             -10.2356 (HOMO)
        33                         -0.2699371              -7.3454 (LUMO)
        34                         -0.2285038              -6.2179
        35                         -0.1891238              -5.1463
        36                         -0.0883744              -2.4048
        37                          0.0326617               0.8888
       ...                                ...                  ...
        63                          0.6461216              17.5819
      -------------------------------------------------------------
                  HL-Gap            0.1062139 Eh            2.8902 eV
             Fermi-level           -0.3230440 Eh           -8.7905 eV

 SCC (total)                   0 d,  0 h,  0 min,  0.106 sec
 SCC setup                      ...        0 min,  0.001 sec (  0.869%)
 Dispersion                     ...        0 min,  0.000 sec (  0.288%)
 classical contributions        ...        0 min,  0.000 sec (  0.093%)
 integral evaluation            ...        0 min,  0.012 sec ( 11.374%)
 iterations                     ...        0 min,  0.041 sec ( 38.991%)
 molecular gradient             ...        0 min,  0.051 sec ( 47.638%)
 printout                       ...        0 min,  0.001 sec (  0.728%)

         :::::::::::::::::::::::::::::::::::::::::::::::::::::
         ::                     SUMMARY                     ::
         :::::::::::::::::::::::::::::::::::::::::::::::::::::
         :: total energy             -34.111726491868 Eh    ::
         :: total w/o Gsasa/hb       -34.096335276640 Eh    ::
         :: gradient norm              0.023917207251 Eh/a0 ::
         :: HOMO-LUMO gap              2.890226942141 eV    ::
         ::.................................................::
         :: SCC energy               -34.675544654969 Eh    ::
         :: -> isotropic ES            0.011424332121 Eh    ::
         :: -> anisotropic ES          0.005796305011 Eh    ::
         :: -> anisotropic XC          0.028374789374 Eh    ::
         :: -> dispersion             -0.020193795025 Eh    ::
         :: -> Gsolv                  -0.016906006766 Eh    ::
         ::    -> Gborn               -0.001514791539 Eh    ::
         ::    -> Gsasa               -0.019832044401 Eh    ::
         ::    -> Ghb                  0.000000000000 Eh    ::
         ::    -> Gshift               0.004440829173 Eh    ::
         :: repulsion energy           0.563963912112 Eh    ::
         :: add. restraining           0.000000000000 Eh    ::
         :::::::::::::::::::::::::::::::::::::::::::::::::::::

           -------------------------------------------------
          |                Property Printout                |
           -------------------------------------------------

    * Orbital Energies and Occupations

         #    Occupation            Energy/Eh            Energy/eV
      -------------------------------------------------------------
         1        2.0000           -0.6496300             -17.6773
       ...           ...                  ...                  ...
        20        2.0000           -0.4798462             -13.0573
        21        2.0000           -0.4748421             -12.9211
        22        2.0000           -0.4722625             -12.8509
        23        2.0000           -0.4603932             -12.5279
        24        2.0000           -0.4456852             -12.1277
        25        2.0000           -0.4382352             -11.9250
        26        2.0000           -0.4377999             -11.9131
        27        2.0000           -0.4284293             -11.6582
        28        2.0000           -0.4250670             -11.5667
        29        2.0000           -0.4227385             -11.5033
        30        2.0000           -0.4086548             -11.1201
        31        2.0000           -0.3986131             -10.8468
        32        2.0000           -0.3761510             -10.2356 (HOMO)
        33                         -0.2699371              -7.3454 (LUMO)
        34                         -0.2285038              -6.2179
        35                         -0.1891238              -5.1463
        36                         -0.0883744              -2.4048
        37                          0.0326617               0.8888
        38                          0.0968895               2.6365
        39                          0.1011304               2.7519
        40                          0.1156463               3.1469
        41                          0.1189189               3.2359
        42                          0.1320470               3.5932
        43                          0.1473037               4.0083
       ...                                ...                  ...
        63                          0.6461216              17.5819
      -------------------------------------------------------------
                  HL-Gap            0.1062139 Eh            2.8902 eV
             Fermi-level           -0.3230440 Eh           -8.7905 eV

     #   Z        covCN         q      C6AA      α(0)
     1   6 C      2.915    -0.026    28.647     8.777
     2   6 C      2.913    -0.029    28.733     8.790
     3   6 C      2.921    -0.031    28.763     8.795
     4   6 C      2.969     0.005    27.907     8.665
     5   6 C      2.918    -0.025    28.618     8.773
     6   6 C      2.914    -0.028    28.698     8.785
     7   1 H      0.925     0.042     2.428     2.437
     8   1 H      0.925     0.035     2.520     2.483
     9   1 H      0.926     0.053     2.286     2.364
    10   6 C      2.857     0.077    26.271     8.401
    11   1 H      0.924    -0.004     3.120     2.762
    12   7 N      1.825    -0.256    27.508     7.772
    13   6 C      3.767     0.023    20.231     6.411
    14   6 C      3.802    -0.056    21.579     6.614
    15   1 H      0.924     0.031     2.567     2.505
    16   1 H      0.924     0.044     2.395     2.420
    17   1 H      0.924     0.041     2.439     2.442
    18   1 H      0.923     0.005     2.968     2.694
    19   6 C      3.800    -0.052    21.511     6.604
    20   1 H      0.924     0.032     2.554     2.499
    21   1 H      0.924     0.030     2.589     2.516
    22   1 H      0.925     0.042     2.421     2.433
    23   1 H      0.925     0.040     2.454     2.450
    24   6 C      3.750    -0.102    22.504     6.766
    25   1 H      0.924     0.036     2.498     2.472
    26   1 H      0.924     0.037     2.486     2.466
    27   1 H      0.924     0.035     2.522     2.484

 Mol. C6AA /au·bohr⁶  :       7188.568989
 Mol. C8AA /au·bohr⁸  :     165614.073790
 Mol. α(0) /au        :        132.576908


Wiberg/Mayer (AO) data.
largest (>0.10) Wiberg bond orders for each atom
          total WBO             WBO to atom ...
     1  C   3.988        C    2 1.438    C    6 1.423    H    7 0.971    C    4 0.100
     2  C   3.991        C    3 1.449    C    1 1.438    H   23 0.971    C    5 0.107
     3  C   3.987        C    2 1.449    C    4 1.383    H    8 0.969    C    6 0.105
     4  C   3.988        C    3 1.383    C    5 1.368    C   10 1.079    C    1 0.100
     5  C   3.990        C    6 1.466    C    4 1.368    H    9 0.968    C    2 0.107
     6  C   3.991        C    5 1.466    C    1 1.423    H   22 0.970    C    3 0.105
     7  H   0.998        C    1 0.971
     8  H   0.999        C    3 0.969
     9  H   0.997        C    5 0.968
    10  C   3.970        N   12 1.849    C    4 1.079    H   11 0.939
    11  H   1.000        C   10 0.939
    12  N   3.064        C   10 1.849    C   13 1.024
    13  C   3.985        N   12 1.024    C   14 0.987    H   18 0.965    H   17 0.959
    14  C   3.991        C   19 1.006    C   13 0.987    H   15 0.978    H   16 0.977
    15  H   0.999        C   14 0.978
    16  H   0.998        C   14 0.977
    17  H   0.995        C   13 0.959
    18  H   1.000        C   13 0.965
    19  C   3.996        C   24 1.019    C   14 1.006    H   21 0.978    H   20 0.978
    20  H   0.999        C   19 0.978
    21  H   0.999        C   19 0.978
    22  H   0.998        C    6 0.970
    23  H   0.998        C    2 0.971
    24  C   3.995        C   19 1.019    H   27 0.988    H   25 0.988    H   26 0.987
    25  H   0.999        C   24 0.988
    26  H   0.998        C   24 0.987
    27  H   0.999        C   24 0.988
Topologies differ in total number of bonds
Writing topology from bond orders to xtbtopo.mol

molecular dipole:
                 x           y           z       tot (Debye)
 q only:       -0.156      -0.252       0.107
   full:       -0.454       0.023       0.242       1.309
molecular quadrupole (traceless):
                xx          xy          yy          xz          yz          zz
 q only:        6.700       6.812      -4.179      -3.041       1.014      -2.521
  q+dip:       11.491      -3.866      -1.162     -11.285       6.439     -10.330
   full:       10.195      -3.741      -2.401      -9.056       5.446      -7.793


           -------------------------------------------------
          | TOTAL ENERGY              -34.111726491868 Eh   |
          | GRADIENT NORM               0.023917207251 Eh/α |
          | HOMO-LUMO GAP               2.890226942141 eV   |
           -------------------------------------------------

------------------------------------------------------------------------
 * finished run on 2020/06/19 at 16:15:47.927     
------------------------------------------------------------------------
 total:
 * wall-time:     0 d,  0 h,  0 min,  0.153 sec
 *  cpu-time:     0 d,  0 h,  0 min,  1.650 sec
 * ratio c/w:    10.815 speedup
 SCF:
 * wall-time:     0 d,  0 h,  0 min,  0.107 sec
 *  cpu-time:     0 d,  0 h,  0 min,  1.174 sec
 * ratio c/w:    10.963 speedup


-------------------------   --------------------
FINAL SINGLE POINT ENERGY       -34.111726491870
-------------------------   --------------------

------------------------------------------------------------------------------
                         ORCA GEOMETRY RELAXATION STEP
------------------------------------------------------------------------------

Reading the OPT-File                    .... done
Getting information on internals        .... done
Copying old internal coords+grads       .... done
Making the new internal coordinates     .... (new redundants).... done
Validating the new internal coordinates .... (new redundants).... done
Calculating the B-matrix                .... done
Calculating the G,G- and P matrices     .... done
Transforming gradient to internals      .... done
Projecting the internal gradient        .... done
Number of atoms                         ....  27
Number of internal coordinates          .... 133
Current Energy                          ....   -34.111726492 Eh
Current gradient norm                   ....     0.023917207 Eh/bohr
Maximum allowed component of the step   ....  0.300
Current trust radius                    ....  0.300
Evaluating the initial hessian          ....  (Almloef) done
Projecting the Hessian                  .... done
Forming the augmented Hessian           .... done
Diagonalizing the augmented Hessian     .... done
Last element of RFO vector              ....  0.996739601
Lowest eigenvalues of augmented Hessian:
 -0.001919882  0.011170284  0.011286033  0.011396702  0.014619394
Length of the computed step             ....  0.080949535
The final length of the internal step   ....  0.080949535
Converting the step to cartesian space:
 Initial RMS(Int)=    0.0070192149
Transforming coordinates:
 Iter   0:  RMS(Cart)=    0.0572649408 RMS(Int)=    0.0069439461
 Iter   1:  RMS(Cart)=    0.0008636795 RMS(Int)=    0.0002818965
 Iter   2:  RMS(Cart)=    0.0000202294 RMS(Int)=    0.0000033819
 Iter   3:  RMS(Cart)=    0.0000005512 RMS(Int)=    0.0000002211
 Iter   4:  RMS(Cart)=    0.0000000143 RMS(Int)=    0.0000000030
done
Storing new coordinates                 .... done

                                .--------------------.
          ----------------------|Geometry convergence|-------------------------
          Item                value                   Tolerance       Converged
          ---------------------------------------------------------------------
          RMS gradient        0.0025155406            0.0001000000      NO
          MAX gradient        0.0132760873            0.0003000000      NO
          RMS step            0.0070192149            0.0020000000      NO
          MAX step            0.0297580039            0.0040000000      NO
          ........................................................
          Max(Bonds)      0.0157      Max(Angles)    0.71
          Max(Dihed)        0.88      Max(Improp)    0.00
          ---------------------------------------------------------------------

The optimization has not yet converged - more geometry cycles are needed


    ---------------------------------------------------------------------------
                         Redundant Internal Coordinates
                            (Angstroem and degrees)

        Definition                    Value    dE/dq     Step     New-Value
    ----------------------------------------------------------------------------
     1. B(C   1,C   0)                1.3903  0.005189 -0.0044    1.3859   
     2. B(C   2,C   1)                1.3903  0.007475 -0.0063    1.3840   
     3. B(C   3,C   2)                1.3978  0.003970 -0.0034    1.3944   
     4. B(C   4,C   3)                1.4005  0.006141 -0.0054    1.3952   
     5. B(C   5,C   4)                1.3861  0.005801 -0.0048    1.3813   
     6. B(C   5,C   0)                1.3949  0.007013 -0.0061    1.3888   
     7. B(H   6,C   0)                1.0820  0.001458 -0.0021    1.0800   
     8. B(H   7,C   2)                1.0831  0.001269 -0.0018    1.0813   
     9. B(H   8,C   4)                1.0812  0.001587 -0.0022    1.0789   
    10. B(C   9,C   3)                1.4715  0.012385 -0.0141    1.4574   
    11. B(H  10,C   9)                1.0977 -0.002414  0.0036    1.1013   
    12. B(N  11,C   9)                1.2680  0.008136 -0.0049    1.2631   
    13. B(C  12,N  11)                1.4529  0.013276 -0.0157    1.4371   
    14. B(C  13,C  12)                1.5297  0.001098 -0.0015    1.5281   
    15. B(H  14,C  13)                1.0944  0.000084 -0.0001    1.0942   
    16. B(H  15,C  13)                1.0934  0.000715 -0.0011    1.0924   
    17. B(H  16,C  12)                1.0941 -0.000740  0.0011    1.0952   
    18. B(H  17,C  12)                1.0989 -0.002636  0.0040    1.1029   
    19. B(C  18,C  13)                1.5282  0.002651 -0.0037    1.5245   
    20. B(H  19,C  18)                1.0943  0.000481 -0.0007    1.0936   
    21. B(H  20,C  18)                1.0942  0.000100 -0.0001    1.0940   
    22. B(H  21,C   5)                1.0821  0.001468 -0.0021    1.0800   
    23. B(H  22,C   1)                1.0820  0.001399 -0.0020    1.0800   
    24. B(C  23,C  18)                1.5268  0.004174 -0.0058    1.5210   
    25. B(H  24,C  23)                1.0926  0.002542 -0.0038    1.0889   
    26. B(H  25,C  23)                1.0918  0.002474 -0.0036    1.0882   
    27. B(H  26,C  23)                1.0926  0.002404 -0.0035    1.0891   
    28. A(C   1,C   0,H   6)          120.10  0.000320   -0.04    120.07   
    29. A(C   5,C   0,H   6)          120.05  0.000288   -0.03    120.01   
    30. A(C   1,C   0,C   5)          119.85 -0.000607    0.07    119.92   
    31. A(C   0,C   1,C   2)          119.91 -0.000397    0.05    119.96   
    32. A(C   2,C   1,H  22)          119.93  0.000298   -0.04    119.89   
    33. A(C   0,C   1,H  22)          120.16  0.000099   -0.01    120.15   
    34. A(C   3,C   2,H   7)          119.36 -0.001111    0.16    119.52   
    35. A(C   1,C   2,H   7)          119.98 -0.000129    0.00    119.98   
    36. A(C   1,C   2,C   3)          120.66  0.001240   -0.16    120.50   
    37. A(C   4,C   3,C   9)          122.13  0.003568   -0.50    121.62   
    38. A(C   2,C   3,C   9)          118.89 -0.002645    0.36    119.25   
    39. A(C   2,C   3,C   4)          118.99 -0.000923    0.14    119.12   
    40. A(C   5,C   4,H   8)          120.56 -0.001498    0.23    120.79   
    41. A(C   3,C   4,C   5)          120.32  0.000552   -0.07    120.25   
    42. A(C   3,C   4,H   8)          119.12  0.000946   -0.16    118.96   
    43. A(C   0,C   5,C   4)          120.27  0.000135   -0.03    120.25   
    44. A(C   4,C   5,H  21)          119.82 -0.000128    0.02    119.84   
    45. A(C   0,C   5,H  21)          119.91 -0.000007    0.00    119.91   
    46. A(C   3,C   9,H  10)          115.12 -0.001342    0.18    115.30   
    47. A(H  10,C   9,N  11)          121.28 -0.003694    0.52    121.80   
    48. A(C   3,C   9,N  11)          123.61  0.005035   -0.70    122.91   
    49. A(C   9,N  11,C  12)          118.41 -0.004759    0.63    119.04   
    50. A(C  13,C  12,H  17)          109.75 -0.000870    0.24    109.99   
    51. A(N  11,C  12,H  17)          111.88 -0.001002    0.10    111.98   
    52. A(C  13,C  12,H  16)          108.85 -0.001265    0.19    109.04   
    53. A(H  16,C  12,H  17)          107.59 -0.000677    0.62    108.21   
    54. A(N  11,C  12,H  16)          107.68  0.000471   -0.41    107.27   
    55. A(N  11,C  12,C  13)          110.97  0.003221   -0.71    110.25   
    56. A(H  15,C  13,C  18)          109.86 -0.000778    0.05    109.91   
    57. A(H  14,C  13,C  18)          109.68 -0.000509    0.08    109.76   
    58. A(C  12,C  13,C  18)          112.72  0.002436   -0.56    112.16   
    59. A(H  14,C  13,H  15)          106.66 -0.000280    0.46    107.12   
    60. A(C  12,C  13,H  15)          108.97 -0.000206   -0.11    108.87   
    61. A(C  12,C  13,H  14)          108.76 -0.000808    0.13    108.88   
    62. A(C  13,C  18,H  19)          109.25 -0.000779    0.06    109.31   
    63. A(H  20,C  18,C  23)          109.44 -0.000574    0.02    109.45   
    64. A(H  19,C  18,C  23)          109.55 -0.000440   -0.03    109.51   
    65. A(C  13,C  18,C  23)          112.75  0.002816   -0.67    112.08   
    66. A(H  19,C  18,H  20)          106.32 -0.000496    0.63    106.95   
    67. A(C  13,C  18,H  20)          109.33 -0.000722    0.07    109.40   
    68. A(H  25,C  23,H  26)          107.71 -0.001857    0.33    108.04   
    69. A(H  24,C  23,H  26)          107.57 -0.001537    0.32    107.89   
    70. A(C  18,C  23,H  26)          111.12  0.001214   -0.22    110.90   
    71. A(H  24,C  23,H  25)          107.70 -0.001946    0.34    108.04   
    72. A(C  18,C  23,H  25)          111.42  0.002369   -0.45    110.97   
    73. A(C  18,C  23,H  24)          111.14  0.001441   -0.26    110.88   
    74. D(H  22,C   1,C   0,C   5)    179.93 -0.000030    0.06    179.99   
    75. D(C   2,C   1,C   0,H   6)   -179.93  0.000010   -0.02   -179.95   
    76. D(C   2,C   1,C   0,C   5)      0.03 -0.000008    0.02      0.05   
    77. D(H  22,C   1,C   0,H   6)     -0.03 -0.000012    0.02     -0.01   
    78. D(H   7,C   2,C   1,H  22)      0.04  0.000003   -0.01      0.03   
    79. D(H   7,C   2,C   1,C   0)    179.93 -0.000019    0.04    179.97   
    80. D(C   3,C   2,C   1,H  22)    179.94 -0.000002    0.00    179.94   
    81. D(C   3,C   2,C   1,C   0)     -0.17 -0.000024    0.05     -0.12   
    82. D(C   9,C   3,C   2,C   1)   -179.76  0.000014   -0.02   -179.79   
    83. D(C   4,C   3,C   2,C   1)      0.22  0.000043   -0.09      0.13   
    84. D(C   4,C   3,C   2,H   7)   -179.88  0.000038   -0.08   -179.97   
    85. D(C   9,C   3,C   2,H   7)      0.13  0.000009   -0.01      0.12   
    86. D(C   5,C   4,C   3,C   9)    179.85 -0.000003    0.00    179.85   
    87. D(H   8,C   4,C   3,C   2)    179.93 -0.000021    0.05    179.98   
    88. D(C   5,C   4,C   3,C   2)     -0.14 -0.000032    0.07     -0.06   
    89. D(H   8,C   4,C   3,C   9)     -0.09  0.000008   -0.02     -0.11   
    90. D(C   0,C   5,C   4,H   8)    179.94 -0.000006    0.01    179.95   
    91. D(H  21,C   5,C   0,H   6)      0.03 -0.000006    0.01      0.04   
    92. D(H  21,C   5,C   0,C   1)   -179.93  0.000012   -0.03   -179.95   
    93. D(C   4,C   5,C   0,H   6)   -179.99 -0.000002    0.00   -179.99   
    94. D(C   0,C   5,C   4,C   3)      0.00  0.000004   -0.01     -0.00   
    95. D(H  21,C   5,C   4,C   3)    179.98  0.000008   -0.02    179.96   
    96. D(C   4,C   5,C   0,C   1)      0.05  0.000016   -0.03      0.01   
    97. D(H  21,C   5,C   4,H   8)     -0.09 -0.000001    0.00     -0.08   
    98. D(N  11,C   9,C   3,C   4)     -2.17 -0.000297    0.80     -1.37   
    99. D(N  11,C   9,C   3,C   2)    177.82 -0.000268    0.73    178.54   
   100. D(H  10,C   9,C   3,C   4)    177.96 -0.000047    0.36    178.32   
   101. D(H  10,C   9,C   3,C   2)     -2.06 -0.000018    0.29     -1.77   
   102. D(C  12,N  11,C   9,H  10)      0.76 -0.000278    0.36      1.13   
   103. D(C  12,N  11,C   9,C   3)   -179.11 -0.000016   -0.09   -179.20   
   104. D(C  13,C  12,N  11,C   9)    116.79 -0.000164    0.51    117.30   
   105. D(H  17,C  12,N  11,C   9)     -6.16 -0.000662    0.65     -5.51   
   106. D(H  16,C  12,N  11,C   9)   -124.18  0.000446    0.08   -124.10   
   107. D(C  18,C  13,C  12,H  17)    -59.16  0.000853   -0.56    -59.72   
   108. D(C  18,C  13,C  12,H  16)     58.35 -0.001198    0.44     58.78   
   109. D(C  18,C  13,C  12,N  11)    176.67  0.000511   -0.37    176.30   
   110. D(H  15,C  13,C  12,H  17)    178.60  0.000358   -0.18    178.42   
   111. D(H  15,C  13,C  12,H  16)    -63.89 -0.001693    0.82    -63.07   
   112. D(H  15,C  13,C  12,N  11)     54.43  0.000016    0.02     54.45   
   113. D(H  14,C  13,C  12,H  17)     62.69  0.001246   -0.74     61.96   
   114. D(H  14,C  13,C  12,H  16)   -179.80 -0.000805    0.26   -179.54   
   115. D(H  14,C  13,C  12,N  11)    -61.48  0.000904   -0.54    -62.02   
   116. D(C  23,C  18,C  13,H  15)    -59.69  0.000555   -0.14    -59.83   
   117. D(C  23,C  18,C  13,H  14)     57.24 -0.000538    0.50     57.73   
   118. D(C  23,C  18,C  13,C  12)    178.57 -0.000289    0.34    178.91   
   119. D(H  20,C  18,C  13,H  15)    178.34 -0.000097    0.24    178.58   
   120. D(H  20,C  18,C  13,H  14)    -64.73 -0.001191    0.88    -63.86   
   121. D(H  20,C  18,C  13,C  12)     56.60 -0.000942    0.72     57.32   
   122. D(H  19,C  18,C  13,H  15)     62.37  0.001337   -0.60     61.77   
   123. D(H  19,C  18,C  13,H  14)    179.29  0.000244    0.04    179.34   
   124. D(H  19,C  18,C  13,C  12)    -59.38  0.000493   -0.11    -59.49   
   125. D(H  26,C  23,C  18,H  20)     61.76  0.000651   -0.36     61.40   
   126. D(H  26,C  23,C  18,C  13)    -60.15  0.000079   -0.01    -60.16   
   127. D(H  25,C  23,C  18,H  20)    -58.36  0.000587   -0.33    -58.69   
   128. D(H  25,C  23,C  18,H  19)     57.84 -0.000587    0.42     58.26   
   129. D(H  25,C  23,C  18,C  13)    179.73  0.000014    0.02    179.75   
   130. D(H  24,C  23,C  18,H  20)   -178.48  0.000480   -0.28   -178.76   
   131. D(H  26,C  23,C  18,H  19)    177.96 -0.000522    0.39    178.35   
   132. D(H  24,C  23,C  18,H  19)    -62.28 -0.000694    0.47    -61.81   
   133. D(H  24,C  23,C  18,C  13)     59.60 -0.000093    0.07     59.67   
    ----------------------------------------------------------------------------

         *************************************************************
         *                GEOMETRY OPTIMIZATION CYCLE   2            *
         *************************************************************
      -----------------------------------------------------------      
     |                   =====================                   |     
     |                           x T B                           |     
     |                   =====================                   |     
     |                         S. Grimme                         |     
     |          Mulliken Center for Theoretical Chemistry        |     
     |                    University of Bonn                     |     
      -----------------------------------------------------------      

   * xtb version 6.3.0 (49875a8) compiled by 'schneider@apollo14' on 2020-05-23

   xtb is free software: you can redistribute it and/or modify it under
   the terms of the GNU Lesser General Public License as published by
   the Free Software Foundation, either version 3 of the License, or
   (at your option) any later version.
   
   xtb is distributed in the hope that it will be useful,
   but WITHOUT ANY WARRANTY; without even the implied warranty of
   MERCHANTABILITY or FITNESS FOR A PARTICULAR PURPOSE.  See the
   GNU Lesser General Public License for more details.
   
   Cite this work as:
   * S. Grimme, C. Bannwarth, P. Shushkov, J. Chem. Theory Comput., 2017,
     13, 1989-2009. DOI: 10.1021/acs.jctc.7b00118
   * C. Bannwarth, S. Ehlert and S. Grimme., J. Chem. Theory Comput., 2019,
     15, 1652-1671. DOI: 10.1021/acs.jctc.8b01176
   * P. Pracht, E. Caldeweyher, S. Ehlert, S. Grimme, ChemRxiv, 2019, preprint.
     DOI: 10.26434/chemrxiv.8326202.v1
   
   for GFN-FF:
   * S. Spicher and S. Grimme, Angew. Chem. Int. Ed., 2020,
     DOI: 10.1002/anie.202004239
   
   for DFT-D4:
   * E. Caldeweyher, C. Bannwarth and S. Grimme, J. Chem. Phys., 2017,
     147, 034112. DOI: 10.1063/1.4993215
   * E. Caldeweyher, S. Ehlert, A. Hansen, H. Neugebauer, S. Spicher,
     C. Bannwarth and S. Grimme, J. Chem. Phys., 2019, 150, 154122.
     DOI: 10.1063/1.5090222
   
   for sTDA-xTB:
   * S. Grimme and C. Bannwarth, J. Chem. Phys., 2016, 145, 054103.
     DOI: 10.1063/1.4959605
   
   in the mass-spec context:
   * V. Asgeirsson, C. Bauer and S. Grimme, Chem. Sci., 2017, 8, 4879.
     DOI: 10.1039/c7sc00601b
   * J. Koopman and S. Grimme, ACS Omega 2019, 4, 12, 15120-15133.
     DOI: 10.1021/acsomega.9b02011
   
   for metadynamics refer to:
   * S. Grimme, J. Chem. Theory Comput., 2019, 155, 2847-2862
     DOI: 10.1021/acs.jctc.9b00143
   
   with help from (in alphabetical order)
   C. Bannwarth, F. Bohle, G. Brandenburg, E. Caldeweyher, M. Checinski,
   S. Dohm, S. Ehlert, S. Ehrlich, F. März, H. Neugebauer, J. Pisarek,
   P. Pracht, P. Shushkov, and S. Spicher.
   
 * started run on 2020/06/19 at 16:15:48.297     

           -------------------------------------------------
          |                Calculation Setup                |
           -------------------------------------------------

          program call               : /opt/orca/otool_xtb opt+freq_XTB.xyz --grad -c 0 -u 0 -P 12 --namespace opt+freq --gbsa CH2Cl2
          calculation namespace      : opt+freq
          coordinate file            : opt+freq_XTB.xyz
          number of atoms            :                    27
          number of electrons        :                    64
          charge                     :                     0
          spin                       :                   0.0
          first test random number   :      0.52979142305237

   ID    Z sym.   atoms
    1    6 C      1-6, 10, 13, 14, 19, 24
    2    1 H      7-9, 11, 15-18, 20-23, 25-27
    3    7 N      12
########################################################################
[WARNING] Please study the warnings concerning your input carefully
-1- prog_main_parseArguments: Process number higher than OMP_NUM_THREADS, I hope you know what you are doing.
########################################################################
 Solvent             : CH2Cl2
 Using internal parameter file: .param_gbsa2_CH2Cl2
 Gsolv ref. state (COSMO-RS): gsolv [1 M gas/solution]
 temperature (mdtemp)       :    298.14999999999998     
 dielectric constant        :    8.9299999999999997     
 rho                        :    1.3300000000000003     
 mass                       :    84.930000000000007     
 surface tension            :    15.568945408385856     
 probe radius               :   0.71987590000000001     
 Gshift (Eh)                :    4.4408291734517593E-003
 c1                         :    1.4917377599999999     
 soset                      :    0.0000000000000000     
 HB correction              :  F

           -------------------------------------------------
          |                 G F N 2 - x T B                 |
           -------------------------------------------------

        Reference                      10.1021/acs.jctc.8b01176
      * Hamiltonian:
        H0-scaling (s, p, d)           1.850000    2.230000    2.230000
        zeta-weighting                 0.500000
      * Dispersion:
        s8                             2.700000
        a1                             0.520000
        a2                             5.000000
        s9                             5.000000
      * Repulsion:
        kExp                           1.500000    1.000000
        rExp                           1.000000
      * Coulomb:
        alpha                          2.000000
        third order                    shell-resolved
        anisotropic                    true
        a3                             3.000000
        a5                             4.000000
        cn-shift                       1.200000
        cn-exp                         4.000000
        max-rad                        5.000000


          ...................................................
          :                      SETUP                      :
          :.................................................:
          :  # basis functions                  63          :
          :  # atomic orbitals                  63          :
          :  # shells                           39          :
          :  # electrons                        64          :
          :  max. iterations                   250          :
          :  Hamiltonian                  GFN2-xTB          :
          :  restarted?                      false          :
          :  GBSA solvation                   true          :
          :  PC potential                    false          :
          :  electronic temp.          300.0000000     K    :
          :  accuracy                    1.0000000          :
          :  -> integral cutoff          0.2500000E+02      :
          :  -> integral neglect         0.1000000E-07      :
          :  -> SCF convergence          0.1000000E-05 Eh   :
          :  -> wf. convergence          0.1000000E-03 e    :
          :  Broyden damping             0.4000000          :
          ...................................................

 iter      E             dE          RMSdq      gap      omega  full diag
   1    -34.6373100 -0.346373E+02  0.371E+00    3.28       0.0  T
   2    -34.6723875 -0.350775E-01  0.221E+00    3.17       1.0  T
   3    -34.6699390  0.244852E-02  0.751E-01    2.86       1.0  T
   4    -34.6740527 -0.411365E-02  0.337E-01    2.95       1.0  T
   5    -34.6759065 -0.185386E-02  0.642E-02    2.89       1.0  T
   6    -34.6759178 -0.112663E-04  0.318E-02    2.90       1.0  T
   7    -34.6759234 -0.557448E-05  0.136E-02    2.90       1.4  T
   8    -34.6759243 -0.915763E-06  0.334E-03    2.90       5.8  T
   9    -34.6759244 -0.989545E-07  0.135E-03    2.90      14.3  T
  10    -34.6759244 -0.288115E-08  0.800E-04    2.90      24.0  T
  11    -34.6759244 -0.409400E-08  0.202E-04    2.90      95.2  T

   *** convergence criteria satisfied after 11 iterations ***

         #    Occupation            Energy/Eh            Energy/eV
      -------------------------------------------------------------
         1        2.0000           -0.6511038             -17.7174
       ...           ...                  ...                  ...
        26        2.0000           -0.4375135             -11.9053
        27        2.0000           -0.4280676             -11.6483
        28        2.0000           -0.4248219             -11.5600
        29        2.0000           -0.4226866             -11.5019
        30        2.0000           -0.4093288             -11.1384
        31        2.0000           -0.3980975             -10.8328
        32        2.0000           -0.3755462             -10.2191 (HOMO)
        33                         -0.2690739              -7.3219 (LUMO)
        34                         -0.2269783              -6.1764
        35                         -0.1860281              -5.0621
        36                         -0.0842536              -2.2927
        37                          0.0492151               1.3392
       ...                                ...                  ...
        63                          0.6624099              18.0251
      -------------------------------------------------------------
                  HL-Gap            0.1064723 Eh            2.8973 eV
             Fermi-level           -0.3223101 Eh           -8.7705 eV

 SCC (total)                   0 d,  0 h,  0 min,  0.061 sec
 SCC setup                      ...        0 min,  0.001 sec (  1.587%)
 Dispersion                     ...        0 min,  0.000 sec (  0.504%)
 classical contributions        ...        0 min,  0.000 sec (  0.166%)
 integral evaluation            ...        0 min,  0.012 sec ( 19.965%)
 iterations                     ...        0 min,  0.028 sec ( 45.362%)
 molecular gradient             ...        0 min,  0.019 sec ( 31.987%)
 printout                       ...        0 min,  0.000 sec (  0.391%)

         :::::::::::::::::::::::::::::::::::::::::::::::::::::
         ::                     SUMMARY                     ::
         :::::::::::::::::::::::::::::::::::::::::::::::::::::
         :: total energy             -34.112907795774 Eh    ::
         :: total w/o Gsasa/hb       -34.097660194852 Eh    ::
         :: gradient norm              0.010521769404 Eh/a0 ::
         :: HOMO-LUMO gap              2.897259831150 eV    ::
         ::.................................................::
         :: SCC energy               -34.691171991268 Eh    ::
         :: -> isotropic ES            0.011293612645 Eh    ::
         :: -> anisotropic ES          0.005466304498 Eh    ::
         :: -> anisotropic XC          0.028028542566 Eh    ::
         :: -> dispersion             -0.020327349688 Eh    ::
         :: -> Gsolv                  -0.016701662926 Eh    ::
         ::    -> Gborn               -0.001454062003 Eh    ::
         ::    -> Gsasa               -0.019688430096 Eh    ::
         ::    -> Ghb                  0.000000000000 Eh    ::
         ::    -> Gshift               0.004440829173 Eh    ::
         :: repulsion energy           0.578408110280 Eh    ::
         :: add. restraining           0.000000000000 Eh    ::
         :::::::::::::::::::::::::::::::::::::::::::::::::::::

           -------------------------------------------------
          |                Property Printout                |
           -------------------------------------------------

    * Orbital Energies and Occupations

         #    Occupation            Energy/Eh            Energy/eV
      -------------------------------------------------------------
         1        2.0000           -0.6511038             -17.7174
       ...           ...                  ...                  ...
        20        2.0000           -0.4799466             -13.0600
        21        2.0000           -0.4747456             -12.9185
        22        2.0000           -0.4728152             -12.8660
        23        2.0000           -0.4604706             -12.5300
        24        2.0000           -0.4455655             -12.1245
        25        2.0000           -0.4385395             -11.9333
        26        2.0000           -0.4375135             -11.9053
        27        2.0000           -0.4280676             -11.6483
        28        2.0000           -0.4248219             -11.5600
        29        2.0000           -0.4226866             -11.5019
        30        2.0000           -0.4093288             -11.1384
        31        2.0000           -0.3980975             -10.8328
        32        2.0000           -0.3755462             -10.2191 (HOMO)
        33                         -0.2690739              -7.3219 (LUMO)
        34                         -0.2269783              -6.1764
        35                         -0.1860281              -5.0621
        36                         -0.0842536              -2.2927
        37                          0.0492151               1.3392
        38                          0.0999548               2.7199
        39                          0.1102292               2.9995
        40                          0.1166656               3.1746
        41                          0.1214035               3.3036
        42                          0.1357442               3.6938
        43                          0.1495680               4.0700
       ...                                ...                  ...
        63                          0.6624099              18.0251
      -------------------------------------------------------------
                  HL-Gap            0.1064723 Eh            2.8973 eV
             Fermi-level           -0.3223101 Eh           -8.7705 eV

     #   Z        covCN         q      C6AA      α(0)
     1   6 C      2.919    -0.026    28.648     8.777
     2   6 C      2.917    -0.029    28.732     8.790
     3   6 C      2.926    -0.031    28.771     8.796
     4   6 C      2.976     0.005    27.900     8.664
     5   6 C      2.923    -0.025    28.630     8.775
     6   6 C      2.918    -0.028    28.695     8.784
     7   1 H      0.926     0.041     2.431     2.438
     8   1 H      0.925     0.034     2.525     2.485
     9   1 H      0.926     0.053     2.278     2.360
    10   6 C      2.864     0.078    26.263     8.400
    11   1 H      0.923    -0.007     3.176     2.787
    12   7 N      1.829    -0.254    27.455     7.764
    13   6 C      3.772     0.025    20.186     6.402
    14   6 C      3.804    -0.056    21.581     6.613
    15   1 H      0.924     0.032     2.563     2.504
    16   1 H      0.924     0.045     2.384     2.415
    17   1 H      0.924     0.041     2.435     2.440
    18   1 H      0.923     0.003     3.008     2.712
    19   6 C      3.801    -0.052    21.515     6.604
    20   1 H      0.924     0.033     2.551     2.498
    21   1 H      0.924     0.030     2.589     2.516
    22   1 H      0.926     0.042     2.425     2.435
    23   1 H      0.926     0.039     2.460     2.453
    24   6 C      3.752    -0.103    22.524     6.768
    25   1 H      0.925     0.037     2.487     2.466
    26   1 H      0.925     0.038     2.481     2.463
    27   1 H      0.925     0.035     2.513     2.479

 Mol. C6AA /au·bohr⁶  :       7189.980813
 Mol. C8AA /au·bohr⁸  :     165628.926848
 Mol. α(0) /au        :        132.590505


Wiberg/Mayer (AO) data.
largest (>0.10) Wiberg bond orders for each atom
          total WBO             WBO to atom ...
     1  C   3.988        C    2 1.436    C    6 1.425    H    7 0.971    C    4 0.100
     2  C   3.992        C    3 1.453    C    1 1.436    H   23 0.970    C    5 0.107
     3  C   3.987        C    2 1.453    C    4 1.379    H    8 0.968    C    6 0.105
     4  C   3.989        C    3 1.379    C    5 1.368    C   10 1.086    C    1 0.100
     5  C   3.990        C    6 1.465    C    4 1.368    H    9 0.967    C    2 0.107
     6  C   3.992        C    5 1.465    C    1 1.425    H   22 0.970    C    3 0.105
     7  H   0.998        C    1 0.971
     8  H   0.999        C    3 0.968
     9  H   0.997        C    5 0.967
    10  C   3.971        N   12 1.844    C    4 1.086    H   11 0.937
    11  H   1.000        C   10 0.937
    12  N   3.071        C   10 1.844    C   13 1.031
    13  C   3.986        N   12 1.031    C   14 0.985    H   18 0.963    H   17 0.957
    14  C   3.991        C   19 1.007    C   13 0.985    H   15 0.978    H   16 0.976
    15  H   0.999        C   14 0.978
    16  H   0.998        C   14 0.976
    17  H   0.995        C   13 0.957
    18  H   1.000        C   13 0.963
    19  C   3.996        C   24 1.019    C   14 1.007    H   21 0.978    H   20 0.978
    20  H   0.999        C   19 0.978
    21  H   0.999        C   19 0.978
    22  H   0.998        C    6 0.970
    23  H   0.998        C    2 0.970
    24  C   3.995        C   19 1.019    H   27 0.988    H   25 0.988    H   26 0.987
    25  H   0.999        C   24 0.988
    26  H   0.998        C   24 0.987
    27  H   0.999        C   24 0.988
Topologies differ in total number of bonds
Writing topology from bond orders to xtbtopo.mol

molecular dipole:
                 x           y           z       tot (Debye)
 q only:       -0.110      -0.253       0.098
   full:       -0.411       0.022       0.226       1.195
molecular quadrupole (traceless):
                xx          xy          yy          xz          yz          zz
 q only:        5.739       7.433      -3.750      -2.443       0.780      -1.989
  q+dip:       10.688      -3.530      -0.854     -10.634       6.037      -9.835
   full:        9.370      -3.309      -2.060      -8.441       5.094      -7.309


           -------------------------------------------------
          | TOTAL ENERGY              -34.112907795774 Eh   |
          | GRADIENT NORM               0.010521769404 Eh/α |
          | HOMO-LUMO GAP               2.897259831150 eV   |
           -------------------------------------------------

------------------------------------------------------------------------
 * finished run on 2020/06/19 at 16:15:48.391     
------------------------------------------------------------------------
 total:
 * wall-time:     0 d,  0 h,  0 min,  0.094 sec
 *  cpu-time:     0 d,  0 h,  0 min,  1.032 sec
 * ratio c/w:    11.025 speedup
 SCF:
 * wall-time:     0 d,  0 h,  0 min,  0.061 sec
 *  cpu-time:     0 d,  0 h,  0 min,  0.685 sec
 * ratio c/w:    11.215 speedup


-------------------------   --------------------
FINAL SINGLE POINT ENERGY       -34.112907795770
-------------------------   --------------------

------------------------------------------------------------------------------
                         ORCA GEOMETRY RELAXATION STEP
------------------------------------------------------------------------------

Reading the OPT-File                    .... done
Getting information on internals        .... done
Copying old internal coords+grads       .... done
Making the new internal coordinates     .... (new redundants).... done
Validating the new internal coordinates .... (new redundants).... done
Calculating the B-matrix                .... done
Calculating the G,G- and P matrices     .... done
Transforming gradient to internals      .... done
Projecting the internal gradient        .... done
Number of atoms                         ....  27
Number of internal coordinates          .... 133
Current Energy                          ....   -34.112907796 Eh
Current gradient norm                   ....     0.010521769 Eh/bohr
Maximum allowed component of the step   ....  0.300
Current trust radius                    ....  0.300
Updating the Hessian (BFGS)             .... done
Forming the augmented Hessian           .... done
Diagonalizing the augmented Hessian     .... done
Last element of RFO vector              ....  0.998879816
Lowest eigenvalues of augmented Hessian:
 -0.000292560  0.011168832  0.011274566  0.011395897  0.014557390
Length of the computed step             ....  0.047372330
The final length of the internal step   ....  0.047372330
Converting the step to cartesian space:
 Initial RMS(Int)=    0.0041077020
Transforming coordinates:
 Iter   0:  RMS(Cart)=    0.0424604266 RMS(Int)=    0.7704485915
 Iter   1:  RMS(Cart)=    0.0006887272 RMS(Int)=    0.0002077581
 Iter   2:  RMS(Cart)=    0.0000118217 RMS(Int)=    0.0000018256
 Iter   3:  RMS(Cart)=    0.0000003155 RMS(Int)=    0.0000001199
 Iter   4:  RMS(Cart)=    0.0000000063 RMS(Int)=    0.0000000011
done
Storing new coordinates                 .... done

                                .--------------------.
          ----------------------|Geometry convergence|-------------------------
          Item                value                   Tolerance       Converged
          ---------------------------------------------------------------------
          Energy change      -0.0011813039            0.0000050000      NO
          RMS gradient        0.0007321805            0.0001000000      NO
          MAX gradient        0.0050245182            0.0003000000      NO
          RMS step            0.0041077020            0.0020000000      NO
          MAX step            0.0160003662            0.0040000000      NO
          ........................................................
          Max(Bonds)      0.0065      Max(Angles)    0.92
          Max(Dihed)        0.64      Max(Improp)    0.00
          ---------------------------------------------------------------------

The optimization has not yet converged - more geometry cycles are needed


    ---------------------------------------------------------------------------
                         Redundant Internal Coordinates
                            (Angstroem and degrees)

        Definition                    Value    dE/dq     Step     New-Value
    ----------------------------------------------------------------------------
     1. B(C   1,C   0)                1.3859  0.000221 -0.0007    1.3852   
     2. B(C   2,C   1)                1.3840  0.001119 -0.0018    1.3822   
     3. B(C   3,C   2)                1.3944 -0.000529  0.0003    1.3947   
     4. B(C   4,C   3)                1.3952  0.000035 -0.0005    1.3947   
     5. B(C   5,C   4)                1.3813  0.000257 -0.0007    1.3806   
     6. B(C   5,C   0)                1.3888  0.001176 -0.0019    1.3869   
     7. B(H   6,C   0)                1.0800 -0.000171  0.0001    1.0801   
     8. B(H   7,C   2)                1.0813 -0.000057 -0.0001    1.0813   
     9. B(H   8,C   4)                1.0789  0.000037 -0.0003    1.0787   
    10. B(C   9,C   3)                1.4574  0.001873 -0.0040    1.4534   
    11. B(H  10,C   9)                1.1013 -0.001011  0.0023    1.1036   
    12. B(N  11,C   9)                1.2631  0.000407 -0.0007    1.2623   
    13. B(C  12,N  11)                1.4371  0.003378 -0.0065    1.4306   
    14. B(C  13,C  12)                1.5281 -0.001225  0.0021    1.5302   
    15. B(H  14,C  13)                1.0942  0.000277 -0.0005    1.0937   
    16. B(H  15,C  13)                1.0924  0.000274 -0.0006    1.0917   
    17. B(H  16,C  12)                1.0952 -0.000289  0.0006    1.0959   
    18. B(H  17,C  12)                1.1029 -0.000859  0.0020    1.1049   
    19. B(C  18,C  13)                1.5245 -0.000693  0.0009    1.5254   
    20. B(H  19,C  18)                1.0936  0.000229 -0.0005    1.0931   
    21. B(H  20,C  18)                1.0940  0.000181 -0.0004    1.0936   
    22. B(H  21,C   5)                1.0800 -0.000171  0.0001    1.0801   
    23. B(H  22,C   1)                1.0800 -0.000196  0.0002    1.0802   
    24. B(C  23,C  18)                1.5210 -0.000923  0.0012    1.5221   
    25. B(H  24,C  23)                1.0889  0.000266 -0.0008    1.0881   
    26. B(H  25,C  23)                1.0882  0.000023 -0.0004    1.0878   
    27. B(H  26,C  23)                1.0891  0.000252 -0.0008    1.0883   
    28. A(C   1,C   0,H   6)          120.07  0.000184   -0.03    120.03   
    29. A(C   5,C   0,H   6)          120.01  0.000060   -0.01    120.01   
    30. A(C   1,C   0,C   5)          119.92 -0.000244    0.04    119.96   
    31. A(C   0,C   1,C   2)          119.96 -0.000303    0.05    120.01   
    32. A(C   2,C   1,H  22)          119.89  0.000132   -0.02    119.87   
    33. A(C   0,C   1,H  22)          120.15  0.000172   -0.03    120.12   
    34. A(C   3,C   2,H   7)          119.52 -0.000313    0.07    119.59   
    35. A(C   1,C   2,H   7)          119.98 -0.000025   -0.00    119.98   
    36. A(C   1,C   2,C   3)          120.50  0.000338   -0.07    120.43   
    37. A(C   4,C   3,C   9)          121.62  0.001905   -0.39    121.23   
    38. A(C   2,C   3,C   9)          119.25 -0.002036    0.39    119.64   
    39. A(C   2,C   3,C   4)          119.12  0.000131   -0.00    119.12   
    40. A(C   5,C   4,H   8)          120.79 -0.000965    0.22    121.01   
    41. A(C   3,C   4,C   5)          120.25 -0.000034    0.01    120.26   
    42. A(C   3,C   4,H   8)          118.96  0.000999   -0.22    118.73   
    43. A(C   0,C   5,C   4)          120.25  0.000112   -0.03    120.22   
    44. A(C   4,C   5,H  21)          119.84 -0.000141    0.03    119.87   
    45. A(C   0,C   5,H  21)          119.91  0.000029   -0.00    119.91   
    46. A(C   3,C   9,H  10)          115.29 -0.000762    0.16    115.45   
    47. A(H  10,C   9,N  11)          121.80 -0.000907    0.20    122.00   
    48. A(C   3,C   9,N  11)          122.91  0.001669   -0.36    122.55   
    49. A(C   9,N  11,C  12)          119.04 -0.005025    0.92    119.96   
    50. A(C  13,C  12,H  17)          109.99 -0.000023    0.06    110.05   
    51. A(N  11,C  12,H  17)          111.98 -0.000531    0.15    112.13   
    52. A(C  13,C  12,H  16)          109.04 -0.000140   -0.00    109.03   
    53. A(H  16,C  12,H  17)          108.21 -0.000322    0.32    108.52   
    54. A(N  11,C  12,H  16)          107.27  0.000092   -0.19    107.08   
    55. A(N  11,C  12,C  13)          110.25  0.000907   -0.32    109.93   
    56. A(H  15,C  13,C  18)          109.91 -0.000215    0.04    109.95   
    57. A(H  14,C  13,C  18)          109.76 -0.000017    0.03    109.79   
    58. A(C  12,C  13,C  18)          112.16  0.000204   -0.18    111.98   
    59. A(H  14,C  13,H  15)          107.12 -0.000347    0.34    107.46   
    60. A(C  12,C  13,H  15)          108.87  0.000337   -0.18    108.69   
    61. A(C  12,C  13,H  14)          108.88  0.000016   -0.02    108.86   
    62. A(C  13,C  18,H  19)          109.31 -0.000100   -0.01    109.30   
    63. A(H  20,C  18,C  23)          109.45 -0.000121   -0.00    109.45   
    64. A(H  19,C  18,C  23)          109.51 -0.000063   -0.03    109.48   
    65. A(C  13,C  18,C  23)          112.08  0.000629   -0.30    111.78   
    66. A(H  19,C  18,H  20)          106.95 -0.000339    0.41    107.36   
    67. A(C  13,C  18,H  20)          109.40 -0.000052   -0.02    109.38   
    68. A(H  25,C  23,H  26)          108.04 -0.000832    0.22    108.26   
    69. A(H  24,C  23,H  26)          107.89 -0.000788    0.24    108.12   
    70. A(C  18,C  23,H  26)          110.90  0.000645   -0.17    110.73   
    71. A(H  24,C  23,H  25)          108.04 -0.000888    0.23    108.27   
    72. A(C  18,C  23,H  25)          110.97  0.000980   -0.28    110.69   
    73. A(C  18,C  23,H  24)          110.88  0.000759   -0.20    110.68   
    74. D(H  22,C   1,C   0,C   5)    179.99 -0.000009    0.03    180.02   
    75. D(C   2,C   1,C   0,H   6)   -179.95 -0.000001    0.00   -179.95   
    76. D(C   2,C   1,C   0,C   5)      0.05 -0.000004    0.01      0.06   
    77. D(H  22,C   1,C   0,H   6)     -0.01 -0.000006    0.02      0.01   
    78. D(H   7,C   2,C   1,H  22)      0.03  0.000006   -0.02      0.02   
    79. D(H   7,C   2,C   1,C   0)    179.97  0.000001   -0.00    179.97   
    80. D(C   3,C   2,C   1,H  22)    179.94 -0.000003    0.01    179.95   
    81. D(C   3,C   2,C   1,C   0)     -0.12 -0.000008    0.03     -0.09   
    82. D(C   9,C   3,C   2,C   1)   -179.79  0.000017   -0.05   -179.84   
    83. D(C   4,C   3,C   2,C   1)      0.13  0.000019   -0.06      0.07   
    84. D(C   4,C   3,C   2,H   7)   -179.97  0.000009   -0.03   -180.00   
    85. D(C   9,C   3,C   2,H   7)      0.12  0.000007   -0.03      0.10   
    86. D(C   5,C   4,C   3,C   9)    179.85 -0.000018    0.05    179.89   
    87. D(H   8,C   4,C   3,C   2)    179.98 -0.000004    0.02    180.00   
    88. D(C   5,C   4,C   3,C   2)     -0.06 -0.000016    0.05     -0.01   
    89. D(H   8,C   4,C   3,C   9)     -0.11 -0.000006    0.01     -0.09   
    90. D(C   0,C   5,C   4,H   8)    179.95 -0.000007    0.02    179.97   
    91. D(H  21,C   5,C   0,H   6)      0.04  0.000005   -0.01      0.03   
    92. D(H  21,C   5,C   0,C   1)   -179.95  0.000009   -0.03   -179.98   
    93. D(C   4,C   5,C   0,H   6)   -179.99  0.000002   -0.01   -180.00   
    94. D(C   0,C   5,C   4,C   3)     -0.00  0.000004   -0.01     -0.02   
    95. D(H  21,C   5,C   4,C   3)    179.96  0.000001   -0.01    179.96   
    96. D(C   4,C   5,C   0,C   1)      0.01  0.000006   -0.02     -0.01   
[...]
     56      -0.001840  -0.009252   0.000805  -0.000577  -0.000037   0.000019
     57       0.013397  -0.035795  -0.009575  -0.002332  -0.000229   0.000088
     58       0.004106  -0.027890  -0.004889   0.000249  -0.000161   0.000072
     59      -0.026842   0.086339   0.020990   0.001004   0.000577  -0.000255
     60      -0.106544  -0.017031   0.058647   0.010715   0.000248  -0.000126
     61       0.091592   0.017490  -0.052887  -0.010142  -0.000241   0.000094
     62       0.047423   0.006346  -0.028361  -0.006997  -0.000137   0.000047
     63      -0.000079  -0.000025   0.000152  -0.000014   0.010986   0.327163
     64       0.000094   0.000042  -0.000213   0.000038  -0.012669  -0.413080
     65       0.000047   0.000005  -0.000091   0.000016  -0.006006  -0.186133
     66      -0.000329  -0.000118  -0.000211   0.000013  -0.348713  -0.373295
     67      -0.000106  -0.000029  -0.000028   0.000020  -0.069477  -0.072568
     68       0.000080   0.000032   0.000055  -0.000002   0.094516   0.101713
     69      -0.001237   0.050622  -0.014718  -0.039502   0.000086  -0.000021
     70       0.005841   0.024488   0.084363   0.001515  -0.000010  -0.000008
     71      -0.000122  -0.066849   0.019220  -0.019296   0.000015  -0.000005
     72       0.038814  -0.238165   0.480225   0.467655  -0.000949   0.000193
     73      -0.033254   0.244808  -0.383805  -0.421290   0.000856  -0.000186
     74      -0.017013   0.077773  -0.196617  -0.209843   0.000405  -0.000086
     75      -0.014988  -0.095531  -0.298449   0.196516  -0.000348   0.000151
     76      -0.032314  -0.295873  -0.687592   0.536151  -0.000922   0.000376
     77      -0.002240  -0.053525  -0.035322   0.026786  -0.000058   0.000026
     78      -0.008158  -0.278936  -0.003778  -0.175926   0.000234  -0.000072
     79      -0.004440  -0.246761   0.047141  -0.134842   0.000186  -0.000059
     80       0.020644   0.787525  -0.001254   0.425466  -0.000574   0.000152
                  78         79         80    
      0       0.003770   0.021621  -0.003568
      1       0.009580   0.056215  -0.006830
      2       0.000781   0.004720  -0.000281
      3      -0.051144   0.043711  -0.003200
      4      -0.010757   0.008330  -0.000523
      5       0.013764  -0.011931   0.000890
      6      -0.013313   0.008452  -0.001754
      7       0.016449  -0.011899   0.001235
      8       0.007479  -0.005045   0.000798
      9       0.001388   0.000064   0.001262
     10       0.000580  -0.000105   0.002136
     11      -0.000312  -0.000044   0.000044
     12       0.008096   0.012345   0.076100
     13       0.001632   0.002356   0.017214
     14      -0.002190  -0.003363  -0.020190
     15      -0.032811  -0.020758   0.011260
     16       0.042500   0.025505  -0.014654
     17       0.018886   0.011667  -0.006479
     18      -0.044812  -0.253965   0.031758
     19      -0.115199  -0.650323   0.077894
     20      -0.009436  -0.053383   0.005967
     21       0.148667  -0.098709   0.015427
     22      -0.185674   0.126020  -0.017504
     23      -0.084051   0.056363  -0.008359
     24      -0.119348  -0.162733  -0.918519
     25      -0.025814  -0.035071  -0.199824
     26       0.031828   0.043457   0.245016
     27      -0.000099   0.000096   0.000426
     28       0.000111  -0.000439   0.000065
     29       0.000054  -0.000120  -0.000117
     30       0.000205  -0.002379   0.000275
     31      -0.000897   0.003754  -0.000529
     32      -0.000239   0.001503  -0.000204
     33      -0.000050   0.000053  -0.000350
     34      -0.000050   0.000027   0.000038
     35       0.000004  -0.000011   0.000117
     36      -0.000015   0.000083  -0.000052
     37       0.000051  -0.000109   0.000059
     38      -0.000008   0.000090   0.000012
     39       0.000028  -0.000004  -0.000007
     40      -0.000048   0.000067  -0.000051
     41       0.000012  -0.000014   0.000099
     42       0.000101  -0.000165   0.000581
     43       0.000101  -0.000223   0.000291
     44      -0.000353   0.000294  -0.001456
     45      -0.000424   0.000106  -0.000423
     46       0.000465  -0.000270   0.000361
     47       0.000219  -0.000115   0.000366
     48      -0.000143   0.000652   0.000011
     49      -0.000120   0.000716   0.000010
     50       0.000337  -0.001692   0.000111
     51       0.000306  -0.001368   0.000469
     52      -0.000296   0.001359  -0.000081
     53      -0.000168   0.000672  -0.000095
     54      -0.000001   0.000016  -0.000048
     55       0.000013  -0.000014   0.000075
     56      -0.000012   0.000026   0.000005
     57      -0.000082   0.000064  -0.000096
     58      -0.000042   0.000044  -0.000042
     59       0.000201  -0.000281   0.000273
     60       0.000121  -0.000171   0.000797
     61      -0.000128   0.000072  -0.000758
     62      -0.000071   0.000036  -0.000338
     63       0.402175   0.237280  -0.117838
     64      -0.511104  -0.299493   0.148323
     65      -0.229478  -0.134957   0.066962
     66       0.616045  -0.501333   0.034186
     67       0.123157  -0.099202   0.006530
     68      -0.167057   0.136067  -0.009322
     69       0.000031  -0.000006  -0.000006
     70      -0.000002  -0.000014   0.000020
     71       0.000002   0.000014   0.000049
     72      -0.000295  -0.000024  -0.000005
     73       0.000279  -0.000050   0.000016
     74       0.000126  -0.000014   0.000048
     75      -0.000127   0.000105  -0.000180
     76      -0.000329   0.000298  -0.000449
     77      -0.000018   0.000008  -0.000032
     78       0.000054   0.000003   0.000238
     79       0.000056  -0.000005   0.000179
     80      -0.000139  -0.000132  -0.000628


-----------
IR SPECTRUM  
-----------

 Mode    freq (cm**-1)   T**2         TX         TY         TZ
-------------------------------------------------------------------
   6:        31.89    0.000000  (  0.000000   0.000000   0.000000)
   7:        49.88    0.000000  (  0.000000   0.000000   0.000000)
   8:        63.69    0.000000  (  0.000000   0.000000   0.000000)
   9:        92.33    0.000000  (  0.000000   0.000000   0.000000)
  10:       118.88    0.000000  (  0.000000   0.000000   0.000000)
  11:       146.20    0.000000  (  0.000000   0.000000   0.000000)
  12:       200.98    0.000000  (  0.000000   0.000000   0.000000)
  13:       231.09    0.000000  (  0.000000   0.000000   0.000000)
  14:       264.11    0.000000  (  0.000000   0.000000   0.000000)
  15:       283.64    0.000000  (  0.000000   0.000000   0.000000)
  16:       367.62    0.000000  (  0.000000   0.000000   0.000000)
  17:       370.12    0.000000  (  0.000000   0.000000   0.000000)
  18:       427.99    0.000000  (  0.000000   0.000000   0.000000)
  19:       459.65    0.000000  (  0.000000   0.000000   0.000000)
  20:       504.61    0.000000  (  0.000000   0.000000   0.000000)
  21:       588.68    0.000000  (  0.000000   0.000000   0.000000)
  22:       621.68    0.000000  (  0.000000   0.000000   0.000000)
  23:       661.29    0.000000  (  0.000000   0.000000   0.000000)
  24:       748.16    0.000000  (  0.000000   0.000000   0.000000)
  25:       778.76    0.000000  (  0.000000   0.000000   0.000000)
  26:       835.66    0.000000  (  0.000000   0.000000   0.000000)
  27:       862.53    0.000000  (  0.000000   0.000000   0.000000)
  28:       870.32    0.000000  (  0.000000   0.000000   0.000000)
  29:       900.56    0.000000  (  0.000000   0.000000   0.000000)
  30:       921.52    0.000000  (  0.000000   0.000000   0.000000)
  31:       925.66    0.000000  (  0.000000   0.000000   0.000000)
  32:       929.89    0.000000  (  0.000000   0.000000   0.000000)
  33:       944.16    0.000000  (  0.000000   0.000000   0.000000)
  34:       954.07    0.000000  (  0.000000   0.000000   0.000000)
  35:       990.56    0.000000  (  0.000000   0.000000   0.000000)
  36:      1048.15    0.000000  (  0.000000   0.000000   0.000000)
  37:      1075.40    0.000000  (  0.000000   0.000000   0.000000)
  38:      1077.79    0.000000  (  0.000000   0.000000   0.000000)
  39:      1100.35    0.000000  (  0.000000   0.000000   0.000000)
  40:      1115.99    0.000000  (  0.000000   0.000000   0.000000)
  41:      1126.34    0.000000  (  0.000000   0.000000   0.000000)
  42:      1161.16    0.000000  (  0.000000   0.000000   0.000000)
  43:      1179.01    0.000000  (  0.000000   0.000000   0.000000)
  44:      1185.65    0.000000  (  0.000000   0.000000   0.000000)
  45:      1215.43    0.000000  (  0.000000   0.000000   0.000000)
  46:      1238.41    0.000000  (  0.000000   0.000000   0.000000)
  47:      1252.39    0.000000  (  0.000000   0.000000   0.000000)
  48:      1271.88    0.000000  (  0.000000   0.000000   0.000000)
  49:      1276.83    0.000000  (  0.000000   0.000000   0.000000)
  50:      1277.54    0.000000  (  0.000000   0.000000   0.000000)
  51:      1319.73    0.000000  (  0.000000   0.000000   0.000000)
  52:      1330.17    0.000000  (  0.000000   0.000000   0.000000)
  53:      1357.60    0.000000  (  0.000000   0.000000   0.000000)
  54:      1365.85    0.000000  (  0.000000   0.000000   0.000000)
  55:      1412.85    0.000000  (  0.000000   0.000000   0.000000)
  56:      1435.29    0.000000  (  0.000000   0.000000   0.000000)
  57:      1465.34    0.000000  (  0.000000   0.000000   0.000000)
  58:      1468.69    0.000000  (  0.000000   0.000000   0.000000)
  59:      1491.89    0.000000  (  0.000000   0.000000   0.000000)
  60:      1496.19    0.000000  (  0.000000   0.000000   0.000000)
  61:      1499.68    0.000000  (  0.000000   0.000000   0.000000)
  62:      1502.99    0.000000  (  0.000000   0.000000   0.000000)
  63:      1579.58    0.000000  (  0.000000   0.000000   0.000000)
  64:      1591.83    0.000000  (  0.000000   0.000000   0.000000)
  65:      1704.17    0.000000  (  0.000000   0.000000   0.000000)
  66:      2782.55    0.000000  (  0.000000   0.000000   0.000000)
  67:      2805.11    0.000000  (  0.000000   0.000000   0.000000)
  68:      2926.27    0.000000  (  0.000000   0.000000   0.000000)
  69:      2957.29    0.000000  (  0.000000   0.000000   0.000000)
  70:      2967.17    0.000000  (  0.000000   0.000000   0.000000)
  71:      2976.45    0.000000  (  0.000000   0.000000   0.000000)
  72:      2990.27    0.000000  (  0.000000   0.000000   0.000000)
  73:      3026.63    0.000000  (  0.000000   0.000000   0.000000)
  74:      3028.76    0.000000  (  0.000000   0.000000   0.000000)
  75:      3034.89    0.000000  (  0.000000   0.000000   0.000000)
  76:      3062.15    0.000000  (  0.000000   0.000000   0.000000)
  77:      3072.26    0.000000  (  0.000000   0.000000   0.000000)
  78:      3077.34    0.000000  (  0.000000   0.000000   0.000000)
  79:      3088.08    0.000000  (  0.000000   0.000000   0.000000)
  80:      3105.51    0.000000  (  0.000000   0.000000   0.000000)

The first frequency considered to be a vibration is 6
The total number of vibrations considered is 75


--------------------------
THERMOCHEMISTRY AT 298.15K
--------------------------

Temperature         ... 298.15 K
Pressure            ... 1.00 atm
Total Mass          ... 161.25 AMU

Throughout the following assumptions are being made:
  (1) The electronic state is orbitally nondegenerate
  (2) There are no thermally accessible electronically excited states
  (3) Hindered rotations indicated by low frequency modes are not
      treated as such but are treated as vibrations and this may
      cause some error
  (4) All equations used are the standard statistical mechanics
      equations for an ideal gas
  (5) All vibrations are strictly harmonic

freq.      31.89  E(vib)   ...       0.55 
freq.      49.88  E(vib)   ...       0.52 
freq.      63.69  E(vib)   ...       0.51 
freq.      92.33  E(vib)   ...       0.47 
freq.     118.88  E(vib)   ...       0.44 
freq.     146.20  E(vib)   ...       0.41 
freq.     200.98  E(vib)   ...       0.35 
freq.     231.09  E(vib)   ...       0.32 
freq.     264.11  E(vib)   ...       0.29 
freq.     283.64  E(vib)   ...       0.28 
freq.     367.62  E(vib)   ...       0.21 
freq.     370.12  E(vib)   ...       0.21 
freq.     427.99  E(vib)   ...       0.18 
freq.     459.65  E(vib)   ...       0.16 
freq.     504.61  E(vib)   ...       0.14 
freq.     588.68  E(vib)   ...       0.10 
freq.     621.68  E(vib)   ...       0.09 
freq.     661.29  E(vib)   ...       0.08 
freq.     748.16  E(vib)   ...       0.06 
freq.     778.76  E(vib)   ...       0.05 
freq.     835.66  E(vib)   ...       0.04 
freq.     862.53  E(vib)   ...       0.04 
freq.     870.32  E(vib)   ...       0.04 
freq.     900.56  E(vib)   ...       0.03 
freq.     921.52  E(vib)   ...       0.03 
freq.     925.66  E(vib)   ...       0.03 
freq.     929.89  E(vib)   ...       0.03 
freq.     944.16  E(vib)   ...       0.03 
freq.     954.07  E(vib)   ...       0.03 
freq.     990.56  E(vib)   ...       0.02 
freq.    1048.15  E(vib)   ...       0.02 
freq.    1075.40  E(vib)   ...       0.02 
freq.    1077.79  E(vib)   ...       0.02 
freq.    1100.35  E(vib)   ...       0.02 
freq.    1115.99  E(vib)   ...       0.01 
freq.    1126.34  E(vib)   ...       0.01 
freq.    1161.16  E(vib)   ...       0.01 
freq.    1179.01  E(vib)   ...       0.01 
freq.    1185.65  E(vib)   ...       0.01 
freq.    1215.43  E(vib)   ...       0.01 
freq.    1238.41  E(vib)   ...       0.01 
freq.    1252.39  E(vib)   ...       0.01 
freq.    1271.88  E(vib)   ...       0.01 
freq.    1276.83  E(vib)   ...       0.01 
freq.    1277.54  E(vib)   ...       0.01 
freq.    1319.73  E(vib)   ...       0.01 
freq.    1330.17  E(vib)   ...       0.01 
freq.    1357.60  E(vib)   ...       0.01 
freq.    1365.85  E(vib)   ...       0.01 
freq.    1412.85  E(vib)   ...       0.00 
freq.    1435.29  E(vib)   ...       0.00 
freq.    1465.34  E(vib)   ...       0.00 
freq.    1468.69  E(vib)   ...       0.00 
freq.    1491.89  E(vib)   ...       0.00 
freq.    1496.19  E(vib)   ...       0.00 
freq.    1499.68  E(vib)   ...       0.00 
freq.    1502.99  E(vib)   ...       0.00 
freq.    1579.58  E(vib)   ...       0.00 
freq.    1591.83  E(vib)   ...       0.00 
freq.    1704.17  E(vib)   ...       0.00 
freq.    2782.55  E(vib)   ...       0.00 
freq.    2805.11  E(vib)   ...       0.00 
freq.    2926.27  E(vib)   ...       0.00 
freq.    2957.29  E(vib)   ...       0.00 
freq.    2967.17  E(vib)   ...       0.00 
freq.    2976.45  E(vib)   ...       0.00 
freq.    2990.27  E(vib)   ...       0.00 
freq.    3026.63  E(vib)   ...       0.00 
freq.    3028.76  E(vib)   ...       0.00 
freq.    3034.89  E(vib)   ...       0.00 
freq.    3062.15  E(vib)   ...       0.00 
freq.    3072.26  E(vib)   ...       0.00 
freq.    3077.34  E(vib)   ...       0.00 
freq.    3088.08  E(vib)   ...       0.00 
freq.    3105.51  E(vib)   ...       0.00 

------------
INNER ENERGY
------------

The inner energy is: U= E(el) + E(ZPE) + E(vib) + E(rot) + E(trans)
    E(el)   - is the total energy from the electronic structure calculation
              = E(kin-el) + E(nuc-el) + E(el-el) + E(nuc-nuc)
    E(ZPE)  - the the zero temperature vibrational energy from the frequency calculation
    E(vib)  - the the finite temperature correction to E(ZPE) due to population
              of excited vibrational states
    E(rot)  - is the rotational thermal energy
    E(trans)- is the translational thermal energy

Summary of contributions to the inner energy U:
Electronic energy                ...    -34.11312729 Eh
Zero point energy                ...      0.22934566 Eh     143.92 kcal/mol
Thermal vibrational correction   ...      0.00956310 Eh       6.00 kcal/mol
Thermal rotational correction    ...      0.00141627 Eh       0.89 kcal/mol
Thermal translational correction ...      0.00141627 Eh       0.89 kcal/mol
-----------------------------------------------------------------------
Total thermal energy                    -33.87138599 Eh


Summary of corrections to the electronic energy:
(perhaps to be used in another calculation)
Total thermal correction                  0.01239564 Eh       7.78 kcal/mol
Non-thermal (ZPE) correction              0.22934566 Eh     143.92 kcal/mol
-----------------------------------------------------------------------
Total correction                          0.24174130 Eh     151.69 kcal/mol


--------
ENTHALPY
--------

The enthalpy is H = U + kB*T
                kB is Boltzmann's constant
Total free energy                 ...    -33.87138599 Eh 
Thermal Enthalpy correction       ...      0.00094421 Eh       0.59 kcal/mol
-----------------------------------------------------------------------
Total Enthalpy                    ...    -33.87044178 Eh


Note: Only C1 symmetry has been detected, increase convergence thresholds 
      if your molecule has a higher symmetry. Symmetry factor of 1.0 is   
      used for the rotational entropy correction. 
 

Note: Rotational entropy computed according to Herzberg 
Infrared and Raman Spectra, Chapter V,1, Van Nostrand Reinhold, 1945 
Point Group:  C1, Symmetry Number:   1  
Rotational constants in cm-1:     0.107615     0.009934     0.009560 

Vibrational entropy computed according to the QRRHO of S. Grimme
Chem.Eur.J. 2012 18 9955


-------
ENTROPY
-------

The entropy contributions are T*S = T*(S(el)+S(vib)+S(rot)+S(trans))
     S(el)   - electronic entropy
     S(vib)  - vibrational entropy
     S(rot)  - rotational entropy
     S(trans)- translational entropy
The entropies will be listed as mutliplied by the temperature to get
units of energy

Electronic entropy                ...      0.00000000 Eh      0.00 kcal/mol
Vibrational entropy               ...      0.01690259 Eh     10.61 kcal/mol
Rotational entropy                ...      0.01493571 Eh      9.37 kcal/mol
Translational entropy             ...      0.01954790 Eh     12.27 kcal/mol
-----------------------------------------------------------------------
Final entropy term                ...      0.05138620 Eh     32.25 kcal/mol

In case the symmetry of your molecule has not been determined correctly
or in case you have a reason to use a different symmetry number we print 
out the resulting rotational entropy values for sn=1,12 :
 --------------------------------------------------------
|  sn= 1 | S(rot)=       0.01493571 Eh      9.37 kcal/mol|
|  sn= 2 | S(rot)=       0.01428125 Eh      8.96 kcal/mol|
|  sn= 3 | S(rot)=       0.01389842 Eh      8.72 kcal/mol|
|  sn= 4 | S(rot)=       0.01362679 Eh      8.55 kcal/mol|
|  sn= 5 | S(rot)=       0.01341611 Eh      8.42 kcal/mol|
|  sn= 6 | S(rot)=       0.01324396 Eh      8.31 kcal/mol|
|  sn= 7 | S(rot)=       0.01309842 Eh      8.22 kcal/mol|
|  sn= 8 | S(rot)=       0.01297234 Eh      8.14 kcal/mol|
|  sn= 9 | S(rot)=       0.01286113 Eh      8.07 kcal/mol|
|  sn=10 | S(rot)=       0.01276165 Eh      8.01 kcal/mol|
|  sn=11 | S(rot)=       0.01267166 Eh      7.95 kcal/mol|
|  sn=12 | S(rot)=       0.01258951 Eh      7.90 kcal/mol|
 --------------------------------------------------------


-------------------
GIBBS FREE ENERGY
-------------------

The Gibbs free energy is G = H - T*S

Total enthalpy                    ...    -33.87044178 Eh 
Total entropy correction          ...     -0.05138620 Eh    -32.25 kcal/mol
-----------------------------------------------------------------------
Final Gibbs free energy         ...    -33.92182798 Eh

For completeness - the Gibbs free energy minus the electronic energy
G-E(el)                           ...      0.19129931 Eh    120.04 kcal/mol


Total Time for Numerical Frequencies  :        57.845 sec

Timings for individual modules:

Sum of individual times         ...        1.624 sec (=   0.027 min)
Geometry relaxation             ...        0.800 sec (=   0.013 min)  49.3 %
XTB module                      ...        0.824 sec (=   0.014 min)  50.7 %
                             ****ORCA TERMINATED NORMALLY****
TOTAL RUN TIME: 0 days 0 hours 1 minutes 0 seconds 984 msec
