
                                 *****************
                                 * O   R   C   A *
                                 *****************

           --- An Ab Initio, DFT and Semiempirical electronic structure package ---

                  #######################################################
                  #                        -***-                        #
                  #          Department of theory and spectroscopy      #
                  #               Directorship: Frank Neese             #
                  #        Max Planck Institute fuer Kohlenforschung    #
                  #                Kaiser Wilhelm Platz 1               #
                  #                 D-45470 Muelheim/Ruhr               #
                  #                      Germany                        #
                  #                                                     #
                  #                  All rights reserved                #
                  #                        -***-                        #
                  #######################################################


                         Program Version 4.2.1 -  RELEASE  -


 With contributions from (in alphabetic order):
   Daniel Aravena         : Magnetic Suceptibility
   Michael Atanasov       : Ab Initio Ligand Field Theory (pilot matlab implementation)
   Alexander A. Auer      : GIAO ZORA, VPT2
   Ute Becker             : Parallelization
   Giovanni Bistoni       : ED, misc. LED, open-shell LED, HFLD
   Martin Brehm           : Molecular dynamics
   Dmytro Bykov           : SCF Hessian
   Vijay G. Chilkuri      : MRCI spin determinant printing, contributions to CSF-ICE
   Dipayan Datta          : RHF DLPNO-CCSD density
   Achintya Kumar Dutta   : EOM-CC, STEOM-CC
   Dmitry Ganyushin       : Spin-Orbit,Spin-Spin,Magnetic field MRCI
   Miquel Garcia          : C-PCM Hessian, Gaussian charge scheme
   Yang Guo               : DLPNO-NEVPT2, CIM, IAO-localization
   Andreas Hansen         : Spin unrestricted coupled pair/coupled cluster methods
   Benjamin Helmich-Paris : CASSCF linear response (MC-RPA)
   Lee Huntington         : MR-EOM, pCC
   Robert Izsak           : Overlap fitted RIJCOSX, COSX-SCS-MP3, EOM
   Christian Kollmar      : KDIIS, OOCD, Brueckner-CCSD(T), CCSD density
   Simone Kossmann        : Meta GGA functionals, TD-DFT gradient, OOMP2, MP2 Hessian
   Martin Krupicka        : AUTO-CI
   Lucas Lang             : DCDCAS
   Dagmar Lenk            : GEPOL surface, SMD
   Dimitrios Liakos       : Extrapolation schemes; Compound Job, initial MDCI parallelization
   Dimitrios Manganas     : Further ROCIS development; embedding schemes
   Dimitrios Pantazis     : SARC Basis sets
   Taras Petrenko         : DFT Hessian,TD-DFT gradient, ASA, ECA, R-Raman, ABS, FL, XAS/XES, NRVS
   Peter Pinski           : DLPNO-MP2, DLPNO-MP2 Gradient
   Christoph Reimann      : Effective Core Potentials
   Marius Retegan         : Local ZFS, SOC
   Christoph Riplinger    : Optimizer, TS searches, QM/MM, DLPNO-CCSD(T), (RO)-DLPNO pert. Triples
   Tobias Risthaus        : Range-separated hybrids, TD-DFT gradient, RPA, STAB
   Michael Roemelt        : Original ROCIS implementation
   Masaaki Saitow         : Open-shell DLPNO-CCSD energy and density
   Barbara Sandhoefer     : DKH picture change effects
   Avijit Sen             : IP-ROCIS
   Kantharuban Sivalingam : CASSCF convergence, NEVPT2, FIC-MRCI
   Bernardo de Souza      : ESD, SOC TD-DFT
   Georgi Stoychev        : AutoAux, RI-MP2 NMR
   Willem Van den Heuvel  : Paramagnetic NMR
   Boris Wezisla          : Elementary symmetry handling
   Frank Wennmohs         : Technical directorship


 We gratefully acknowledge several colleagues who have allowed us to
 interface, adapt or use parts of their codes:
   Stefan Grimme, W. Hujo, H. Kruse,             : VdW corrections, initial TS optimization,
                  C. Bannwarth                     DFT functionals, gCP, sTDA/sTD-DF
   Ed Valeev, F. Pavosevic, A. Kumar             : LibInt (2-el integral package), F12 methods
   Garnet Chan, S. Sharma, J. Yang, R. Olivares  : DMRG
   Ulf Ekstrom                                   : XCFun DFT Library
   Mihaly Kallay                                 : mrcc  (arbitrary order and MRCC methods)
   Andreas Klamt, Michael Diedenhofen            : otool_cosmo (COSMO solvation model)
   Jiri Pittner, Ondrej Demel                    : Mk-CCSD
   Frank Weinhold                                : gennbo (NPA and NBO analysis)
   Christopher J. Cramer and Donald G. Truhlar   : smd solvation model
   Lars Goerigk                                  : TD-DFT with DH, B97 family of functionals
   V. Asgeirsson, H. Jonsson                     : NEB implementation
   FAccTs GmbH                                   : IRC, NEB, NEB-TS, Multilevel, MM, QM/MM, CI optimization
   S Lehtola, MJT Oliveira, MAL Marques          : LibXC Library


 Your calculation uses the libint2 library for the computation of 2-el integrals
 For citations please refer to: http://libint.valeyev.net

 Your ORCA version has been built with support for libXC version: 4.2.3
 For citations please refer to: https://tddft.org/programs/libxc/

 This ORCA versions uses:
   CBLAS   interface :  Fast vector & matrix operations
   LAPACKE interface :  Fast linear algebra routines
   SCALAPACK package :  Parallel linear algebra routines




***************************************
The coordinates will be read from file: init.xyz
***************************************


Your calculation utilizes the SMD solvation module
Please cite in your paper:
A.V. Marenich, C.J. Cramer, D.G. Truhlar J. Phys. Chem. B, 113, (2009), 6378 

Your calculation utilizes the semiempirical GFN2-xTB method
Please cite in your paper:
C. Bannwarth, Ehlert S., S. Grimme,  J. Chem. Theory Comput., 15, (2019), 1652.
   

----- Orbital basis set information -----
Your calculation utilizes the basis: def2-SVP
   F. Weigend and R. Ahlrichs, Phys. Chem. Chem. Phys. 7, 3297 (2005).

================================================================================
                                        WARNINGS
                       Please study these warnings very carefully!
================================================================================


WARNING: The environment variable RSH_COMMAND is not set!
  ===> : All Displacements for the Numerical Hessian calculation
         will be started on localhost

WARNING: Geometry Optimization
  ===> : Switching off AutoStart
         For restart on a previous wavefunction, please use MOREAD

WARNING: Found dipole moment calculation with XTB calculation
  ===> : Switching off dipole moment calculation


INFO   : the flag for use of LIBINT has been found!

================================================================================
                                       INPUT FILE
================================================================================
NAME = opt+freq.inp
|  1> ! XTB2 Opt NumFreq
|  2> 
|  3> %cpcm
|  4>  smd true
|  5>  smdsolvent "ch2cl2"
|  6> end
|  7> 
|  8> %pal
|  9>  nprocs 12
| 10> end
| 11> 
| 12> *xyzfile 0 1 init.xyz
| 13> 
| 14>                          ****END OF INPUT****
================================================================================

                       *****************************
                       * Geometry Optimization Run *
                       *****************************

Geometry optimization settings:
Update method            Update   .... BFGS
Choice of coordinates    CoordSys .... Z-matrix Internals
Initial Hessian          InHess   .... Almoef's Model

Convergence Tolerances:
Energy Change            TolE     ....  5.0000e-06 Eh
Max. Gradient            TolMAXG  ....  3.0000e-04 Eh/bohr
RMS Gradient             TolRMSG  ....  1.0000e-04 Eh/bohr
Max. Displacement        TolMAXD  ....  4.0000e-03 bohr
RMS Displacement         TolRMSD  ....  2.0000e-03 bohr
Strict Convergence                ....  False
------------------------------------------------------------------------------
                        ORCA OPTIMIZATION COORDINATE SETUP
------------------------------------------------------------------------------

The optimization will be done in new redundant internal coordinates
Making redundant internal coordinates   ...  (new redundants) done
Evaluating the initial hessian          ...  (Almloef) done
Evaluating the coordinates              ...  done
Calculating the B-matrix                .... done
Calculating the G-matrix                .... done
Diagonalizing the G-matrix              .... done
Small eigenvalue found = 3.389e-03
Small eigenvalue found = 4.203e-03
Small eigenvalue found = 7.234e-03
Small eigenvalue found = 1.361e-02
Small eigenvalue found = 2.182e-02
The first mode is                       ....  178
The number of degrees of freedom        ....  141

    -----------------------------------------------------------------
                    Redundant Internal Coordinates


    -----------------------------------------------------------------
         Definition                    Initial Value    Approx d2E/dq
    -----------------------------------------------------------------
      1. B(C   1,C   0)                  1.3911         0.622365   
      2. B(C   2,C   1)                  1.3822         0.642884   
      3. B(C   3,C   2)                  1.3853         0.635565   
      4. B(C   4,C   3)                  1.3837         0.639359   
      5. B(C   5,C   4)                  1.3866         0.632543   
      6. B(C   5,C   0)                  1.3881         0.629103   
      7. B(C   6,C   0)                  1.5201         0.387406   
      8. B(H   7,C   1)                  1.0821         0.370679   
      9. B(H   8,C   5)                  1.0794         0.374384   
     10. B(H   9,C   3)                  1.0799         0.373713   
     11. B(N  10,C   6)                  1.4703         0.416695   
     12. B(C  11,N  10)                  1.4620         0.429497   
     13. B(H  12,N  10)                  1.8323         0.021099   
     14. B(C  13,C  11)                  1.5280         0.376263   
     15. B(H  14,C  11)                  1.0945         0.354144   
     16. B(H  15,C  11)                  1.1015         0.345203   
     17. B(H  16,C  13)                  1.0900         0.360163   
     18. B(H  17,C  13)                  1.0918         0.357756   
     19. B(O  18,C   6)                  1.3871         0.565606   
     20. B(H  20,O  19)                  1.7631         0.027205   
     21. B(H  20,O  18)                  0.9847         0.474827   
     22. B(H  21,H  20)                  2.2211         0.001081   
     23. B(H  21,O  19)                  0.9601         0.519808   
     24. B(H  22,H  12)                  2.0645         0.001922   
     25. B(H  22,H  20)                  2.0486         0.002037   
     26. B(H  22,O  19)                  0.9966         0.454567   
     27. B(H  23,C   6)                  1.1085         0.336409   
     28. B(H  24,N  10)                  1.0153         0.424318   
     29. B(H  25,C   2)                  1.0800         0.373571   
     30. B(H  26,C   4)                  1.0802         0.373300   
     31. B(C  27,C  13)                  1.5263         0.378730   
     32. B(H  28,C  27)                  1.0929         0.356287   
     33. B(H  29,C  27)                  1.0926         0.356729   
     34. B(C  30,C  27)                  1.5242         0.381650   
     35. B(H  31,C  30)                  1.0880         0.362781   
     36. B(H  32,C  30)                  1.0876         0.363241   
     37. B(H  33,C  30)                  1.0879         0.362878   
     38. B(H  36,C  35)                  1.0932         0.355907   
     39. B(H  37,C  35)                  1.0942         0.354546   
     40. B(C  38,C  35)                  1.5297         0.373935   
     41. B(H  39,C  38)                  1.0936         0.355421   
     42. B(H  40,C  38)                  1.0943         0.354520   
     43. B(C  41,C  38)                  1.5253         0.380103   
     44. B(H  42,C   3)                  4.0651         0.000006   
     45. B(H  42,C  41)                  1.0923         0.357077   
     46. B(H  43,C  41)                  1.0923         0.357047   
     47. B(C  44,C  41)                  1.5241         0.381801   
     48. B(H  45,C  44)                  1.0881         0.362562   
     49. B(H  46,C  44)                  1.0873         0.363685   
     50. B(H  47,C  44)                  1.0883         0.362326   
     51. B(N  48,H  22)                  1.6735         0.037807   
     52. B(N  48,C  35)                  1.4577         0.436396   
     53. B(N  48,H  34)                  1.0151         0.424706   
     54. B(N  48,H  12)                  1.0281         0.404798   
     55. A(C   1,C   0,C   6)          118.1914         0.399494   
     56. A(C   5,C   0,C   6)          122.6912         0.400251   
     57. A(C   1,C   0,C   5)          119.1021         0.435505   
     58. A(C   0,C   1,H   7)          119.4405         0.354873   
     59. A(C   2,C   1,H   7)          119.8025         0.356832   
     60. A(C   0,C   1,C   2)          120.7551         0.437208   
     61. A(C   1,C   2,C   3)          119.9135         0.438866   
     62. A(C   1,C   2,H  25)          119.7607         0.357304   
     63. A(C   3,C   2,H  25)          120.3247         0.356609   
     64. A(C   4,C   3,H   9)          120.2834         0.356993   
     65. A(C   2,C   3,H   9)          120.0570         0.356632   
     66. A(C   2,C   3,C   4)          119.6594         0.438431   
     67. A(C   3,C   4,C   5)          120.5047         0.438055   
     68. A(C   3,C   4,H  26)          120.0655         0.356926   
     69. A(C   5,C   4,H  26)          119.4296         0.356277   
     70. A(C   4,C   5,H   8)          119.3729         0.356452   
     71. A(C   0,C   5,C   4)          120.0633         0.436779   
     72. A(C   0,C   5,H   8)          120.5628         0.356123   
     73. A(C   0,C   6,O  18)          114.7248         0.390345   
     74. A(C   0,C   6,H  23)          108.6697         0.322637   
     75. A(N  10,C   6,O  18)          111.9550         0.392836   
     76. A(C   0,C   6,N  10)          107.0866         0.370210   
     77. A(N  10,C   6,H  23)          110.1817         0.324568   
     78. A(O  18,C   6,H  23)          104.1612         0.341436   
     79. A(H  12,N  10,H  24)          104.4112         0.196664   
     80. A(C  11,N  10,H  24)          109.1720         0.336070   
     81. A(C   6,N  10,H  24)          107.2492         0.334384   
     82. A(C  11,N  10,H  12)          108.1737         0.214258   
     83. A(C   6,N  10,H  12)          110.9026         0.213403   
     84. A(C   6,N  10,C  11)          116.2705         0.374483   
     85. A(C  13,C  11,H  15)          109.2851         0.322458   
     86. A(H  14,C  11,H  15)          108.0941         0.288165   
     87. A(N  10,C  11,H  14)          107.0247         0.328961   
     88. A(C  13,C  11,H  14)          109.3324         0.323813   
     89. A(N  10,C  11,H  15)          111.0690         0.327576   
     90. A(N  10,C  11,C  13)          111.9283         0.370278   
     91. A(H  22,H  12,N  48)           53.6131         0.139109   
     92. A(N  10,H  12,H  22)          121.4919         0.114676   
     93. A(N  10,H  12,N  48)          171.6532         0.195523   
     94. A(H  17,C  13,C  27)          109.7002         0.324701   
     95. A(H  16,C  13,H  17)          108.0110         0.290549   
     96. A(C  11,C  13,H  16)          108.6934         0.324710   
     97. A(H  16,C  13,C  27)          109.4894         0.325059   
     98. A(C  11,C  13,C  27)          111.7632         0.364651   
     99. A(C  11,C  13,H  17)          109.1016         0.324353   
    100. A(C   6,O  18,H  20)          110.4695         0.358734   
    101. A(H  21,O  19,H  22)          106.3044         0.314843   
    102. A(H  20,O  19,H  22)           91.5515         0.204831   
    103. A(H  20,O  19,H  21)          105.4714         0.208401   
    104. A(O  18,H  20,H  22)          155.8774         0.141639   
    105. A(H  21,H  20,H  22)           42.7925         0.099743   
    106. A(O  19,H  20,H  21)           24.6191         0.112875   
    107. A(O  18,H  20,H  21)          144.1906         0.134606   
    108. A(O  18,H  20,O  19)          168.4072         0.205980   
    109. A(O  19,H  20,H  22)           29.0967         0.116557   
    110. A(O  19,H  21,H  20)           49.9094         0.135550   
    111. A(H  12,H  22,N  48)           29.6419         0.118300   
    112. A(O  19,H  22,N  48)          166.3028         0.213788   
    113. A(H  12,H  22,H  20)           77.5247         0.101238   
    114. A(O  19,H  22,H  20)           59.3518         0.141122   
    115. A(H  20,H  22,N  48)          106.9830         0.118688   
    116. A(H  12,H  22,O  19)          136.6731         0.140441   
    117. A(H  29,C  27,C  30)          109.3079         0.324958   
    118. A(H  28,C  27,C  30)          109.6285         0.324892   
    119. A(C  13,C  27,C  30)          111.4660         0.365539   
    120. A(H  28,C  27,H  29)          107.6995         0.289926   
    121. A(C  13,C  27,H  29)          109.0507         0.324548   
    122. A(C  13,C  27,H  28)          109.6072         0.324482   
    123. A(H  32,C  30,H  33)          108.4682         0.291589   
    124. A(H  31,C  30,H  33)          108.3586         0.291531   
    125. A(C  27,C  30,H  33)          110.6386         0.325872   
    126. A(H  31,C  30,H  32)          108.4660         0.291576   
    127. A(C  27,C  30,H  32)          110.5327         0.325926   
    128. A(C  27,C  30,H  31)          110.3058         0.325858   
    129. A(H  37,C  35,C  38)          109.8522         0.323544   
    130. A(H  36,C  35,C  38)          109.7546         0.323747   
    131. A(H  36,C  35,H  37)          108.1896         0.289598   
    132. A(C  38,C  35,N  48)          113.6466         0.370898   
    133. A(H  37,C  35,N  48)          108.0125         0.329890   
    134. A(H  36,C  35,N  48)          107.2138         0.330099   
    135. A(H  40,C  38,C  41)          109.3813         0.324410   
    136. A(H  39,C  38,C  41)          109.5617         0.324545   
    137. A(C  35,C  38,C  41)          112.1924         0.364490   
    138. A(H  39,C  38,H  40)          107.7234         0.289533   
    139. A(C  35,C  38,H  40)          108.9687         0.323540   
    140. A(C  35,C  38,H  39)          108.9073         0.323675   
    141. A(C  38,C  41,H  42)          109.1161         0.324793   
    142. A(H  43,C  41,C  44)          109.5374         0.325026   
    143. A(H  42,C  41,C  44)          109.7603         0.325031   
    144. A(C  38,C  41,C  44)          111.5682         0.365791   
    145. A(H  42,C  41,H  43)          107.7094         0.290067   
    146. A(C  38,C  41,H  43)          109.0645         0.324788   
    147. A(H  46,C  44,H  47)          108.4294         0.291575   
    148. A(H  45,C  44,H  47)          108.3426         0.291433   
    149. A(C  41,C  44,H  47)          110.4318         0.325812   
    150. A(H  45,C  44,H  46)          108.4604         0.291605   
    151. A(C  41,C  44,H  46)          110.6132         0.326013   
    152. A(C  41,C  44,H  45)          110.4905         0.325847   
    153. A(H  22,N  48,C  35)          110.7035         0.232452   
    154. A(H  22,N  48,H  34)          121.2701         0.211884   
    155. A(H  12,N  48,H  22)           96.7450         0.210556   
    156. A(H  34,N  48,C  35)          109.9312         0.337014   
    157. A(H  12,N  48,C  35)          108.7951         0.334334   
    158. A(H  12,N  48,H  34)          108.0984         0.299158   
    159. D(H   7,C   1,C   0,C   5)   -179.3053         0.026815   
    160. D(C   2,C   1,C   0,C   6)   -178.4206         0.026815   
    161. D(C   2,C   1,C   0,C   5)      0.1967         0.026815   
    162. D(H   7,C   1,C   0,C   6)      2.0774         0.026815   
    163. D(H  25,C   2,C   1,H   7)     -0.5422         0.028733   
    164. D(H  25,C   2,C   1,C   0)    179.9576         0.028733   
    165. D(C   3,C   2,C   1,C   0)     -0.4139         0.028733   
    166. D(C   3,C   2,C   1,H   7)    179.0863         0.028733   
    167. D(C   4,C   3,C   2,H  25)    179.8469         0.030477   
    168. D(H   9,C   3,C   2,H  25)      0.0086         0.030477   
    169. D(H   9,C   3,C   2,C   1)   -179.6177         0.030477   
    170. D(C   4,C   3,C   2,C   1)      0.2206         0.030477   
    171. D(H  26,C   4,C   3,C   2)   -179.9735         0.030868   
    172. D(C   5,C   4,C   3,H   9)   -179.9758         0.030868   
    173. D(C   5,C   4,C   3,C   2)      0.1863         0.030868   
    174. D(H  26,C   4,C   3,H   9)     -0.1356         0.030868   
    175. D(H   8,C   5,C   4,H  26)      0.1164         0.027756   
    176. D(C   0,C   5,C   4,H  26)    179.7552         0.027756   
    177. D(C   0,C   5,C   4,C   3)     -0.4035         0.027756   
    178. D(H   8,C   5,C   0,C   1)    179.8452         0.027436   
    179. D(H   8,C   5,C   4,C   3)    179.9577         0.027756   
    180. D(C   4,C   5,C   0,C   6)    178.7627         0.027436   
    181. D(C   4,C   5,C   0,C   1)      0.2107         0.027436   
    182. D(H   8,C   5,C   0,C   6)     -1.6028         0.027436   
    183. D(H  23,C   6,C   0,C   1)    -45.6507         0.011174   
    184. D(O  18,C   6,C   0,C   5)     19.6878         0.011174   
    185. D(H  23,C   6,C   0,C   5)    135.7848         0.011174   
    186. D(N  10,C   6,C   0,C   1)     73.3512         0.011174   
    187. D(N  10,C   6,C   0,C   5)   -105.2132         0.011174   
    188. D(O  18,C   6,C   0,C   1)   -161.7477         0.011174   
    189. D(C  11,N  10,C   6,C   0)   -162.8508         0.015860   
    190. D(H  12,N  10,C   6,H  23)   -168.9442         0.015860   
    191. D(H  12,N  10,C   6,O  18)    -53.5270         0.015860   
    192. D(C  11,N  10,C   6,O  18)     70.5867         0.015860   
    193. D(H  24,N  10,C   6,O  18)   -166.9515         0.015860   
    194. D(H  24,N  10,C   6,C   0)    -40.3890         0.015860   
    195. D(C  11,N  10,C   6,H  23)    -44.8304         0.015860   
    196. D(H  12,N  10,C   6,C   0)     73.0355         0.015860   
    197. D(H  24,N  10,C   6,H  23)     77.6313         0.015860   
    198. D(H  15,C  11,N  10,H  12)    170.9949         0.016852   
    199. D(H  14,C  11,N  10,H  24)     41.8186         0.016852   
    200. D(H  14,C  11,N  10,C   6)    163.2661         0.016852   
    201. D(C  13,C  11,N  10,H  12)     48.5410         0.016852   
    202. D(H  14,C  11,N  10,H  12)    -71.2272         0.016852   
    203. D(C  13,C  11,N  10,H  24)    161.5867         0.016852   
    204. D(C  13,C  11,N  10,C   6)    -76.9658         0.016852   
    205. D(H  15,C  11,N  10,C   6)     45.4882         0.016852   
    206. D(H  15,C  11,N  10,H  24)    -75.9594         0.016852   
    207. D(H  22,H  12,N  10,H  24)    135.8811         0.001786   
    208. D(H  22,H  12,N  10,C  11)   -107.9363         0.001786   
    209. D(H  22,H  12,N  10,C   6)     20.6754         0.001786   
    210. D(N  48,H  12,N  10,C  11)   -159.8298         0.001786   
    211. D(N  48,H  12,N  10,C   6)    -31.2181         0.001786   
    212. D(N  48,H  12,N  10,H  24)     83.9877         0.001786   
    213. D(C  27,C  13,C  11,H  14)    -65.2679         0.011295   
    214. D(C  27,C  13,C  11,N  10)    176.3263         0.011295   
    215. D(H  17,C  13,C  11,H  15)    174.3530         0.011295   
    216. D(H  17,C  13,C  11,H  14)     56.2238         0.011295   
    217. D(H  17,C  13,C  11,N  10)    -62.1820         0.011295   
    218. D(H  16,C  13,C  11,H  15)    -68.0910         0.011295   
    219. D(H  16,C  13,C  11,H  14)    173.7798         0.011295   
    220. D(C  27,C  13,C  11,H  15)     52.8613         0.011295   
    221. D(H  16,C  13,C  11,N  10)     55.3740         0.011295   
    222. D(H  20,O  18,C   6,H  23)   -176.0881         0.025579   
    223. D(H  20,O  18,C   6,N  10)     64.8767         0.025579   
    224. D(H  20,O  18,C   6,C   0)    -57.4255         0.025579   
    225. D(H  22,H  20,O  19,H  21)   -107.3916         0.001985   
    226. D(H  21,H  20,O  19,H  22)    107.3916         0.001985   
    227. D(O  18,H  20,O  19,H  22)    125.4645         0.001985   
    228. D(O  18,H  20,O  19,H  21)     18.0730         0.001985   
    229. D(H  21,H  20,O  18,C   6)   -145.4926         0.303571   
    230. D(O  19,H  20,O  18,C   6)   -158.2535         0.303571   
    231. D(H  22,H  20,O  18,C   6)    -53.9757         0.303571   
    232. D(O  19,H  21,H  20,H  22)     43.0856         0.001512   
    233. D(O  19,H  21,H  20,O  18)   -173.8835         0.001512   
    234. D(H  20,H  21,O  19,H  22)    -96.3287         0.345547   
    235. D(N  48,H  22,H  20,H  21)    143.1581         0.001548   
    236. D(N  48,H  22,H  20,O  19)    178.9739         0.001548   
    237. D(N  48,H  22,H  20,O  18)     22.5821         0.001548   
    238. D(H  12,H  22,H  20,O  19)    175.6400         0.001548   
    239. D(H  12,H  22,H  20,O  18)     19.2482         0.001548   
    240. D(O  19,H  22,H  20,H  21)    -35.8158         0.001548   
    241. D(O  19,H  22,H  20,O  18)   -156.3918         0.001548   
    242. D(N  48,H  22,O  19,H  20)     -4.1478         0.296411   
    243. D(N  48,H  22,O  19,H  21)    102.4685         0.296411   
    244. D(H  12,H  22,O  19,H  20)     -6.2104         0.296411   
    245. D(H  12,H  22,O  19,H  21)    100.4059         0.296411   
    246. D(H  20,H  22,O  19,H  21)    106.6162         0.296411   
    247. D(N  48,H  22,H  12,N  10)   -171.8429         0.001540   
    248. D(H  12,H  22,H  20,H  21)    139.8242         0.001548   
    249. D(H  20,H  22,H  12,N  10)      1.7001         0.001540   
    250. D(O  19,H  22,H  12,N  10)      7.1698         0.001540   
    251. D(O  19,H  22,H  12,N  48)    179.0127         0.001540   
    252. D(H  20,H  22,H  12,N  48)    173.5430         0.001540   
    253. D(C  30,C  27,C  13,H  16)    -58.1118         0.011436   
    254. D(C  30,C  27,C  13,C  11)   -178.6005         0.011436   
    255. D(H  29,C  27,C  13,H  17)   -178.9711         0.011436   
    256. D(H  29,C  27,C  13,H  16)     62.6628         0.011436   
    257. D(H  29,C  27,C  13,C  11)    -57.8258         0.011436   
    258. D(H  28,C  27,C  13,H  17)    -61.2965         0.011436   
    259. D(H  28,C  27,C  13,H  16)   -179.6626         0.011436   
    260. D(C  30,C  27,C  13,H  17)     60.2542         0.011436   
    261. D(H  28,C  27,C  13,C  11)     59.8488         0.011436   
    262. D(H  33,C  30,C  27,H  29)    177.4893         0.011604   
    263. D(H  33,C  30,C  27,C  13)    -61.8867         0.011604   
    264. D(H  32,C  30,C  27,H  29)     57.3217         0.011604   
    265. D(H  32,C  30,C  27,H  28)    -60.5160         0.011604   
    266. D(H  32,C  30,C  27,C  13)    177.9456         0.011604   
    267. D(H  31,C  30,C  27,H  29)    -62.6274         0.011604   
    268. D(H  33,C  30,C  27,H  28)     59.6517         0.011604   
    269. D(H  31,C  30,C  27,H  28)    179.5350         0.011604   
    270. D(H  31,C  30,C  27,C  13)     57.9966         0.011604   
    271. D(C  41,C  38,C  35,N  48)   -178.3680         0.011164   
    272. D(C  41,C  38,C  35,H  37)    -57.2377         0.011164   
    273. D(C  41,C  38,C  35,H  36)     61.5982         0.011164   
    274. D(H  40,C  38,C  35,N  48)    -57.0894         0.011164   
    275. D(H  40,C  38,C  35,H  37)     64.0409         0.011164   
    276. D(H  40,C  38,C  35,H  36)   -177.1232         0.011164   
    277. D(H  39,C  38,C  35,N  48)     60.1683         0.011164   
    278. D(H  39,C  38,C  35,H  37)   -178.7015         0.011164   
    279. D(H  39,C  38,C  35,H  36)    -59.8656         0.011164   
    280. D(H  43,C  41,C  38,H  40)    -63.5591         0.011515   
    281. D(H  43,C  41,C  38,H  39)    178.5701         0.011515   
    282. D(H  43,C  41,C  38,C  35)     57.4822         0.011515   
    283. D(H  42,C  41,C  38,H  40)    179.0277         0.011515   
    284. D(H  42,C  41,C  38,H  39)     61.1569         0.011515   
    285. D(H  42,C  41,C  38,C  35)    -59.9310         0.011515   
    286. D(C  44,C  41,C  38,H  40)     57.5772         0.011515   
    287. D(C  44,C  41,C  38,H  39)    -60.2936         0.011515   
    288. D(C  44,C  41,C  38,C  35)    178.6185         0.011515   
    289. D(H  47,C  44,C  41,H  42)    179.7609         0.011612   
    290. D(H  47,C  44,C  41,C  38)    -59.1631         0.011612   
    291. D(H  46,C  44,C  41,H  43)    -58.3393         0.011612   
    292. D(H  46,C  44,C  41,H  42)     59.7240         0.011612   
    293. D(H  46,C  44,C  41,C  38)   -179.2000         0.011612   
    294. D(H  45,C  44,C  41,H  43)   -178.4532         0.011612   
    295. D(H  45,C  44,C  41,H  42)    -60.3899         0.011612   
    296. D(H  47,C  44,C  41,H  43)     61.6976         0.011612   
    297. D(H  45,C  44,C  41,C  38)     60.6861         0.011612   
    298. D(H  22,N  48,C  35,C  38)   -167.7617         0.017403   
    299. D(H  22,N  48,C  35,H  37)     70.0840         0.017403   
    300. D(H  34,N  48,C  35,C  38)     55.5772         0.017403   
    301. D(H  34,N  48,C  35,H  37)    -66.5771         0.017403   
    302. D(H  34,N  48,C  35,H  36)    177.0390         0.017403   
    303. D(H  12,N  48,C  35,H  37)    175.2286         0.017403   
    304. D(H  12,N  48,C  35,H  36)     58.8447         0.017403   
    305. D(C  35,N  48,H  22,H  12)    113.0495         0.002544   
    306. D(C  35,N  48,H  22,H  20)    106.4569         0.002544   
    307. D(C  35,N  48,H  22,O  19)    110.1873         0.002544   
    308. D(H  34,N  48,H  22,H  12)   -115.9639         0.002544   
    309. D(H  34,N  48,H  22,H  20)   -122.5565         0.002544   
    310. D(H  34,N  48,H  22,O  19)   -118.8261         0.002544   
    311. D(H  12,N  48,H  22,H  20)     -6.5926         0.002544   
    312. D(H  12,N  48,C  35,C  38)    -62.6171         0.017403   
    313. D(H  12,N  48,H  22,O  19)     -2.8621         0.002544   
    314. D(H  22,N  48,H  12,N  10)     56.4571         0.221130   
    315. D(C  35,N  48,H  12,H  22)   -114.6011         0.221130   
    316. D(H  22,N  48,C  35,H  36)    -46.2999         0.017403   
    317. D(C  35,N  48,H  12,N  10)    -58.1439         0.221130   
    318. D(H  34,N  48,H  12,H  22)    126.0542         0.221130   
    319. D(H  34,N  48,H  12,N  10)   -177.4887         0.221130   
    -----------------------------------------------------------------

Number of atoms                         .... 49
Number of degrees of freedom            .... 319

         *************************************************************
         *                GEOMETRY OPTIMIZATION CYCLE   1            *
         *************************************************************
      -----------------------------------------------------------      
     |                   =====================                   |     
     |                           x T B                           |     
     |                   =====================                   |     
     |                         S. Grimme                         |     
     |          Mulliken Center for Theoretical Chemistry        |     
     |                    University of Bonn                     |     
      -----------------------------------------------------------      

   * xtb version 6.3.0 (49875a8) compiled by 'schneider@apollo14' on 2020-05-23

   xtb is free software: you can redistribute it and/or modify it under
   the terms of the GNU Lesser General Public License as published by
   the Free Software Foundation, either version 3 of the License, or
   (at your option) any later version.
   
   xtb is distributed in the hope that it will be useful,
   but WITHOUT ANY WARRANTY; without even the implied warranty of
   MERCHANTABILITY or FITNESS FOR A PARTICULAR PURPOSE.  See the
   GNU Lesser General Public License for more details.
   
   Cite this work as:
   * S. Grimme, C. Bannwarth, P. Shushkov, J. Chem. Theory Comput., 2017,
     13, 1989-2009. DOI: 10.1021/acs.jctc.7b00118
   * C. Bannwarth, S. Ehlert and S. Grimme., J. Chem. Theory Comput., 2019,
     15, 1652-1671. DOI: 10.1021/acs.jctc.8b01176
   * P. Pracht, E. Caldeweyher, S. Ehlert, S. Grimme, ChemRxiv, 2019, preprint.
     DOI: 10.26434/chemrxiv.8326202.v1
   
   for GFN-FF:
   * S. Spicher and S. Grimme, Angew. Chem. Int. Ed., 2020,
     DOI: 10.1002/anie.202004239
   
   for DFT-D4:
   * E. Caldeweyher, C. Bannwarth and S. Grimme, J. Chem. Phys., 2017,
     147, 034112. DOI: 10.1063/1.4993215
   * E. Caldeweyher, S. Ehlert, A. Hansen, H. Neugebauer, S. Spicher,
     C. Bannwarth and S. Grimme, J. Chem. Phys., 2019, 150, 154122.
     DOI: 10.1063/1.5090222
   
   for sTDA-xTB:
   * S. Grimme and C. Bannwarth, J. Chem. Phys., 2016, 145, 054103.
     DOI: 10.1063/1.4959605
   
   in the mass-spec context:
   * V. Asgeirsson, C. Bauer and S. Grimme, Chem. Sci., 2017, 8, 4879.
     DOI: 10.1039/c7sc00601b
   * J. Koopman and S. Grimme, ACS Omega 2019, 4, 12, 15120-15133.
     DOI: 10.1021/acsomega.9b02011
   
   for metadynamics refer to:
   * S. Grimme, J. Chem. Theory Comput., 2019, 155, 2847-2862
     DOI: 10.1021/acs.jctc.9b00143
   
   with help from (in alphabetical order)
   C. Bannwarth, F. Bohle, G. Brandenburg, E. Caldeweyher, M. Checinski,
   S. Dohm, S. Ehlert, S. Ehrlich, F. März, H. Neugebauer, J. Pisarek,
   P. Pracht, P. Shushkov, and S. Spicher.
   
 * started run on 2020/06/24 at 14:09:26.478     

           -------------------------------------------------
          |                Calculation Setup                |
           -------------------------------------------------

          program call               : /opt/orca/otool_xtb opt+freq_XTB.xyz --grad -c 0 -u 0 -P 12 --namespace opt+freq --gbsa CH2Cl2
          calculation namespace      : opt+freq
          coordinate file            : opt+freq_XTB.xyz
          number of atoms            :                    49
          number of electrons        :                   112
          charge                     :                     0
          spin                       :                   0.0
          first test random number   :      0.11274305437983

   ID    Z sym.   atoms
    1    6 C      1-7, 12, 14, 28, 31, 36, 39, 42, 45
    2    1 H      8-10, 13, 15-18, 21-27, 29, 30, 32-35, 37, 38, 40, 41, 43,
                  44, 46-48
    3    7 N      11, 49
    4    8 O      19, 20

molecular fragmentation (1/2 indicates fragments):
1111111111112111111212211111111111222222222222222
# atoms in fragment 1/2:    30    19
 fragment masses (1/2) :      179.26       91.15
CMA distance (Bohr)    :   6.908
constraining FC (au)   :  0.0500
########################################################################
[WARNING] Please study the warnings concerning your input carefully
-1- prog_main_parseArguments: Process number higher than OMP_NUM_THREADS, I hope you know what you are doing.
########################################################################
 Solvent             : CH2Cl2
 Using internal parameter file: .param_gbsa2_CH2Cl2
 Gsolv ref. state (COSMO-RS): gsolv [1 M gas/solution]
 temperature (mdtemp)       :    298.14999999999998     
 dielectric constant        :    8.9299999999999997     
 rho                        :    1.3300000000000003     
 mass                       :    84.930000000000007     
 surface tension            :    15.568945408385856     
 probe radius               :   0.71987590000000001     
 Gshift (Eh)                :    4.4408291734517593E-003
 c1                         :    1.4917377599999999     
 soset                      :    0.0000000000000000     
 HB correction              :  F

           -------------------------------------------------
          |                 G F N 2 - x T B                 |
           -------------------------------------------------

        Reference                      10.1021/acs.jctc.8b01176
      * Hamiltonian:
        H0-scaling (s, p, d)           1.850000    2.230000    2.230000
        zeta-weighting                 0.500000
      * Dispersion:
        s8                             2.700000
        a1                             0.520000
        a2                             5.000000
        s9                             5.000000
      * Repulsion:
        kExp                           1.500000    1.000000
        rExp                           1.000000
      * Coulomb:
        alpha                          2.000000
        third order                    shell-resolved
        anisotropic                    true
        a3                             3.000000
        a5                             4.000000
        cn-shift                       1.200000
        cn-exp                         4.000000
        max-rad                        5.000000

q/qsh data taken from xtbrestart
CAMM data taken from xtbrestart

          ...................................................
          :                      SETUP                      :
          :.................................................:
          :  # basis functions                 106          :
          :  # atomic orbitals                 106          :
          :  # shells                           68          :
          :  # electrons                       112          :
          :  max. iterations                   250          :
          :  Hamiltonian                  GFN2-xTB          :
          :  restarted?                       true          :
          :  GBSA solvation                   true          :
          :  PC potential                    false          :
          :  electronic temp.          300.0000000     K    :
          :  accuracy                    1.0000000          :
          :  -> integral cutoff          0.2500000E+02      :
          :  -> integral neglect         0.1000000E-07      :
          :  -> SCF convergence          0.1000000E-05 Eh   :
          :  -> wf. convergence          0.1000000E-03 e    :
          :  Broyden damping             0.4000000          :
          ...................................................

 iter      E             dE          RMSdq      gap      omega  full diag
   1    -62.2163311 -0.622163E+02  0.110E+00    4.21       0.0  T
   2    -62.2249721 -0.864104E-02  0.662E-01    4.08       1.0  T
   3    -62.2258613 -0.889140E-03  0.265E-01    4.01       1.0  T
   4    -62.2261772 -0.315941E-03  0.758E-02    3.99       1.0  T
   5    -62.2262458 -0.685646E-04  0.372E-02    4.00       1.0  T
   6    -62.2262461 -0.307000E-06  0.193E-02    4.01       1.0  T
   7    -62.2262524 -0.629808E-05  0.507E-03    4.01       2.8  T
   8    -62.2262526 -0.178985E-06  0.170E-03    4.01       8.4  T
   9    -62.2262526 -0.260104E-07  0.795E-04    4.01      18.0  T
  10    -62.2262526 -0.523178E-08  0.288E-04    4.01      49.5  T

   *** convergence criteria satisfied after 10 iterations ***

         #    Occupation            Energy/Eh            Energy/eV
      -------------------------------------------------------------
         1        2.0000           -0.6913126             -18.8116
       ...           ...                  ...                  ...
        50        2.0000           -0.4269780             -11.6187
        51        2.0000           -0.4262608             -11.5991
        52        2.0000           -0.4105118             -11.1706
        53        2.0000           -0.4079546             -11.1010
        54        2.0000           -0.4067985             -11.0696
        55        2.0000           -0.3915038             -10.6534
        56        2.0000           -0.3788332             -10.3086 (HOMO)
        57                         -0.2315764              -6.3015 (LUMO)
        58                         -0.2288642              -6.2277
        59                         -0.1024274              -2.7872
        60                          0.0012961               0.0353
        61                          0.0190823               0.5193
       ...                                ...                  ...
       106                          0.6584752              17.9180
      -------------------------------------------------------------
                  HL-Gap            0.1472568 Eh            4.0071 eV
             Fermi-level           -0.3052048 Eh           -8.3050 eV

 SCC (total)                   0 d,  0 h,  0 min,  0.193 sec
 SCC setup                      ...        0 min,  0.002 sec (  1.256%)
 Dispersion                     ...        0 min,  0.001 sec (  0.449%)
 classical contributions        ...        0 min,  0.000 sec (  0.159%)
 integral evaluation            ...        0 min,  0.030 sec ( 15.738%)
 iterations                     ...        0 min,  0.088 sec ( 45.500%)
 molecular gradient             ...        0 min,  0.068 sec ( 35.292%)
 printout                       ...        0 min,  0.003 sec (  1.594%)

         :::::::::::::::::::::::::::::::::::::::::::::::::::::
         ::                     SUMMARY                     ::
         :::::::::::::::::::::::::::::::::::::::::::::::::::::
         :: total energy             -61.405673451114 Eh    ::
         :: total w/o Gsasa/hb       -61.382566788385 Eh    ::
         :: gradient norm              0.002407330411 Eh/a0 ::
         :: HOMO-LUMO gap              4.007061437978 eV    ::
         ::.................................................::
         :: SCC energy               -62.249359247503 Eh    ::
         :: -> isotropic ES            0.089951112467 Eh    ::
         :: -> anisotropic ES         -0.000906863794 Eh    ::
         :: -> anisotropic XC          0.034117821513 Eh    ::
         :: -> dispersion             -0.042554387840 Eh    ::
         :: -> Gsolv                  -0.029932261284 Eh    ::
         ::    -> Gborn               -0.006825598555 Eh    ::
         ::    -> Gsasa               -0.027547491903 Eh    ::
         ::    -> Ghb                  0.000000000000 Eh    ::
         ::    -> Gshift               0.004440829173 Eh    ::
         :: repulsion energy           0.842511263320 Eh    ::
         :: add. restraining           0.000000000000 Eh    ::
         :::::::::::::::::::::::::::::::::::::::::::::::::::::

           -------------------------------------------------
          |                Property Printout                |
           -------------------------------------------------

    * Orbital Energies and Occupations

         #    Occupation            Energy/Eh            Energy/eV
      -------------------------------------------------------------
         1        2.0000           -0.6913126             -18.8116
       ...           ...                  ...                  ...
        44        2.0000           -0.4429214             -12.0525
        45        2.0000           -0.4405418             -11.9878
        46        2.0000           -0.4398086             -11.9678
        47        2.0000           -0.4370956             -11.8940
        48        2.0000           -0.4335121             -11.7965
        49        2.0000           -0.4284848             -11.6597
        50        2.0000           -0.4269780             -11.6187
        51        2.0000           -0.4262608             -11.5991
        52        2.0000           -0.4105118             -11.1706
        53        2.0000           -0.4079546             -11.1010
        54        2.0000           -0.4067985             -11.0696
        55        2.0000           -0.3915038             -10.6534
        56        2.0000           -0.3788332             -10.3086 (HOMO)
        57                         -0.2315764              -6.3015 (LUMO)
        58                         -0.2288642              -6.2277
        59                         -0.1024274              -2.7872
        60                          0.0012961               0.0353
        61                          0.0190823               0.5193
        62                          0.0564595               1.5363
        63                          0.0656297               1.7859
        64                          0.0771566               2.0995
        65                          0.0820830               2.2336
        66                          0.0961370               2.6160
        67                          0.1060664               2.8862
       ...                                ...                  ...
       106                          0.6584752              17.9180
      -------------------------------------------------------------
                  HL-Gap            0.1472568 Eh            4.0071 eV
             Fermi-level           -0.3052048 Eh           -8.3050 eV

     #   Z        covCN         q      C6AA      α(0)
     1   6 C      2.972    -0.020    28.494     8.756
     2   6 C      2.925    -0.041    29.020     8.834
     3   6 C      2.919    -0.030    28.749     8.793
     4   6 C      2.919    -0.031    28.770     8.796
     5   6 C      2.920    -0.030    28.737     8.791
     6   6 C      2.921    -0.037    28.913     8.818
     7   6 C      3.666     0.187    17.863     6.061
     8   1 H      0.925     0.025     2.652     2.547
     9   1 H      0.926     0.056     2.250     2.346
    10   1 H      0.926     0.042     2.425     2.435
    11   7 N      2.681    -0.302    27.778     7.828
    12   6 C      3.736     0.019    20.331     6.435
    13   1 H      0.859     0.190     1.160     1.687
    14   6 C      3.803    -0.073    21.898     6.662
    15   1 H      0.924     0.032     2.564     2.504
    16   1 H      0.923     0.013     2.849     2.640
    17   1 H      0.925     0.057     2.234     2.337
    18   1 H      0.924     0.038     2.478     2.462
    19   8 O      1.654    -0.489    22.666     6.427
    20   8 O      1.605    -0.631    25.947     6.875
    21   1 H      0.802     0.333     0.630     1.247
    22   1 H      0.805     0.288     0.757     1.366
    23   1 H      0.809     0.313     0.684     1.298
    24   1 H      0.922     0.009     2.913     2.669
    25   1 H      0.860     0.149     1.407     1.858
    26   1 H      0.926     0.040     2.444     2.445
    27   1 H      0.926     0.043     2.415     2.430
    28   6 C      3.801    -0.055    21.561     6.611
    29   1 H      0.924     0.031     2.566     2.505
    30   1 H      0.924     0.031     2.579     2.511
    31   6 C      3.752    -0.106    22.588     6.778
    32   1 H      0.925     0.038     2.472     2.459
    33   1 H      0.925     0.038     2.473     2.459
    34   1 H      0.925     0.038     2.475     2.460
    35   1 H      0.860     0.145     1.439     1.879
    36   6 C      3.732     0.007    20.549     6.470
    37   1 H      0.924     0.035     2.518     2.482
    38   1 H      0.924     0.036     2.503     2.474
    39   6 C      3.802    -0.069    21.811     6.649
    40   1 H      0.924     0.026     2.646     2.544
    41   1 H      0.924     0.032     2.552     2.498
    42   6 C      3.801    -0.056    21.586     6.615
    43   1 H      0.924     0.032     2.565     2.505
    44   1 H      0.924     0.034     2.527     2.486
    45   6 C      3.752    -0.104    22.549     6.772
    46   1 H      0.925     0.035     2.517     2.481
    47   1 H      0.925     0.038     2.474     2.460
    48   1 H      0.925     0.037     2.489     2.467
    49   7 N      2.636    -0.392    30.144     8.154

 Mol. C6AA /au·bohr⁶  :      19043.011375
 Mol. C8AA /au·bohr⁸  :     412876.405590
 Mol. α(0) /au        :        210.065894


Wiberg/Mayer (AO) data.
largest (>0.10) Wiberg bond orders for each atom
          total WBO             WBO to atom ...
     1  C   3.987        C    6 1.423    C    2 1.408    C    7 0.972    C    4 0.110
     2  C   3.992        C    3 1.451    C    1 1.408    H    8 0.968    C    5 0.112
     3  C   3.992        C    2 1.451    C    4 1.432    H   26 0.970    C    6 0.110
     4  C   3.991        C    5 1.447    C    3 1.432    H   10 0.971    C    1 0.110
     5  C   3.991        C    4 1.447    C    6 1.434    H   27 0.970    C    2 0.112
     6  C   3.990        C    5 1.434    C    1 1.423    H    9 0.961    C    3 0.110
     7  C   3.954        O   19 1.019    C    1 0.972    N   11 0.966    H   24 0.945
     8  H   0.999        C    2 0.968
     9  H   0.997        C    6 0.961
    10  H   0.998        C    4 0.971
    11  N   3.124        C   12 0.999    C    7 0.966    H   25 0.948
    12  C   3.979        C   14 1.004    N   11 0.999    H   15 0.976    H   16 0.967
    13  H   0.964        N   49 0.893
    14  C   3.993        C   28 1.007    C   12 1.004    H   18 0.976    H   17 0.970
    15  H   0.999        C   12 0.976
    16  H   1.000        C   12 0.967
    17  H   0.997        C   14 0.970
    18  H   0.999        C   14 0.976
    19  O   1.959        C    7 1.019    H   21 0.808
    20  O   1.856        H   22 0.914    H   23 0.800
    21  H   0.889        O   19 0.808
    22  H   0.917        O   20 0.914
    23  H   0.902        O   20 0.800
    24  H   1.000        C    7 0.945
    25  H   0.977        N   11 0.948
    26  H   0.998        C    3 0.970
    27  H   0.998        C    5 0.970
    28  C   3.997        C   31 1.019    C   14 1.007    H   29 0.979    H   30 0.978
    29  H   0.999        C   28 0.979
    30  H   0.999        C   28 0.978
    31  C   3.996        C   28 1.019    H   34 0.988    H   32 0.988    H   33 0.987
    32  H   0.999        C   31 0.988
    33  H   0.998        C   31 0.987
    34  H   0.999        C   31 0.988
    35  H   0.979        N   49 0.963
    36  C   3.983        N   49 1.018    C   39 0.998    H   38 0.975    H   37 0.972
    37  H   0.999        C   36 0.972
    38  H   0.999        C   36 0.975
    39  C   3.997        C   42 1.007    C   36 0.998    H   40 0.976    H   41 0.976
    40  H   0.999        C   39 0.976
    41  H   0.999        C   39 0.976
    42  C   3.997        C   45 1.019    C   39 1.007    H   43 0.979    H   44 0.978
    43  H   0.999        C   42 0.979
    44  H   0.999        C   42 0.978
    45  C   3.997        C   42 1.019    H   46 0.988    H   48 0.988    H   47 0.987
    46  H   0.999        C   45 0.988
    47  H   0.998        C   45 0.987
    48  H   0.999        C   45 0.988
    49  N   3.098        C   36 1.018    H   35 0.963    H   13 0.893
Topologies differ in total number of bonds
Writing topology from bond orders to xtbtopo.mol

molecular dipole:
                 x           y           z       tot (Debye)
 q only:        0.050       0.377       1.219
   full:        0.156       0.955       1.475       4.483
molecular quadrupole (traceless):
                xx          xy          yy          xz          yz          zz
 q only:        7.671      -2.098      -3.776       4.515      -2.123      -3.895
  q+dip:        6.831      -0.408      -2.088       7.094      -4.869      -4.742
   full:        6.873      -0.887      -3.730       7.006      -3.851      -3.143


           -------------------------------------------------
          | TOTAL ENERGY              -61.405673451114 Eh   |
          | GRADIENT NORM               0.002407330411 Eh/α |
          | HOMO-LUMO GAP               4.007061437978 eV   |
           -------------------------------------------------

------------------------------------------------------------------------
 * finished run on 2020/06/24 at 14:09:26.750     
------------------------------------------------------------------------
 total:
 * wall-time:     0 d,  0 h,  0 min,  0.272 sec
 *  cpu-time:     0 d,  0 h,  0 min,  2.721 sec
 * ratio c/w:    10.014 speedup
 SCF:
 * wall-time:     0 d,  0 h,  0 min,  0.199 sec
 *  cpu-time:     0 d,  0 h,  0 min,  2.033 sec
 * ratio c/w:    10.222 speedup


-------------------------   --------------------
FINAL SINGLE POINT ENERGY       -61.405673451110
-------------------------   --------------------

------------------------------------------------------------------------------
                         ORCA GEOMETRY RELAXATION STEP
------------------------------------------------------------------------------

Reading the OPT-File                    .... done
Getting information on internals        .... done
Copying old internal coords+grads       .... done
Making the new internal coordinates     .... (new redundants).... done
Validating the new internal coordinates .... (new redundants).... done
Calculating the B-matrix                .... done
Calculating the G,G- and P matrices     .... done
Transforming gradient to internals      .... done
Projecting the internal gradient        .... done
Number of atoms                         ....  49
Number of internal coordinates          .... 319
Current Energy                          ....   -61.405673451 Eh
Current gradient norm                   ....     0.002407330 Eh/bohr
Maximum allowed component of the step   ....  0.300
Current trust radius                    ....  0.300
Evaluating the initial hessian          ....  (Almloef) done
Projecting the Hessian                  .... done
Forming the augmented Hessian           .... done
Diagonalizing the augmented Hessian     .... done
Last element of RFO vector              ....  0.987159297
Lowest eigenvalues of augmented Hessian:
 -0.000697629  0.001062616  0.011178148  0.011333804  0.011439269
Length of the computed step             ....  0.161816760
The final length of the internal step   ....  0.161816760
Converting the step to cartesian space:
 Initial RMS(Int)=    0.0090599992
Transforming coordinates:
 Iter   0:  RMS(Cart)=    0.0429775923 RMS(Int)=    0.3518334608
 Iter   1:  RMS(Cart)=    0.0003410217 RMS(Int)=    0.0001461810
 Iter   2:  RMS(Cart)=    0.0000071851 RMS(Int)=    0.0000072447
 Iter   3:  RMS(Cart)=    0.0000002882 RMS(Int)=    0.0000003240
 Iter   4:  RMS(Cart)=    0.0000000096 RMS(Int)=    0.0000000126
done
Storing new coordinates                 .... done

                                .--------------------.
          ----------------------|Geometry convergence|-------------------------
          Item                value                   Tolerance       Converged
          ---------------------------------------------------------------------
          RMS gradient        0.0004517735            0.0001000000      NO
          MAX gradient        0.0025504857            0.0003000000      NO
          RMS step            0.0090599992            0.0020000000      NO
          MAX step            0.0928413249            0.0040000000      NO
          ........................................................
          Max(Bonds)      0.0491      Max(Angles)    0.91
          Max(Dihed)        1.37      Max(Improp)    0.00
          ---------------------------------------------------------------------

The optimization has not yet converged - more geometry cycles are needed


    ---------------------------------------------------------------------------
                         Redundant Internal Coordinates
                            (Angstroem and degrees)

        Definition                    Value    dE/dq     Step     New-Value
    ----------------------------------------------------------------------------
     1. B(C   1,C   0)                1.3911 -0.000734  0.0006    1.3917   
     2. B(C   2,C   1)                1.3822 -0.000359  0.0003    1.3826   
     3. B(C   3,C   2)                1.3853 -0.000099  0.0001    1.3854   
     4. B(C   4,C   3)                1.3837  0.000090 -0.0001    1.3836   
     5. B(C   5,C   4)                1.3866  0.000421 -0.0004    1.3863   
     6. B(C   5,C   0)                1.3881  0.000809 -0.0007    1.3874   
     7. B(C   6,C   0)                1.5201  0.000158 -0.0002    1.5199   
     8. B(H   7,C   1)                1.0821 -0.000130  0.0002    1.0823   
     9. B(H   8,C   5)                1.0794  0.000115 -0.0002    1.0792   
    10. B(H   9,C   3)                1.0799  0.000004 -0.0000    1.0799   
    11. B(N  10,C   6)                1.4703  0.000190 -0.0003    1.4699   
    12. B(C  11,N  10)                1.4620 -0.001009  0.0012    1.4633   
    13. B(H  12,N  10)                1.8323 -0.002550  0.0491    1.8814   
    14. B(C  13,C  11)                1.5280 -0.000183  0.0003    1.5283   
    15. B(H  14,C  11)                1.0945  0.000254 -0.0004    1.0942   
    16. B(H  15,C  11)                1.1015 -0.000285  0.0004    1.1019   
    17. B(H  16,C  13)                1.0900 -0.000122  0.0002    1.0901   
    18. B(H  17,C  13)                1.0918  0.000246 -0.0004    1.0914   
    19. B(O  18,C   6)                1.3871 -0.000270  0.0007    1.3878   
    20. B(H  20,O  19)                1.7631 -0.000424  0.0255    1.7886   
    21. B(H  20,O  18)                0.9847 -0.001181  0.0019    0.9866   
    22. B(H  21,H  20)                2.2211 -0.000509  0.0236    2.2447   
    23. B(H  21,O  19)                0.9601 -0.000087  0.0008    0.9609   
    24. B(H  22,H  12)                2.0645 -0.000516  0.0047    2.0692   
    25. B(H  22,H  20)                2.0486 -0.000907  0.0271    2.0758   
    26. B(H  22,O  19)                0.9966 -0.000381  0.0019    0.9984   
    27. B(H  23,C   6)                1.1085 -0.000253  0.0004    1.1089   
    28. B(H  24,N  10)                1.0153  0.000177 -0.0002    1.0151   
    29. B(H  25,C   2)                1.0800 -0.000099  0.0001    1.0801   
    30. B(H  26,C   4)                1.0802  0.000116 -0.0002    1.0800   
    31. B(C  27,C  13)                1.5263 -0.000603  0.0008    1.5271   
    32. B(H  28,C  27)                1.0929 -0.000018  0.0000    1.0929   
    33. B(H  29,C  27)                1.0926 -0.000083  0.0001    1.0927   
    34. B(C  30,C  27)                1.5242 -0.000091  0.0001    1.5243   
    35. B(H  31,C  30)                1.0880  0.000051 -0.0001    1.0879   
    36. B(H  32,C  30)                1.0876 -0.000065  0.0001    1.0877   
    37. B(H  33,C  30)                1.0879 -0.000007  0.0000    1.0879   
    38. B(H  36,C  35)                1.0932  0.000244 -0.0004    1.0928   
    39. B(H  37,C  35)                1.0942 -0.000326  0.0005    1.0947   
    40. B(C  38,C  35)                1.5297 -0.001110  0.0016    1.5314   
    41. B(H  39,C  38)                1.0936  0.000123 -0.0002    1.0934   
    42. B(H  40,C  38)                1.0943 -0.000088  0.0001    1.0944   
    43. B(C  41,C  38)                1.5253 -0.001028  0.0015    1.5267   
    44. B(H  42,C   3)                4.0651 -0.000102  0.0100    4.0750   
    45. B(H  42,C  41)                1.0923 -0.000075 -0.0000    1.0923   
    46. B(H  43,C  41)                1.0923 -0.000011  0.0000    1.0923   
    47. B(C  44,C  41)                1.5241 -0.000506  0.0007    1.5248   
    48. B(H  45,C  44)                1.0881 -0.000022  0.0000    1.0882   
    49. B(H  46,C  44)                1.0873 -0.000153  0.0002    1.0875   
    50. B(H  47,C  44)                1.0883  0.000045 -0.0001    1.0883   
    51. B(N  48,H  22)                1.6735 -0.000789  0.0106    1.6841   
    52. B(N  48,C  35)                1.4577 -0.001888  0.0023    1.4600   
    53. B(N  48,H  34)                1.0151 -0.000389  0.0005    1.0156   
    54. B(N  48,H  12)                1.0281 -0.001703  0.0024    1.0306   
    55. A(C   1,C   0,C   6)          118.19 -0.001660    0.24    118.43   
    56. A(C   5,C   0,C   6)          122.69  0.001715   -0.24    122.45   
    57. A(C   1,C   0,C   5)          119.10 -0.000056    0.01    119.11   
    58. A(C   0,C   1,H   7)          119.44 -0.000455    0.07    119.51   
    59. A(C   2,C   1,H   7)          119.80  0.000122   -0.03    119.77   
    60. A(C   0,C   1,C   2)          120.76  0.000333   -0.04    120.72   
    61. A(C   1,C   2,C   3)          119.91  0.000071   -0.00    119.91   
    62. A(C   1,C   2,H  25)          119.76 -0.000196    0.03    119.79   
    63. A(C   3,C   2,H  25)          120.32  0.000124   -0.02    120.30   
    64. A(C   4,C   3,H   9)          120.28  0.000101   -0.02    120.27   
    65. A(C   2,C   3,H   9)          120.06 -0.000079    0.01    120.07   
    66. A(C   2,C   3,C   4)          119.66 -0.000021    0.00    119.66   
    67. A(C   3,C   4,C   5)          120.50 -0.000042   -0.00    120.50   
    68. A(C   3,C   4,H  26)          120.07 -0.000149    0.03    120.09   
    69. A(C   5,C   4,H  26)          119.43  0.000192   -0.03    119.40   
    70. A(C   4,C   5,H   8)          119.37 -0.000177    0.04    119.41   
    71. A(C   0,C   5,C   4)          120.06 -0.000285    0.03    120.10   
    72. A(C   0,C   5,H   8)          120.56  0.000462   -0.07    120.50   
    73. A(C   0,C   6,O  18)          114.72  0.000366   -0.07    114.66   
    74. A(C   0,C   6,H  23)          108.67  0.000194   -0.08    108.59   
    75. A(N  10,C   6,O  18)          111.95  0.000205   -0.01    111.94   
    76. A(C   0,C   6,N  10)          107.09 -0.000517    0.13    107.22   
    77. A(N  10,C   6,H  23)          110.18  0.000183   -0.05    110.14   
    78. A(O  18,C   6,H  23)          104.16 -0.000403    0.07    104.23   
    79. A(H  12,N  10,H  24)          104.41  0.000747   -0.31    104.11   
    80. A(C  11,N  10,H  24)          109.17  0.000016   -0.18    108.99   
    81. A(C   6,N  10,H  24)          107.25 -0.000392   -0.10    107.15   
    82. A(C  11,N  10,H  12)          108.17 -0.001843    0.91    109.09   
    83. A(C   6,N  10,H  12)          110.90 -0.000224   -0.00    110.90   
    84. A(C   6,N  10,C  11)          116.27  0.001656   -0.35    115.92   
    85. A(C  13,C  11,H  15)          109.29  0.000820   -0.15    109.13   
    86. A(H  14,C  11,H  15)          108.09 -0.000318   -0.07    108.02   
    87. A(N  10,C  11,H  14)          107.02  0.000657   -0.06    106.96   
    88. A(C  13,C  11,H  14)          109.33  0.000420   -0.01    109.32   
    89. A(N  10,C  11,H  15)          111.07  0.000644   -0.11    110.96   
    90. A(N  10,C  11,C  13)          111.93 -0.002178    0.40    112.33   
    91. A(H  22,H  12,N  48)           53.61 -0.000280    0.38     53.99   
    92. A(N  10,H  12,H  22)          121.49  0.000422   -0.53    120.97   
    93. A(N  10,H  12,N  48)          171.65  0.000264   -0.24    171.41   
    94. A(H  17,C  13,C  27)          109.70  0.000111   -0.09    109.61   
    95. A(H  16,C  13,H  17)          108.01 -0.000011    0.04    108.05   
    96. A(C  11,C  13,H  16)          108.69 -0.000181    0.09    108.78   
    97. A(H  16,C  13,C  27)          109.49 -0.000150    0.08    109.57   
    98. A(C  11,C  13,C  27)          111.76  0.000234   -0.05    111.71   
    99. A(C  11,C  13,H  17)          109.10 -0.000013   -0.06    109.05   
   100. A(C   6,O  18,H  20)          110.47  0.000020    0.28    110.75   
   101. A(H  21,O  19,H  22)          106.30  0.000020   -0.03    106.27   
   102. A(H  20,O  19,H  22)           91.55 -0.000211    0.26     91.81   
   103. A(H  20,O  19,H  21)          105.47 -0.000049   -0.01    105.46   
   104. A(O  18,H  20,H  22)          155.88 -0.000008    0.30    156.17   
   105. A(H  21,H  20,H  22)           42.79  0.000033   -0.47     42.32   
   106. A(O  19,H  20,H  21)           24.62  0.000040   -0.26     24.36   
   107. A(O  18,H  20,H  21)          144.19 -0.000084    0.38    144.57   
   108. A(O  18,H  20,O  19)          168.41 -0.000048    0.14    168.54   
   109. A(O  19,H  20,H  22)           29.10  0.000021   -0.37     28.73   
   110. A(O  19,H  21,H  20)           49.91  0.000009    0.26     50.17   
   111. A(H  12,H  22,N  48)           29.64 -0.000474    0.03     29.67   
   112. A(O  19,H  22,N  48)          166.30 -0.000374    0.11    166.42   
   113. A(H  12,H  22,H  20)           77.52 -0.000096   -0.01     77.51   
   114. A(O  19,H  22,H  20)           59.35  0.000190    0.11     59.46   
   115. A(H  20,H  22,N  48)          106.98 -0.000563    0.01    106.99   
   116. A(H  12,H  22,O  19)          136.67  0.000099    0.08    136.76   
   117. A(H  29,C  27,C  30)          109.31  0.000093    0.03    109.34   
   118. A(H  28,C  27,C  30)          109.63  0.000143   -0.08    109.55   
   119. A(C  13,C  27,C  30)          111.47 -0.000225    0.05    111.51   
   120. A(H  28,C  27,H  29)          107.70  0.000005   -0.03    107.67   
   121. A(C  13,C  27,H  29)          109.05 -0.000184    0.11    109.16   
   122. A(C  13,C  27,H  28)          109.61  0.000173   -0.08    109.53   
   123. A(H  32,C  30,H  33)          108.47  0.000031   -0.02    108.45   
   124. A(H  31,C  30,H  33)          108.36 -0.000016    0.01    108.36   
   125. A(C  27,C  30,H  33)          110.64  0.000120   -0.03    110.61   
   126. A(H  31,C  30,H  32)          108.47  0.000051    0.00    108.47   
   127. A(C  27,C  30,H  32)          110.53 -0.000076    0.01    110.54   
   128. A(C  27,C  30,H  31)          110.31 -0.000108    0.03    110.33   
   129. A(H  37,C  35,C  38)          109.85  0.000774   -0.10    109.76   
   130. A(H  36,C  35,C  38)          109.75  0.000667   -0.15    109.61   
   131. A(H  36,C  35,H  37)          108.19 -0.000299   -0.08    108.11   
   132. A(C  38,C  35,N  48)          113.65 -0.002163    0.38    114.03   
   133. A(H  37,C  35,N  48)          108.01  0.000274    0.06    108.07   
   134. A(H  36,C  35,N  48)          107.21  0.000800   -0.13    107.08   
   135. A(H  40,C  38,C  41)          109.38 -0.000067    0.05    109.43   
   136. A(H  39,C  38,C  41)          109.56  0.000110   -0.09    109.47   
   137. A(C  35,C  38,C  41)          112.19  0.000172   -0.01    112.18   
   138. A(H  39,C  38,H  40)          107.72  0.000016    0.01    107.73   
   139. A(C  35,C  38,H  40)          108.97 -0.000306    0.13    109.10   
   140. A(C  35,C  38,H  39)          108.91  0.000066   -0.08    108.83   
   141. A(C  38,C  41,H  42)          109.12  0.000391   -0.07    109.04   
   142. A(H  43,C  41,C  44)          109.54  0.000387   -0.03    109.51   
   143. A(H  42,C  41,C  44)          109.76  0.000455   -0.12    109.64   
   144. A(C  38,C  41,C  44)          111.57 -0.001169    0.22    111.78   
   145. A(H  42,C  41,H  43)          107.71 -0.000186   -0.04    107.67   
   146. A(C  38,C  41,H  43)          109.06  0.000154    0.04    109.11   
   147. A(H  46,C  44,H  47)          108.43  0.000135   -0.03    108.40   
   148. A(H  45,C  44,H  47)          108.34  0.000105    0.01    108.35   
   149. A(C  41,C  44,H  47)          110.43 -0.000289    0.06    110.50   
   150. A(H  45,C  44,H  46)          108.46  0.000130   -0.05    108.41   
   151. A(C  41,C  44,H  46)          110.61  0.000052   -0.02    110.59   
   152. A(C  41,C  44,H  45)          110.49 -0.000120    0.02    110.51   
   153. A(H  22,N  48,C  35)          110.70 -0.000046    0.04    110.74   
   154. A(H  22,N  48,H  34)          121.27 -0.000248    0.10    121.37   
   155. A(H  12,N  48,H  22)           96.74  0.000755   -0.41     96.34   
   156. A(H  34,N  48,C  35)          109.93  0.000365   -0.11    109.82   
   157. A(H  12,N  48,C  35)          108.80 -0.000638    0.30    109.10   
   158. A(H  12,N  48,H  34)          108.10 -0.000270    0.10    108.20   
   159. D(H   7,C   1,C   0,C   5)   -179.31 -0.000127    0.30   -179.01   
   160. D(C   2,C   1,C   0,C   6)   -178.42 -0.000132    0.02   -178.40   
   161. D(C   2,C   1,C   0,C   5)      0.20 -0.000118    0.22      0.41   
   162. D(H   7,C   1,C   0,C   6)      2.08 -0.000141    0.10      2.18   
   163. D(H  25,C   2,C   1,H   7)     -0.54  0.000018   -0.09     -0.63   
   164. D(H  25,C   2,C   1,C   0)    179.96  0.000013   -0.01    179.95   
   165. D(C   3,C   2,C   1,C   0)     -0.41 -0.000025    0.02     -0.39   
   166. D(C   3,C   2,C   1,H   7)    179.09 -0.000019   -0.06    179.03   
   167. D(C   4,C   3,C   2,H  25)    179.85  0.000079   -0.15    179.70   
   168. D(H   9,C   3,C   2,H  25)      0.01  0.000034   -0.09     -0.08   
   169. D(H   9,C   3,C   2,C   1)   -179.62  0.000072   -0.11   -179.73   
   170. D(C   4,C   3,C   2,C   1)      0.22  0.000118   -0.18      0.04   
   171. D(H  26,C   4,C   3,C   2)   -179.97 -0.000050    0.08   -179.89   
   172. D(C   5,C   4,C   3,H   9)   -179.98 -0.000025    0.03   -179.95   
   173. D(C   5,C   4,C   3,C   2)      0.19 -0.000071    0.09      0.28   
   174. D(H  26,C   4,C   3,H   9)     -0.14 -0.000004    0.02     -0.12   
   175. D(H   8,C   5,C   4,H  26)      0.12 -0.000028    0.08      0.20   
   176. D(C   0,C   5,C   4,H  26)    179.76 -0.000091    0.16    179.92   
   177. D(C   0,C   5,C   4,C   3)     -0.40 -0.000071    0.15     -0.25   
   178. D(H   8,C   5,C   0,C   1)    179.85  0.000099   -0.23    179.62   
   179. D(H   8,C   5,C   4,C   3)    179.96 -0.000008    0.08    180.03   
   180. D(C   4,C   5,C   0,C   6)    178.76  0.000130   -0.09    178.67   
   181. D(C   4,C   5,C   0,C   1)      0.21  0.000165   -0.30     -0.09   
   182. D(H   8,C   5,C   0,C   6)     -1.60  0.000063   -0.01     -1.62   
   183. D(H  23,C   6,C   0,C   1)    -45.65 -0.000163    0.58    -45.07   
   184. D(O  18,C   6,C   0,C   5)     19.69  0.000005    0.38     20.07   
   185. D(H  23,C   6,C   0,C   5)    135.78 -0.000149    0.37    136.15   
   186. D(N  10,C   6,C   0,C   1)     73.35 -0.000129    0.55     73.90   
   187. D(N  10,C   6,C   0,C   5)   -105.21 -0.000116    0.34   -104.87   
   188. D(O  18,C   6,C   0,C   1)   -161.75 -0.000009    0.59   -161.16   
   189. D(C  11,N  10,C   6,C   0)   -162.85 -0.000898    1.05   -161.80   
   190. D(H  12,N  10,C   6,H  23)   -168.94  0.000532    0.03   -168.91   
   191. D(H  12,N  10,C   6,O  18)    -53.53  0.000271    0.08    -53.45   
   192. D(C  11,N  10,C   6,O  18)     70.59 -0.001128    1.05     71.64   
   193. D(H  24,N  10,C   6,O  18)   -166.95 -0.000284    0.50   -166.45   
   194. D(H  24,N  10,C   6,C   0)    -40.39 -0.000055    0.50    -39.89   
   195. D(C  11,N  10,C   6,H  23)    -44.83 -0.000866    1.01    -43.82   
   196. D(H  12,N  10,C   6,C   0)     73.04  0.000500    0.08     73.11   
   197. D(H  24,N  10,C   6,H  23)     77.63 -0.000023    0.45     78.08   
   198. D(H  15,C  11,N  10,H  12)    170.99 -0.000314    0.25    171.24   
   199. D(H  14,C  11,N  10,H  24)     41.82 -0.000021    0.09     41.91   
   200. D(H  14,C  11,N  10,C   6)    163.27  0.000648   -0.44    162.83   
   201. D(C  13,C  11,N  10,H  12)     48.54 -0.000287    0.24     48.78   
   202. D(H  14,C  11,N  10,H  12)    -71.23  0.000049    0.06    -71.17   
   203. D(C  13,C  11,N  10,H  24)    161.59 -0.000357    0.27    161.85   
   204. D(C  13,C  11,N  10,C   6)    -76.97  0.000313   -0.26    -77.23   
   205. D(H  15,C  11,N  10,C   6)     45.49  0.000285   -0.25     45.24   
   206. D(H  15,C  11,N  10,H  24)    -75.96 -0.000384    0.27    -75.69   
   207. D(H  22,H  12,N  10,H  24)    135.88 -0.000158   -0.39    135.49   
   208. D(H  22,H  12,N  10,C  11)   -107.94 -0.000597   -0.34   -108.27   
   209. D(H  22,H  12,N  10,C   6)     20.68 -0.000002   -0.11     20.57   
   210. D(N  48,H  12,N  10,C  11)   -159.83 -0.000525   -0.27   -160.10   
   211. D(N  48,H  12,N  10,C   6)    -31.22  0.000070   -0.04    -31.26   
   212. D(N  48,H  12,N  10,H  24)     83.99 -0.000086   -0.33     83.66   
   213. D(C  27,C  13,C  11,H  14)    -65.27 -0.000585    1.37    -63.90   
   214. D(C  27,C  13,C  11,N  10)    176.33 -0.000330    1.20    177.53   
   215. D(H  17,C  13,C  11,H  15)    174.35  0.000037    0.99    175.35   
   216. D(H  17,C  13,C  11,H  14)     56.22 -0.000303    1.18     57.40   
   217. D(H  17,C  13,C  11,N  10)    -62.18 -0.000048    1.01    -61.17   
   218. D(H  16,C  13,C  11,H  15)    -68.09 -0.000086    1.06    -67.04   
   219. D(H  16,C  13,C  11,H  14)    173.78 -0.000426    1.24    175.02   
   220. D(C  27,C  13,C  11,H  15)     52.86 -0.000246    1.18     54.04   
   221. D(H  16,C  13,C  11,N  10)     55.37 -0.000171    1.08     56.45   
   222. D(H  20,O  18,C   6,H  23)   -176.09 -0.000206    0.09   -176.00   
   223. D(H  20,O  18,C   6,N  10)     64.88 -0.000287    0.11     64.99   
   224. D(H  20,O  18,C   6,C   0)    -57.43 -0.000038   -0.01    -57.43   
   225. D(H  22,H  20,O  19,H  21)   -107.39  0.000047   -0.04   -107.44   
   226. D(H  21,H  20,O  19,H  22)    107.39 -0.000047    0.04    107.44   
   227. D(O  18,H  20,O  19,H  22)    125.46 -0.000003   -0.03    125.43   
   228. D(O  18,H  20,O  19,H  21)     18.07  0.000045   -0.08     18.00   
   229. D(H  21,H  20,O  18,C   6)   -145.49  0.000235   -0.09   -145.58   
   230. D(O  19,H  20,O  18,C   6)   -158.25  0.000211   -0.03   -158.28   
   231. D(H  22,H  20,O  18,C   6)    -53.98  0.000125   -0.13    -54.10   
   232. D(O  19,H  21,H  20,H  22)     43.09  0.000016   -0.15     42.93   
   233. D(O  19,H  21,H  20,O  18)   -173.88  0.000027   -0.04   -173.92   
   234. D(H  20,H  21,O  19,H  22)    -96.33  0.000239   -0.27    -96.60   
   235. D(N  48,H  22,H  20,H  21)    143.16 -0.000081    0.05    143.20   
   236. D(N  48,H  22,H  20,O  19)    178.97 -0.000033    0.00    178.98   
   237. D(N  48,H  22,H  20,O  18)     22.58  0.000062    0.01     22.59   
   238. D(H  12,H  22,H  20,O  19)    175.64  0.000067   -0.05    175.59   
   239. D(H  12,H  22,H  20,O  18)     19.25  0.000162   -0.04     19.20   
   240. D(O  19,H  22,H  20,H  21)    -35.82 -0.000048    0.04    -35.77   
   241. D(O  19,H  22,H  20,O  18)   -156.39  0.000095    0.01   -156.38   
   242. D(N  48,H  22,O  19,H  20)     -4.15 -0.000036   -0.03     -4.18   
   243. D(N  48,H  22,O  19,H  21)    102.47 -0.000151    0.04    102.51   
   244. D(H  12,H  22,O  19,H  20)     -6.21  0.000086   -0.08     -6.29   
   245. D(H  12,H  22,O  19,H  21)    100.41 -0.000029   -0.01    100.39   
   246. D(H  20,H  22,O  19,H  21)    106.62 -0.000115    0.07    106.69   
   247. D(N  48,H  22,H  12,N  10)   -171.84 -0.000237    0.19   -171.65   
   248. D(H  12,H  22,H  20,H  21)    139.82  0.000019   -0.01    139.82   
   249. D(H  20,H  22,H  12,N  10)      1.70 -0.000156    0.09      1.79   
   250. D(O  19,H  22,H  12,N  10)      7.17 -0.000219    0.17      7.34   
   251. D(O  19,H  22,H  12,N  48)    179.01  0.000018   -0.02    178.99   
   252. D(H  20,H  22,H  12,N  48)    173.54  0.000081   -0.10    173.45   
   253. D(C  30,C  27,C  13,H  16)    -58.11  0.000116   -0.35    -58.46   
   254. D(C  30,C  27,C  13,C  11)   -178.60  0.000292   -0.48   -179.08   
   255. D(H  29,C  27,C  13,H  17)   -178.97 -0.000070   -0.18   -179.15   
   256. D(H  29,C  27,C  13,H  16)     62.66 -0.000032   -0.21     62.45   
   257. D(H  29,C  27,C  13,C  11)    -57.83  0.000144   -0.35    -58.17   
   258. D(H  28,C  27,C  13,H  17)    -61.30 -0.000071   -0.19    -61.49   
   259. D(H  28,C  27,C  13,H  16)   -179.66 -0.000034   -0.23   -179.89   
   260. D(C  30,C  27,C  13,H  17)     60.25  0.000079   -0.32     59.94   
   261. D(H  28,C  27,C  13,C  11)     59.85  0.000142   -0.36     59.49   
   262. D(H  33,C  30,C  27,H  29)    177.49  0.000125    0.15    177.64   
   263. D(H  33,C  30,C  27,C  13)    -61.89 -0.000186    0.34    -61.55   
   264. D(H  32,C  30,C  27,H  29)     57.32  0.000057    0.19     57.51   
   265. D(H  32,C  30,C  27,H  28)    -60.52 -0.000087    0.25    -60.26   
   266. D(H  32,C  30,C  27,C  13)    177.95 -0.000254    0.37    178.32   
   267. D(H  31,C  30,C  27,H  29)    -62.63  0.000112    0.16    -62.47   
   268. D(H  33,C  30,C  27,H  28)     59.65 -0.000019    0.22     59.87   
   269. D(H  31,C  30,C  27,H  28)    179.54 -0.000032    0.23    179.76   
   270. D(H  31,C  30,C  27,C  13)     58.00 -0.000199    0.34     58.34   
   271. D(C  41,C  38,C  35,N  48)   -178.37  0.000531   -0.85   -179.22   
   272. D(C  41,C  38,C  35,H  37)    -57.24 -0.000035   -0.59    -57.82   
   273. D(C  41,C  38,C  35,H  36)     61.60  0.000477   -0.83     60.77   
   274. D(H  40,C  38,C  35,N  48)    -57.09  0.000349   -0.71    -57.79   
   275. D(H  40,C  38,C  35,H  37)     64.04 -0.000217   -0.44     63.60   
   276. D(H  40,C  38,C  35,H  36)   -177.12  0.000295   -0.69   -177.81   
   277. D(H  39,C  38,C  35,N  48)     60.17  0.000234   -0.67     59.50   
   278. D(H  39,C  38,C  35,H  37)   -178.70 -0.000332   -0.40   -179.11   
   279. D(H  39,C  38,C  35,H  36)    -59.87  0.000180   -0.65    -60.52   
   280. D(H  43,C  41,C  38,H  40)    -63.56  0.000133    0.21    -63.35   
   281. D(H  43,C  41,C  38,H  39)    178.57  0.000088    0.22    178.79   
   282. D(H  43,C  41,C  38,C  35)     57.48 -0.000187    0.40     57.88   
   283. D(H  42,C  41,C  38,H  40)    179.03  0.000046    0.27    179.30   
   284. D(H  42,C  41,C  38,H  39)     61.16  0.000001    0.29     61.44   
   285. D(H  42,C  41,C  38,C  35)    -59.93 -0.000273    0.46    -59.47   
   286. D(C  44,C  41,C  38,H  40)     57.58 -0.000031    0.33     57.91   
   287. D(C  44,C  41,C  38,H  39)    -60.29 -0.000076    0.35    -59.94   
   288. D(C  44,C  41,C  38,C  35)    178.62 -0.000350    0.52    179.14   
   289. D(H  47,C  44,C  41,H  42)    179.76  0.000156   -0.18    179.58   
   290. D(H  47,C  44,C  41,C  38)    -59.16  0.000188   -0.21    -59.38   
   291. D(H  46,C  44,C  41,H  43)    -58.34 -0.000133   -0.04    -58.38   
   292. D(H  46,C  44,C  41,H  42)     59.72  0.000141   -0.17     59.55   
   293. D(H  46,C  44,C  41,C  38)   -179.20  0.000173   -0.21   -179.41   
   294. D(H  45,C  44,C  41,H  43)   -178.45 -0.000251    0.03   -178.43   
   295. D(H  45,C  44,C  41,H  42)    -60.39  0.000023   -0.11    -60.50   
   296. D(H  47,C  44,C  41,H  43)     61.70 -0.000118   -0.04     61.65   
   297. D(H  45,C  44,C  41,C  38)     60.69  0.000055   -0.15     60.54   
   298. D(H  22,N  48,C  35,C  38)   -167.76 -0.000470    0.69   -167.07   
   299. D(H  22,N  48,C  35,H  37)     70.08 -0.000229    0.52     70.61   
   300. D(H  34,N  48,C  35,C  38)     55.58 -0.000417    0.62     56.19   
   301. D(H  34,N  48,C  35,H  37)    -66.58 -0.000176    0.45    -66.13   
   302. D(H  34,N  48,C  35,H  36)    177.04 -0.000379    0.58    177.62   
   303. D(H  12,N  48,C  35,H  37)    175.23  0.000318    0.21    175.44   
   304. D(H  12,N  48,C  35,H  36)     58.84  0.000115    0.35     59.19   
   305. D(C  35,N  48,H  22,H  12)    113.05 -0.000372    0.16    113.21   
   306. D(C  35,N  48,H  22,H  20)    106.46 -0.000267    0.06    106.51   
   307. D(C  35,N  48,H  22,O  19)    110.19 -0.000239    0.08    110.27   
   308. D(H  34,N  48,H  22,H  12)   -115.96 -0.000111    0.13   -115.83   
   309. D(H  34,N  48,H  22,H  20)   -122.56 -0.000006    0.03   -122.52   
   310. D(H  34,N  48,H  22,O  19)   -118.83  0.000023    0.06   -118.76   
   311. D(H  12,N  48,H  22,H  20)     -6.59  0.000105   -0.10     -6.69   
   312. D(H  12,N  48,C  35,C  38)    -62.62  0.000077    0.38    -62.24   
   313. D(H  12,N  48,H  22,O  19)     -2.86  0.000133   -0.07     -2.93   
   314. D(H  22,N  48,H  12,N  10)     56.46 -0.000163   -0.01     56.45   
   315. D(C  35,N  48,H  12,H  22)   -114.60 -0.000090    0.05   -114.55   
   316. D(H  22,N  48,C  35,H  36)    -46.30 -0.000432    0.66    -45.64   
   317. D(C  35,N  48,H  12,N  10)    -58.14 -0.000254    0.04    -58.11   
   318. D(H  34,N  48,H  12,H  22)    126.05 -0.000012   -0.05    126.01   
[...]
  28:       255.94    0.000000  (  0.000000   0.000000   0.000000)
  29:       291.07    0.000000  (  0.000000   0.000000   0.000000)
  30:       306.54    0.000000  (  0.000000   0.000000   0.000000)
  31:       363.78    0.000000  (  0.000000   0.000000   0.000000)
  32:       369.46    0.000000  (  0.000000   0.000000   0.000000)
  33:       396.11    0.000000  (  0.000000   0.000000   0.000000)
  34:       404.00    0.000000  (  0.000000   0.000000   0.000000)
  35:       411.43    0.000000  (  0.000000   0.000000   0.000000)
  36:       438.59    0.000000  (  0.000000   0.000000   0.000000)
  37:       451.54    0.000000  (  0.000000   0.000000   0.000000)
  38:       488.21    0.000000  (  0.000000   0.000000   0.000000)
  39:       514.52    0.000000  (  0.000000   0.000000   0.000000)
  40:       540.50    0.000000  (  0.000000   0.000000   0.000000)
  41:       589.02    0.000000  (  0.000000   0.000000   0.000000)
  42:       626.70    0.000000  (  0.000000   0.000000   0.000000)
  43:       660.25    0.000000  (  0.000000   0.000000   0.000000)
  44:       675.23    0.000000  (  0.000000   0.000000   0.000000)
  45:       753.01    0.000000  (  0.000000   0.000000   0.000000)
  46:       764.15    0.000000  (  0.000000   0.000000   0.000000)
  47:       773.69    0.000000  (  0.000000   0.000000   0.000000)
  48:       777.32    0.000000  (  0.000000   0.000000   0.000000)
  49:       821.37    0.000000  (  0.000000   0.000000   0.000000)
  50:       824.53    0.000000  (  0.000000   0.000000   0.000000)
  51:       834.18    0.000000  (  0.000000   0.000000   0.000000)
  52:       854.86    0.000000  (  0.000000   0.000000   0.000000)
  53:       880.78    0.000000  (  0.000000   0.000000   0.000000)
  54:       905.48    0.000000  (  0.000000   0.000000   0.000000)
  55:       928.91    0.000000  (  0.000000   0.000000   0.000000)
  56:       929.49    0.000000  (  0.000000   0.000000   0.000000)
  57:       933.87    0.000000  (  0.000000   0.000000   0.000000)
  58:       935.96    0.000000  (  0.000000   0.000000   0.000000)
  59:       941.05    0.000000  (  0.000000   0.000000   0.000000)
  60:       948.65    0.000000  (  0.000000   0.000000   0.000000)
  61:       971.37    0.000000  (  0.000000   0.000000   0.000000)
  62:       987.42    0.000000  (  0.000000   0.000000   0.000000)
  63:      1008.27    0.000000  (  0.000000   0.000000   0.000000)
  64:      1034.25    0.000000  (  0.000000   0.000000   0.000000)
  65:      1046.86    0.000000  (  0.000000   0.000000   0.000000)
  66:      1079.74    0.000000  (  0.000000   0.000000   0.000000)
  67:      1084.04    0.000000  (  0.000000   0.000000   0.000000)
  68:      1093.14    0.000000  (  0.000000   0.000000   0.000000)
  69:      1097.13    0.000000  (  0.000000   0.000000   0.000000)
  70:      1110.74    0.000000  (  0.000000   0.000000   0.000000)
  71:      1115.04    0.000000  (  0.000000   0.000000   0.000000)
  72:      1127.30    0.000000  (  0.000000   0.000000   0.000000)
  73:      1132.42    0.000000  (  0.000000   0.000000   0.000000)
  74:      1132.86    0.000000  (  0.000000   0.000000   0.000000)
  75:      1146.77    0.000000  (  0.000000   0.000000   0.000000)
  76:      1162.26    0.000000  (  0.000000   0.000000   0.000000)
  77:      1182.02    0.000000  (  0.000000   0.000000   0.000000)
  78:      1195.84    0.000000  (  0.000000   0.000000   0.000000)
  79:      1210.58    0.000000  (  0.000000   0.000000   0.000000)
  80:      1214.34    0.000000  (  0.000000   0.000000   0.000000)
  81:      1222.65    0.000000  (  0.000000   0.000000   0.000000)
  82:      1235.94    0.000000  (  0.000000   0.000000   0.000000)
  83:      1264.18    0.000000  (  0.000000   0.000000   0.000000)
  84:      1268.06    0.000000  (  0.000000   0.000000   0.000000)
  85:      1272.20    0.000000  (  0.000000   0.000000   0.000000)
  86:      1272.93    0.000000  (  0.000000   0.000000   0.000000)
  87:      1278.11    0.000000  (  0.000000   0.000000   0.000000)
  88:      1279.87    0.000000  (  0.000000   0.000000   0.000000)
  89:      1286.59    0.000000  (  0.000000   0.000000   0.000000)
  90:      1302.26    0.000000  (  0.000000   0.000000   0.000000)
  91:      1320.68    0.000000  (  0.000000   0.000000   0.000000)
  92:      1322.39    0.000000  (  0.000000   0.000000   0.000000)
  93:      1335.59    0.000000  (  0.000000   0.000000   0.000000)
  94:      1339.13    0.000000  (  0.000000   0.000000   0.000000)
  95:      1356.65    0.000000  (  0.000000   0.000000   0.000000)
  96:      1368.53    0.000000  (  0.000000   0.000000   0.000000)
  97:      1371.67    0.000000  (  0.000000   0.000000   0.000000)
  98:      1385.71    0.000000  (  0.000000   0.000000   0.000000)
  99:      1412.86    0.000000  (  0.000000   0.000000   0.000000)
 100:      1413.99    0.000000  (  0.000000   0.000000   0.000000)
 101:      1434.68    0.000000  (  0.000000   0.000000   0.000000)
 102:      1472.53    0.000000  (  0.000000   0.000000   0.000000)
 103:      1474.43    0.000000  (  0.000000   0.000000   0.000000)
 104:      1479.55    0.000000  (  0.000000   0.000000   0.000000)
 105:      1490.94    0.000000  (  0.000000   0.000000   0.000000)
 106:      1492.08    0.000000  (  0.000000   0.000000   0.000000)
 107:      1495.05    0.000000  (  0.000000   0.000000   0.000000)
 108:      1495.20    0.000000  (  0.000000   0.000000   0.000000)
 109:      1498.73    0.000000  (  0.000000   0.000000   0.000000)
 110:      1501.06    0.000000  (  0.000000   0.000000   0.000000)
 111:      1502.03    0.000000  (  0.000000   0.000000   0.000000)
 112:      1502.91    0.000000  (  0.000000   0.000000   0.000000)
 113:      1519.62    0.000000  (  0.000000   0.000000   0.000000)
 114:      1552.47    0.000000  (  0.000000   0.000000   0.000000)
 115:      1590.88    0.000000  (  0.000000   0.000000   0.000000)
 116:      1600.08    0.000000  (  0.000000   0.000000   0.000000)
 117:      2769.21    0.000000  (  0.000000   0.000000   0.000000)
 118:      2836.61    0.000000  (  0.000000   0.000000   0.000000)
 119:      2942.98    0.000000  (  0.000000   0.000000   0.000000)
 120:      2945.40    0.000000  (  0.000000   0.000000   0.000000)
 121:      2952.29    0.000000  (  0.000000   0.000000   0.000000)
 122:      2956.32    0.000000  (  0.000000   0.000000   0.000000)
 123:      2962.54    0.000000  (  0.000000   0.000000   0.000000)
 124:      2969.85    0.000000  (  0.000000   0.000000   0.000000)
 125:      2971.08    0.000000  (  0.000000   0.000000   0.000000)
 126:      2973.28    0.000000  (  0.000000   0.000000   0.000000)
 127:      2981.49    0.000000  (  0.000000   0.000000   0.000000)
 128:      2981.81    0.000000  (  0.000000   0.000000   0.000000)
 129:      2984.38    0.000000  (  0.000000   0.000000   0.000000)
 130:      3006.79    0.000000  (  0.000000   0.000000   0.000000)
 131:      3023.85    0.000000  (  0.000000   0.000000   0.000000)
 132:      3027.02    0.000000  (  0.000000   0.000000   0.000000)
 133:      3027.87    0.000000  (  0.000000   0.000000   0.000000)
 134:      3029.88    0.000000  (  0.000000   0.000000   0.000000)
 135:      3034.41    0.000000  (  0.000000   0.000000   0.000000)
 136:      3035.70    0.000000  (  0.000000   0.000000   0.000000)
 137:      3052.93    0.000000  (  0.000000   0.000000   0.000000)
 138:      3074.84    0.000000  (  0.000000   0.000000   0.000000)
 139:      3080.26    0.000000  (  0.000000   0.000000   0.000000)
 140:      3090.48    0.000000  (  0.000000   0.000000   0.000000)
 141:      3107.71    0.000000  (  0.000000   0.000000   0.000000)
 142:      3171.36    0.000000  (  0.000000   0.000000   0.000000)
 143:      3203.67    0.000000  (  0.000000   0.000000   0.000000)
 144:      3355.01    0.000000  (  0.000000   0.000000   0.000000)
 145:      3389.19    0.000000  (  0.000000   0.000000   0.000000)
 146:      3632.51    0.000000  (  0.000000   0.000000   0.000000)

The first frequency considered to be a vibration is 6
The total number of vibrations considered is 141


--------------------------
THERMOCHEMISTRY AT 298.15K
--------------------------

Temperature         ... 298.15 K
Pressure            ... 1.00 atm
Total Mass          ... 270.42 AMU

Throughout the following assumptions are being made:
  (1) The electronic state is orbitally nondegenerate
  (2) There are no thermally accessible electronically excited states
  (3) Hindered rotations indicated by low frequency modes are not
      treated as such but are treated as vibrations and this may
      cause some error
  (4) All equations used are the standard statistical mechanics
      equations for an ideal gas
  (5) All vibrations are strictly harmonic

freq.      12.80  E(vib)   ...       0.57 
freq.      22.38  E(vib)   ...       0.56 
freq.      26.13  E(vib)   ...       0.56 
freq.      32.73  E(vib)   ...       0.55 
freq.      41.47  E(vib)   ...       0.54 
freq.      45.62  E(vib)   ...       0.53 
freq.      54.18  E(vib)   ...       0.52 
freq.      58.67  E(vib)   ...       0.51 
freq.      72.25  E(vib)   ...       0.50 
freq.      82.54  E(vib)   ...       0.48 
freq.     100.47  E(vib)   ...       0.46 
freq.     104.84  E(vib)   ...       0.46 
freq.     120.90  E(vib)   ...       0.44 
freq.     130.33  E(vib)   ...       0.43 
freq.     151.91  E(vib)   ...       0.40 
freq.     169.39  E(vib)   ...       0.38 
freq.     173.98  E(vib)   ...       0.38 
freq.     214.56  E(vib)   ...       0.34 
freq.     227.28  E(vib)   ...       0.33 
freq.     232.45  E(vib)   ...       0.32 
freq.     236.70  E(vib)   ...       0.32 
freq.     249.30  E(vib)   ...       0.31 
freq.     255.94  E(vib)   ...       0.30 
freq.     291.07  E(vib)   ...       0.27 
freq.     306.54  E(vib)   ...       0.26 
freq.     363.78  E(vib)   ...       0.22 
freq.     369.46  E(vib)   ...       0.21 
freq.     396.11  E(vib)   ...       0.20 
freq.     404.00  E(vib)   ...       0.19 
freq.     411.43  E(vib)   ...       0.19 
freq.     438.59  E(vib)   ...       0.17 
freq.     451.54  E(vib)   ...       0.16 
freq.     488.21  E(vib)   ...       0.15 
freq.     514.52  E(vib)   ...       0.13 
freq.     540.50  E(vib)   ...       0.12 
freq.     589.02  E(vib)   ...       0.10 
freq.     626.70  E(vib)   ...       0.09 
freq.     660.25  E(vib)   ...       0.08 
freq.     675.23  E(vib)   ...       0.08 
freq.     753.01  E(vib)   ...       0.06 
freq.     764.15  E(vib)   ...       0.06 
freq.     773.69  E(vib)   ...       0.05 
freq.     777.32  E(vib)   ...       0.05 
freq.     821.37  E(vib)   ...       0.05 
freq.     824.53  E(vib)   ...       0.04 
freq.     834.18  E(vib)   ...       0.04 
freq.     854.86  E(vib)   ...       0.04 
freq.     880.78  E(vib)   ...       0.04 
freq.     905.48  E(vib)   ...       0.03 
freq.     928.91  E(vib)   ...       0.03 
freq.     929.49  E(vib)   ...       0.03 
freq.     933.87  E(vib)   ...       0.03 
freq.     935.96  E(vib)   ...       0.03 
freq.     941.05  E(vib)   ...       0.03 
freq.     948.65  E(vib)   ...       0.03 
freq.     971.37  E(vib)   ...       0.03 
freq.     987.42  E(vib)   ...       0.02 
freq.    1008.27  E(vib)   ...       0.02 
freq.    1034.25  E(vib)   ...       0.02 
freq.    1046.86  E(vib)   ...       0.02 
freq.    1079.74  E(vib)   ...       0.02 
freq.    1084.04  E(vib)   ...       0.02 
freq.    1093.14  E(vib)   ...       0.02 
freq.    1097.13  E(vib)   ...       0.02 
freq.    1110.74  E(vib)   ...       0.02 
freq.    1115.04  E(vib)   ...       0.01 
freq.    1127.30  E(vib)   ...       0.01 
freq.    1132.42  E(vib)   ...       0.01 
freq.    1132.86  E(vib)   ...       0.01 
freq.    1146.77  E(vib)   ...       0.01 
freq.    1162.26  E(vib)   ...       0.01 
freq.    1182.02  E(vib)   ...       0.01 
freq.    1195.84  E(vib)   ...       0.01 
freq.    1210.58  E(vib)   ...       0.01 
freq.    1214.34  E(vib)   ...       0.01 
freq.    1222.65  E(vib)   ...       0.01 
freq.    1235.94  E(vib)   ...       0.01 
freq.    1264.18  E(vib)   ...       0.01 
freq.    1268.06  E(vib)   ...       0.01 
freq.    1272.20  E(vib)   ...       0.01 
freq.    1272.93  E(vib)   ...       0.01 
freq.    1278.11  E(vib)   ...       0.01 
freq.    1279.87  E(vib)   ...       0.01 
freq.    1286.59  E(vib)   ...       0.01 
freq.    1302.26  E(vib)   ...       0.01 
freq.    1320.68  E(vib)   ...       0.01 
freq.    1322.39  E(vib)   ...       0.01 
freq.    1335.59  E(vib)   ...       0.01 
freq.    1339.13  E(vib)   ...       0.01 
freq.    1356.65  E(vib)   ...       0.01 
freq.    1368.53  E(vib)   ...       0.01 
freq.    1371.67  E(vib)   ...       0.01 
freq.    1385.71  E(vib)   ...       0.00 
freq.    1412.86  E(vib)   ...       0.00 
freq.    1413.99  E(vib)   ...       0.00 
freq.    1434.68  E(vib)   ...       0.00 
freq.    1472.53  E(vib)   ...       0.00 
freq.    1474.43  E(vib)   ...       0.00 
freq.    1479.55  E(vib)   ...       0.00 
freq.    1490.94  E(vib)   ...       0.00 
freq.    1492.08  E(vib)   ...       0.00 
freq.    1495.05  E(vib)   ...       0.00 
freq.    1495.20  E(vib)   ...       0.00 
freq.    1498.73  E(vib)   ...       0.00 
freq.    1501.06  E(vib)   ...       0.00 
freq.    1502.03  E(vib)   ...       0.00 
freq.    1502.91  E(vib)   ...       0.00 
freq.    1519.62  E(vib)   ...       0.00 
freq.    1552.47  E(vib)   ...       0.00 
freq.    1590.88  E(vib)   ...       0.00 
freq.    1600.08  E(vib)   ...       0.00 
freq.    2769.21  E(vib)   ...       0.00 
freq.    2836.61  E(vib)   ...       0.00 
freq.    2942.98  E(vib)   ...       0.00 
freq.    2945.40  E(vib)   ...       0.00 
freq.    2952.29  E(vib)   ...       0.00 
freq.    2956.32  E(vib)   ...       0.00 
freq.    2962.54  E(vib)   ...       0.00 
freq.    2969.85  E(vib)   ...       0.00 
freq.    2971.08  E(vib)   ...       0.00 
freq.    2973.28  E(vib)   ...       0.00 
freq.    2981.49  E(vib)   ...       0.00 
freq.    2981.81  E(vib)   ...       0.00 
freq.    2984.38  E(vib)   ...       0.00 
freq.    3006.79  E(vib)   ...       0.00 
freq.    3023.85  E(vib)   ...       0.00 
freq.    3027.02  E(vib)   ...       0.00 
freq.    3027.87  E(vib)   ...       0.00 
freq.    3029.88  E(vib)   ...       0.00 
freq.    3034.41  E(vib)   ...       0.00 
freq.    3035.70  E(vib)   ...       0.00 
freq.    3052.93  E(vib)   ...       0.00 
freq.    3074.84  E(vib)   ...       0.00 
freq.    3080.26  E(vib)   ...       0.00 
freq.    3090.48  E(vib)   ...       0.00 
freq.    3107.71  E(vib)   ...       0.00 
freq.    3171.36  E(vib)   ...       0.00 
freq.    3203.67  E(vib)   ...       0.00 
freq.    3355.01  E(vib)   ...       0.00 
freq.    3389.19  E(vib)   ...       0.00 
freq.    3632.51  E(vib)   ...       0.00 

------------
INNER ENERGY
------------

The inner energy is: U= E(el) + E(ZPE) + E(vib) + E(rot) + E(trans)
    E(el)   - is the total energy from the electronic structure calculation
              = E(kin-el) + E(nuc-el) + E(el-el) + E(nuc-nuc)
    E(ZPE)  - the the zero temperature vibrational energy from the frequency calculation
    E(vib)  - the the finite temperature correction to E(ZPE) due to population
              of excited vibrational states
    E(rot)  - is the rotational thermal energy
    E(trans)- is the translational thermal energy

Summary of contributions to the inner energy U:
Electronic energy                ...    -61.40678069 Eh
Zero point energy                ...      0.42890250 Eh     269.14 kcal/mol
Thermal vibrational correction   ...      0.02220272 Eh      13.93 kcal/mol
Thermal rotational correction    ...      0.00141627 Eh       0.89 kcal/mol
Thermal translational correction ...      0.00141627 Eh       0.89 kcal/mol
-----------------------------------------------------------------------
Total thermal energy                    -60.95284293 Eh


Summary of corrections to the electronic energy:
(perhaps to be used in another calculation)
Total thermal correction                  0.02503527 Eh      15.71 kcal/mol
Non-thermal (ZPE) correction              0.42890250 Eh     269.14 kcal/mol
-----------------------------------------------------------------------
Total correction                          0.45393776 Eh     284.85 kcal/mol


--------
ENTHALPY
--------

The enthalpy is H = U + kB*T
                kB is Boltzmann's constant
Total free energy                 ...    -60.95284293 Eh 
Thermal Enthalpy correction       ...      0.00094421 Eh       0.59 kcal/mol
-----------------------------------------------------------------------
Total Enthalpy                    ...    -60.95189872 Eh


Note: Only C1 symmetry has been detected, increase convergence thresholds 
      if your molecule has a higher symmetry. Symmetry factor of 1.0 is   
      used for the rotational entropy correction. 
 

Note: Rotational entropy computed according to Herzberg 
Infrared and Raman Spectra, Chapter V,1, Van Nostrand Reinhold, 1945 
Point Group:  C1, Symmetry Number:   1  
Rotational constants in cm-1:     0.012784     0.007012     0.005827 

Vibrational entropy computed according to the QRRHO of S. Grimme
Chem.Eur.J. 2012 18 9955


-------
ENTROPY
-------

The entropy contributions are T*S = T*(S(el)+S(vib)+S(rot)+S(trans))
     S(el)   - electronic entropy
     S(vib)  - vibrational entropy
     S(rot)  - rotational entropy
     S(trans)- translational entropy
The entropies will be listed as mutliplied by the temperature to get
units of energy

Electronic entropy                ...      0.00000000 Eh      0.00 kcal/mol
Vibrational entropy               ...      0.04124159 Eh     25.88 kcal/mol
Rotational entropy                ...      0.01633958 Eh     10.25 kcal/mol
Translational entropy             ...      0.02028014 Eh     12.73 kcal/mol
-----------------------------------------------------------------------
Final entropy term                ...      0.07786131 Eh     48.86 kcal/mol

In case the symmetry of your molecule has not been determined correctly
or in case you have a reason to use a different symmetry number we print 
out the resulting rotational entropy values for sn=1,12 :
 --------------------------------------------------------
|  sn= 1 | S(rot)=       0.01633958 Eh     10.25 kcal/mol|
|  sn= 2 | S(rot)=       0.01568512 Eh      9.84 kcal/mol|
|  sn= 3 | S(rot)=       0.01530229 Eh      9.60 kcal/mol|
|  sn= 4 | S(rot)=       0.01503067 Eh      9.43 kcal/mol|
|  sn= 5 | S(rot)=       0.01481998 Eh      9.30 kcal/mol|
|  sn= 6 | S(rot)=       0.01464784 Eh      9.19 kcal/mol|
|  sn= 7 | S(rot)=       0.01450229 Eh      9.10 kcal/mol|
|  sn= 8 | S(rot)=       0.01437621 Eh      9.02 kcal/mol|
|  sn= 9 | S(rot)=       0.01426500 Eh      8.95 kcal/mol|
|  sn=10 | S(rot)=       0.01416552 Eh      8.89 kcal/mol|
|  sn=11 | S(rot)=       0.01407553 Eh      8.83 kcal/mol|
|  sn=12 | S(rot)=       0.01399338 Eh      8.78 kcal/mol|
 --------------------------------------------------------


-------------------
GIBBS FREE ENERGY
-------------------

The Gibbs free energy is G = H - T*S

Total enthalpy                    ...    -60.95189872 Eh 
Total entropy correction          ...     -0.07786131 Eh    -48.86 kcal/mol
-----------------------------------------------------------------------
Final Gibbs free energy         ...    -61.02976003 Eh

For completeness - the Gibbs free energy minus the electronic energy
G-E(el)                           ...      0.37702066 Eh    236.58 kcal/mol


Total Time for Numerical Frequencies  :       189.342 sec

Timings for individual modules:

Sum of individual times         ...       21.967 sec (=   0.366 min)
Geometry relaxation             ...       14.251 sec (=   0.238 min)  64.9 %
XTB module                      ...        7.716 sec (=   0.129 min)  35.1 %
                             ****ORCA TERMINATED NORMALLY****
TOTAL RUN TIME: 0 days 0 hours 3 minutes 42 seconds 780 msec
