
                                 *****************
                                 * O   R   C   A *
                                 *****************

           --- An Ab Initio, DFT and Semiempirical electronic structure package ---

                  #######################################################
                  #                        -***-                        #
                  #          Department of theory and spectroscopy      #
                  #               Directorship: Frank Neese             #
                  #        Max Planck Institute fuer Kohlenforschung    #
                  #                Kaiser Wilhelm Platz 1               #
                  #                 D-45470 Muelheim/Ruhr               #
                  #                      Germany                        #
                  #                                                     #
                  #                  All rights reserved                #
                  #                        -***-                        #
                  #######################################################


                         Program Version 4.2.1 -  RELEASE  -


 With contributions from (in alphabetic order):
   Daniel Aravena         : Magnetic Suceptibility
   Michael Atanasov       : Ab Initio Ligand Field Theory (pilot matlab implementation)
   Alexander A. Auer      : GIAO ZORA, VPT2
   Ute Becker             : Parallelization
   Giovanni Bistoni       : ED, misc. LED, open-shell LED, HFLD
   Martin Brehm           : Molecular dynamics
   Dmytro Bykov           : SCF Hessian
   Vijay G. Chilkuri      : MRCI spin determinant printing, contributions to CSF-ICE
   Dipayan Datta          : RHF DLPNO-CCSD density
   Achintya Kumar Dutta   : EOM-CC, STEOM-CC
   Dmitry Ganyushin       : Spin-Orbit,Spin-Spin,Magnetic field MRCI
   Miquel Garcia          : C-PCM Hessian, Gaussian charge scheme
   Yang Guo               : DLPNO-NEVPT2, CIM, IAO-localization
   Andreas Hansen         : Spin unrestricted coupled pair/coupled cluster methods
   Benjamin Helmich-Paris : CASSCF linear response (MC-RPA)
   Lee Huntington         : MR-EOM, pCC
   Robert Izsak           : Overlap fitted RIJCOSX, COSX-SCS-MP3, EOM
   Christian Kollmar      : KDIIS, OOCD, Brueckner-CCSD(T), CCSD density
   Simone Kossmann        : Meta GGA functionals, TD-DFT gradient, OOMP2, MP2 Hessian
   Martin Krupicka        : AUTO-CI
   Lucas Lang             : DCDCAS
   Dagmar Lenk            : GEPOL surface, SMD
   Dimitrios Liakos       : Extrapolation schemes; Compound Job, initial MDCI parallelization
   Dimitrios Manganas     : Further ROCIS development; embedding schemes
   Dimitrios Pantazis     : SARC Basis sets
   Taras Petrenko         : DFT Hessian,TD-DFT gradient, ASA, ECA, R-Raman, ABS, FL, XAS/XES, NRVS
   Peter Pinski           : DLPNO-MP2, DLPNO-MP2 Gradient
   Christoph Reimann      : Effective Core Potentials
   Marius Retegan         : Local ZFS, SOC
   Christoph Riplinger    : Optimizer, TS searches, QM/MM, DLPNO-CCSD(T), (RO)-DLPNO pert. Triples
   Tobias Risthaus        : Range-separated hybrids, TD-DFT gradient, RPA, STAB
   Michael Roemelt        : Original ROCIS implementation
   Masaaki Saitow         : Open-shell DLPNO-CCSD energy and density
   Barbara Sandhoefer     : DKH picture change effects
   Avijit Sen             : IP-ROCIS
   Kantharuban Sivalingam : CASSCF convergence, NEVPT2, FIC-MRCI
   Bernardo de Souza      : ESD, SOC TD-DFT
   Georgi Stoychev        : AutoAux, RI-MP2 NMR
   Willem Van den Heuvel  : Paramagnetic NMR
   Boris Wezisla          : Elementary symmetry handling
   Frank Wennmohs         : Technical directorship


 We gratefully acknowledge several colleagues who have allowed us to
 interface, adapt or use parts of their codes:
   Stefan Grimme, W. Hujo, H. Kruse,             : VdW corrections, initial TS optimization,
                  C. Bannwarth                     DFT functionals, gCP, sTDA/sTD-DF
   Ed Valeev, F. Pavosevic, A. Kumar             : LibInt (2-el integral package), F12 methods
   Garnet Chan, S. Sharma, J. Yang, R. Olivares  : DMRG
   Ulf Ekstrom                                   : XCFun DFT Library
   Mihaly Kallay                                 : mrcc  (arbitrary order and MRCC methods)
   Andreas Klamt, Michael Diedenhofen            : otool_cosmo (COSMO solvation model)
   Jiri Pittner, Ondrej Demel                    : Mk-CCSD
   Frank Weinhold                                : gennbo (NPA and NBO analysis)
   Christopher J. Cramer and Donald G. Truhlar   : smd solvation model
   Lars Goerigk                                  : TD-DFT with DH, B97 family of functionals
   V. Asgeirsson, H. Jonsson                     : NEB implementation
   FAccTs GmbH                                   : IRC, NEB, NEB-TS, Multilevel, MM, QM/MM, CI optimization
   S Lehtola, MJT Oliveira, MAL Marques          : LibXC Library


 Your calculation uses the libint2 library for the computation of 2-el integrals
 For citations please refer to: http://libint.valeyev.net

 Your ORCA version has been built with support for libXC version: 4.2.3
 For citations please refer to: https://tddft.org/programs/libxc/

 This ORCA versions uses:
   CBLAS   interface :  Fast vector & matrix operations
   LAPACKE interface :  Fast linear algebra routines
   SCALAPACK package :  Parallel linear algebra routines




***************************************
The coordinates will be read from file: init.xyz
***************************************


Your calculation utilizes the SMD solvation module
Please cite in your paper:
A.V. Marenich, C.J. Cramer, D.G. Truhlar J. Phys. Chem. B, 113, (2009), 6378 

Your calculation utilizes the semiempirical GFN2-xTB method
Please cite in your paper:
C. Bannwarth, Ehlert S., S. Grimme,  J. Chem. Theory Comput., 15, (2019), 1652.
   

----- Orbital basis set information -----
Your calculation utilizes the basis: def2-SVP
   F. Weigend and R. Ahlrichs, Phys. Chem. Chem. Phys. 7, 3297 (2005).

================================================================================
                                        WARNINGS
                       Please study these warnings very carefully!
================================================================================


WARNING: The environment variable RSH_COMMAND is not set!
  ===> : All Displacements for the Numerical Hessian calculation
         will be started on localhost

WARNING: Geometry Optimization
  ===> : Switching off AutoStart
         For restart on a previous wavefunction, please use MOREAD

WARNING: Found dipole moment calculation with XTB calculation
  ===> : Switching off dipole moment calculation


INFO   : the flag for use of LIBINT has been found!

================================================================================
                                       INPUT FILE
================================================================================
NAME = opt+freq.inp
|  1> ! XTB2 Opt NumFreq
|  2> 
|  3> %cpcm
|  4>  smd true
|  5>  smdsolvent "ch2cl2"
|  6> end
|  7> 
|  8> %pal
|  9>  nprocs 12
| 10> end
| 11> 
| 12> *xyzfile 0 1 init.xyz
| 13> 
| 14>                          ****END OF INPUT****
================================================================================

                       *****************************
                       * Geometry Optimization Run *
                       *****************************

Geometry optimization settings:
Update method            Update   .... BFGS
Choice of coordinates    CoordSys .... Z-matrix Internals
Initial Hessian          InHess   .... Almoef's Model

Convergence Tolerances:
Energy Change            TolE     ....  5.0000e-06 Eh
Max. Gradient            TolMAXG  ....  3.0000e-04 Eh/bohr
RMS Gradient             TolRMSG  ....  1.0000e-04 Eh/bohr
Max. Displacement        TolMAXD  ....  4.0000e-03 bohr
RMS Displacement         TolRMSD  ....  2.0000e-03 bohr
Strict Convergence                ....  False
------------------------------------------------------------------------------
                        ORCA OPTIMIZATION COORDINATE SETUP
------------------------------------------------------------------------------

The optimization will be done in new redundant internal coordinates
Making redundant internal coordinates   ...  (new redundants) done
Evaluating the initial hessian          ...  (Almloef) done
Evaluating the coordinates              ...  done
Calculating the B-matrix                .... done
Calculating the G-matrix                .... done
Diagonalizing the G-matrix              .... done
Small eigenvalue found = 4.311e-03
Small eigenvalue found = 1.150e-02
Small eigenvalue found = 1.639e-02
Small eigenvalue found = 2.876e-02
The first mode is                       ....  156
The number of degrees of freedom        ....  102

    -----------------------------------------------------------------
                    Redundant Internal Coordinates


    -----------------------------------------------------------------
         Definition                    Initial Value    Approx d2E/dq
    -----------------------------------------------------------------
      1. B(C   1,C   0)                  1.3906         0.623403   
      2. B(C   2,C   1)                  1.3825         0.642279   
      3. B(C   3,C   2)                  1.3853         0.635791   
      4. B(C   4,C   3)                  1.3840         0.638629   
      5. B(C   5,C   4)                  1.3861         0.633868   
      6. B(C   5,C   0)                  1.3884         0.628563   
      7. B(C   6,C   0)                  1.5190         0.388955   
      8. B(H   7,C   1)                  1.0816         0.371386   
      9. B(H   8,C   5)                  1.0793         0.374500   
     10. B(H   9,C   3)                  1.0800         0.373602   
     11. B(N  10,C   6)                  1.4750         0.409540   
     12. B(C  11,N  10)                  1.4633         0.427496   
     13. B(H  12,N  10)                  1.7251         0.031286   
     14. B(C  13,C  11)                  1.5284         0.375724   
     15. B(H  14,C  11)                  1.0924         0.356980   
     16. B(H  15,C  11)                  1.0947         0.353882   
     17. B(H  16,C  13)                  1.0944         0.354350   
     18. B(H  17,C  13)                  1.0928         0.356390   
     19. B(O  18,C   6)                  1.3870         0.565804   
     20. B(H  20,O  18)                  0.9842         0.475665   
     21. B(H  20,O  19)                  1.7663         0.026893   
     22. B(H  21,O  19)                  0.9599         0.520170   
     23. B(O  22,H  12)                  0.9915         0.463175   
     24. B(H  23,O  19)                  0.9856         0.473247   
     25. B(H  23,O  22)                  1.7061         0.033547   
     26. B(H  23,H  20)                  2.1165         0.001588   
     27. B(H  23,H  12)                  2.0140         0.002313   
     28. B(H  24,O  22)                  0.9604         0.519161   
     29. B(H  24,H  23)                  2.1836         0.001241   
     30. B(H  25,C   6)                  1.1049         0.340912   
     31. B(H  26,N  10)                  1.0169         0.421846   
     32. B(H  26,H  12)                  2.1806         0.001255   
     33. B(H  27,C   2)                  1.0801         0.373485   
     34. B(H  28,C   4)                  1.0802         0.373353   
     35. B(C  29,C  13)                  1.5265         0.378457   
     36. B(H  30,C  29)                  1.0923         0.357068   
     37. B(H  31,C  29)                  1.0925         0.356793   
     38. B(C  32,C  29)                  1.5244         0.381373   
     39. B(H  33,C  32)                  1.0883         0.362405   
     40. B(H  34,C  32)                  1.0874         0.363498   
     41. B(H  35,C  32)                  1.0883         0.362328   
     42. A(C   1,C   0,C   5)          119.1780         0.435568   
     43. A(C   5,C   0,C   6)          122.5627         0.400472   
     44. A(C   1,C   0,C   6)          118.2300         0.399891   
     45. A(C   2,C   1,H   7)          119.9225         0.356891   
     46. A(C   0,C   1,H   7)          119.4088         0.355088   
     47. A(C   0,C   1,C   2)          120.6677         0.437265   
     48. A(C   1,C   2,H  27)          119.7735         0.357233   
     49. A(C   3,C   2,H  27)          120.2848         0.356617   
     50. A(C   1,C   2,C   3)          119.9414         0.438820   
     51. A(C   2,C   3,H   9)          120.0799         0.356636   
     52. A(C   4,C   3,H   9)          120.2289         0.356906   
     53. A(C   2,C   3,C   4)          119.6910         0.438369   
     54. A(C   3,C   4,H  28)          120.0226         0.356866   
     55. A(C   3,C   4,C   5)          120.4534         0.438130   
     56. A(C   5,C   4,H  28)          119.5240         0.356412   
     57. A(C   0,C   5,C   4)          120.0676         0.436876   
     58. A(C   4,C   5,H   8)          119.3839         0.356598   
     59. A(C   0,C   5,H   8)          120.5464         0.356089   
     60. A(O  18,C   6,H  25)          104.4218         0.342216   
     61. A(N  10,C   6,H  25)          111.1881         0.324354   
     62. A(C   0,C   6,H  25)          108.4958         0.323552   
     63. A(C   0,C   6,N  10)          106.8576         0.369362   
     64. A(C   0,C   6,O  18)          115.4239         0.390641   
     65. A(N  10,C   6,O  18)          110.4877         0.391672   
     66. A(C  11,N  10,H  12)          105.7865         0.225795   
     67. A(C   6,N  10,H  12)          114.6949         0.224473   
     68. A(C  11,N  10,H  26)          109.6196         0.335483   
     69. A(C   6,N  10,H  26)          108.5725         0.333101   
     70. A(C   6,N  10,C  11)          115.0925         0.373066   
     71. A(H  12,N  10,H  26)          102.2608         0.206549   
     72. A(N  10,C  11,H  15)          107.1655         0.328668   
     73. A(C  13,C  11,H  14)          110.4432         0.324161   
     74. A(H  14,C  11,H  15)          108.3458         0.289650   
     75. A(C  13,C  11,H  15)          109.5665         0.323697   
     76. A(N  10,C  11,C  13)          114.1376         0.369890   
     77. A(N  10,C  11,H  14)          106.9744         0.329141   
     78. A(N  10,H  12,H  23)          118.2732         0.118272   
     79. A(O  22,H  12,H  23)           57.7908         0.142871   
     80. A(N  10,H  12,H  26)           27.1106         0.114486   
     81. A(O  22,H  12,H  26)          155.7382         0.135904   
     82. A(H  23,H  12,H  26)          141.1194         0.100436   
     83. A(H  16,C  13,H  17)          107.9340         0.289635   
     84. A(C  11,C  13,H  17)          109.3966         0.324073   
     85. A(C  11,C  13,H  16)          108.9215         0.323768   
     86. A(H  17,C  13,C  29)          109.1503         0.324459   
     87. A(H  16,C  13,C  29)          109.2962         0.324153   
     88. A(C  11,C  13,C  29)          112.0529         0.364516   
     89. A(C   6,O  18,H  20)          109.9163         0.358863   
     90. A(H  21,O  19,H  23)          106.0747         0.316947   
     91. A(H  20,O  19,H  23)           96.4035         0.205587   
     92. A(H  20,O  19,H  21)          107.0404         0.208108   
     93. A(O  19,H  20,H  23)           27.5671         0.114977   
     94. A(O  18,H  20,H  23)          152.3078         0.138773   
     95. A(O  18,H  20,O  19)          172.1446         0.205721   
     96. A(H  12,O  22,H  24)          106.0541         0.315740   
     97. A(H  23,O  22,H  24)          106.5771         0.214165   
     98. A(H  12,O  22,H  23)           92.7560         0.210974   
     99. A(H  12,H  23,O  19)          136.6415         0.143134   
    100. A(O  22,H  23,H  24)           24.9327         0.114828   
    101. A(H  20,H  23,H  24)          111.4915         0.099476   
    102. A(H  12,H  23,H  24)           43.3848         0.100407   
    103. A(O  19,H  23,H  24)          150.3410         0.136017   
    104. A(H  20,H  23,O  22)          109.7408         0.116311   
    105. A(H  12,H  23,O  22)           29.4532         0.118738   
    106. A(O  19,H  23,O  22)          165.3367         0.211569   
    107. A(H  12,H  23,H  20)           80.6143         0.101062   
    108. A(O  19,H  23,H  20)           56.0294         0.138715   
    109. A(O  22,H  24,H  23)           48.4902         0.137012   
    110. A(N  10,H  26,H  12)           50.6286         0.134922   
    111. A(H  31,C  29,C  32)          109.5821         0.324929   
    112. A(H  30,C  29,C  32)          109.5663         0.324970   
    113. A(C  13,C  29,C  32)          111.3858         0.365449   
    114. A(H  30,C  29,H  31)          107.6950         0.290033   
    115. A(C  13,C  29,H  31)          109.3130         0.324519   
    116. A(C  13,C  29,H  30)          109.2214         0.324560   
    117. A(H  34,C  32,H  35)          108.3934         0.291552   
    118. A(H  33,C  32,H  35)          108.3341         0.291414   
    119. A(C  29,C  32,H  35)          110.4314         0.325752   
    120. A(H  33,C  32,H  34)          108.4279         0.291561   
    121. A(C  29,C  32,H  34)          110.6692         0.325925   
    122. A(C  29,C  32,H  33)          110.5091         0.325763   
    123. D(H   7,C   1,C   0,C   6)      2.2500         0.026910   
    124. D(C   2,C   1,C   0,C   6)   -178.1271         0.026910   
    125. D(H   7,C   1,C   0,C   5)   -179.6662         0.026910   
    126. D(C   2,C   1,C   0,C   5)     -0.0433         0.026910   
    127. D(C   3,C   2,C   1,C   0)     -0.1641         0.028675   
    128. D(H  27,C   2,C   1,H   7)     -0.3135         0.028675   
    129. D(C   3,C   2,C   1,H   7)    179.4569         0.028675   
    130. D(H  27,C   2,C   1,C   0)   -179.9345         0.028675   
    131. D(H   9,C   3,C   2,C   1)   -179.6989         0.028061   
    132. D(H   9,C   3,C   2,H  27)      0.0702         0.028061   
    133. D(C   4,C   3,C   2,C   1)      0.1138         0.028061   
    134. D(C   4,C   3,C   2,H  27)    179.8830         0.028061   
    135. D(H  28,C   4,C   3,C   2)   -179.8929         0.028329   
    136. D(C   5,C   4,C   3,C   2)      0.1441         0.028329   
    137. D(H  28,C   4,C   3,H   9)     -0.0805         0.028329   
    138. D(C   5,C   4,C   3,H   9)    179.9565         0.028329   
    139. D(H   8,C   5,C   0,C   6)     -2.2377         0.027386   
    140. D(C   0,C   5,C   4,C   3)     -0.3531         0.027880   
    141. D(H   8,C   5,C   4,H  28)      0.2123         0.027880   
    142. D(H   8,C   5,C   4,C   3)   -179.8246         0.027880   
    143. D(C   0,C   5,C   4,H  28)    179.6837         0.027880   
    144. D(C   4,C   5,C   0,C   6)    178.2971         0.027386   
    145. D(C   4,C   5,C   0,C   1)      0.3003         0.027386   
    146. D(H   8,C   5,C   0,C   1)    179.7655         0.027386   
    147. D(O  18,C   6,C   0,C   5)     26.9323         0.011259   
    148. D(H  25,C   6,C   0,C   1)    -38.3224         0.011259   
    149. D(H  25,C   6,C   0,C   5)    143.6627         0.011259   
    150. D(O  18,C   6,C   0,C   1)   -155.0528         0.011259   
    151. D(N  10,C   6,C   0,C   1)     81.6506         0.011259   
    152. D(N  10,C   6,C   0,C   5)    -96.3643         0.011259   
    153. D(C  11,N  10,C   6,C   0)   -173.6651         0.015322   
    154. D(H  12,N  10,C   6,O  18)    -63.0623         0.015322   
    155. D(H  12,N  10,C   6,C   0)     63.2436         0.015322   
    156. D(H  26,N  10,C   6,H  25)     67.8248         0.015322   
    157. D(H  12,N  10,C   6,H  25)   -178.5291         0.015322   
    158. D(H  26,N  10,C   6,O  18)   -176.7084         0.015322   
    159. D(H  26,N  10,C   6,C   0)    -50.4025         0.015322   
    160. D(C  11,N  10,C   6,H  25)    -55.4378         0.015322   
    161. D(C  11,N  10,C   6,O  18)     60.0290         0.015322   
    162. D(H  15,C  11,N  10,H  12)    -29.4899         0.016695   
    163. D(H  15,C  11,N  10,C   6)   -157.2093         0.016695   
    164. D(H  14,C  11,N  10,H  12)     86.5321         0.016695   
    165. D(H  14,C  11,N  10,H  26)   -163.8912         0.016695   
    166. D(H  14,C  11,N  10,C   6)    -41.1873         0.016695   
    167. D(C  13,C  11,N  10,H  12)   -150.9910         0.016695   
    168. D(H  15,C  11,N  10,H  26)     80.0867         0.016695   
    169. D(C  13,C  11,N  10,H  26)    -41.4144         0.016695   
    170. D(C  13,C  11,N  10,C   6)     81.2896         0.016695   
    171. D(H  23,H  12,N  10,C  11)    -92.5017         0.002201   
    172. D(H  26,H  12,N  10,C   6)   -117.3019         0.002201   
    173. D(H  26,H  12,N  10,C  11)    114.7411         0.002201   
    174. D(H  23,H  12,N  10,C   6)     35.4552         0.002201   
    175. D(H  23,H  12,N  10,H  26)    152.7571         0.002201   
    176. D(C  29,C  13,C  11,H  15)     59.5733         0.011265   
    177. D(C  29,C  13,C  11,H  14)    -59.7003         0.011265   
    178. D(C  29,C  13,C  11,N  10)    179.7388         0.011265   
    179. D(H  17,C  13,C  11,H  15)   -179.2371         0.011265   
    180. D(H  17,C  13,C  11,H  14)     61.4893         0.011265   
    181. D(H  17,C  13,C  11,N  10)    -59.0716         0.011265   
    182. D(H  16,C  13,C  11,H  15)    -61.4757         0.011265   
    183. D(H  16,C  13,C  11,N  10)     58.6899         0.011265   
    184. D(H  16,C  13,C  11,H  14)    179.2508         0.011265   
    185. D(H  20,O  18,C   6,C   0)    -59.9095         0.025598   
    186. D(H  20,O  18,C   6,H  25)   -178.9168         0.025598   
    187. D(H  20,O  18,C   6,N  10)     61.4480         0.025598   
    188. D(H  23,H  20,O  19,H  21)   -109.0153         0.001934   
    189. D(O  18,H  20,O  19,H  23)     96.6331         0.001934   
    190. D(O  18,H  20,O  19,H  21)    -12.3823         0.001934   
    191. D(H  23,H  20,O  18,C   6)    -44.3861         0.274992   
    192. D(O  19,H  20,O  18,C   6)   -125.9471         0.274992   
    193. D(H  24,O  22,H  12,H  23)   -108.1243         0.310928   
    194. D(H  24,O  22,H  12,H  26)     39.1609         0.310928   
    195. D(H  23,O  22,N  10,H  26)    153.1656         0.001501   
    196. D(H  23,O  22,N  10,C  11)    -91.4533         0.001501   
    197. D(H  23,O  22,N  10,C   6)     35.8721         0.001501   
    198. D(H  24,O  22,N  10,H  26)     45.8105         0.001501   
    199. D(H  24,O  22,N  10,C  11)    161.1916         0.001501   
    200. D(H  23,O  22,H  12,H  26)    147.2852         0.310928   
    201. D(H  24,O  22,N  10,C   6)    -71.4830         0.001501   
    202. D(H  24,H  23,O  22,H  12)   -107.6500         0.002312   
    203. D(H  20,H  23,O  22,H  24)     98.7087         0.002312   
    204. D(H  20,H  23,O  22,H  12)     -8.9414         0.002312   
    205. D(O  19,H  23,O  22,H  24)     85.5479         0.002312   
    206. D(O  19,H  23,O  22,H  12)    -22.1021         0.002312   
    207. D(H  24,H  23,H  20,O  19)   -149.4103         0.001529   
    208. D(O  22,H  23,H  20,O  19)   -176.0149         0.001529   
    209. D(O  22,H  23,H  20,O  18)     20.9705         0.001529   
    210. D(H  12,H  23,H  20,O  19)    179.5425         0.001529   
    211. D(H  12,H  23,H  20,O  18)     16.5278         0.001529   
    212. D(O  19,H  23,H  20,O  18)   -163.0146         0.001529   
    213. D(H  24,H  23,O  19,H  20)     73.1147         0.354359   
    214. D(H  24,H  23,O  19,H  21)   -177.0556         0.354359   
    215. D(O  22,H  23,O  19,H  20)     14.9755         0.354359   
    216. D(O  22,H  23,O  19,H  21)    124.8051         0.354359   
    217. D(H  20,H  23,O  19,H  21)    109.8296         0.354359   
    218. D(H  12,H  23,O  19,H  20)     -0.6575         0.354359   
    219. D(H  12,H  23,O  19,H  21)    109.1721         0.354359   
    220. D(H  24,H  23,H  12,H  26)   -123.4900         0.001567   
    221. D(H  24,H  23,H  12,N  10)   -142.9006         0.001567   
    222. D(H  24,H  23,H  12,O  22)     35.7903         0.001567   
    223. D(O  22,H  23,H  12,H  26)   -159.2803         0.001567   
    224. D(H  24,H  23,H  20,O  18)     47.5750         0.001529   
    225. D(O  22,H  23,H  12,N  10)   -178.6909         0.001567   
    226. D(H  20,H  23,H  12,H  26)     12.1928         0.001567   
    227. D(H  20,H  23,H  12,N  10)     -7.2178         0.001567   
    228. D(H  12,H  23,O  22,H  24)    107.6500         0.002312   
    229. D(H  20,H  23,H  12,O  22)    171.4731         0.001567   
    230. D(O  19,H  23,H  12,H  26)     12.7455         0.001567   
    231. D(O  19,H  23,H  12,N  10)     -6.6652         0.001567   
    232. D(O  19,H  23,H  12,O  22)    172.0257         0.001567   
    233. D(O  22,H  24,H  23,H  20)    -90.8101         0.001517   
    234. D(O  22,H  24,H  23,H  12)    -43.0120         0.001517   
    235. D(O  22,H  24,H  23,O  19)   -149.3352         0.001517   
    236. D(H  23,H  24,O  22,H  12)     97.9244         0.344436   
    237. D(N  10,H  26,H  12,H  23)    -39.9612         0.001516   
    238. D(N  10,H  26,H  12,O  22)   -173.1995         0.001516   
    239. D(H  12,H  26,N  10,C  11)   -111.9026         0.224792   
    240. D(H  12,H  26,N  10,C   6)    121.6040         0.224792   
    241. D(C  32,C  29,C  13,H  16)    -59.3894         0.011420   
    242. D(C  32,C  29,C  13,C  11)    179.7782         0.011420   
    243. D(H  31,C  29,C  13,H  17)    179.6880         0.011420   
    244. D(H  31,C  29,C  13,H  16)     61.8518         0.011420   
    245. D(H  31,C  29,C  13,C  11)    -58.9806         0.011420   
    246. D(H  30,C  29,C  13,H  17)    -62.7133         0.011420   
    247. D(H  30,C  29,C  13,H  16)    179.4504         0.011420   
    248. D(C  32,C  29,C  13,H  17)     58.4468         0.011420   
    249. D(H  30,C  29,C  13,C  11)     58.6181         0.011420   
    250. D(H  35,C  32,C  29,H  31)    179.2919         0.011588   
    251. D(H  35,C  32,C  29,H  30)     61.3345         0.011588   
    252. D(H  35,C  32,C  29,C  13)    -59.6240         0.011588   
    253. D(H  34,C  32,C  29,H  31)     59.2640         0.011588   
    254. D(H  34,C  32,C  29,H  30)    -58.6934         0.011588   
    255. D(H  34,C  32,C  29,C  13)   -179.6519         0.011588   
    256. D(H  33,C  32,C  29,H  31)    -60.8577         0.011588   
    257. D(H  33,C  32,C  29,H  30)   -178.8151         0.011588   
    258. D(H  33,C  32,C  29,C  13)     60.2264         0.011588   
    -----------------------------------------------------------------

Number of atoms                         .... 36
Number of degrees of freedom            .... 258

         *************************************************************
         *                GEOMETRY OPTIMIZATION CYCLE   1            *
         *************************************************************
      -----------------------------------------------------------      
     |                   =====================                   |     
     |                           x T B                           |     
     |                   =====================                   |     
     |                         S. Grimme                         |     
     |          Mulliken Center for Theoretical Chemistry        |     
     |                    University of Bonn                     |     
      -----------------------------------------------------------      

   * xtb version 6.3.0 (49875a8) compiled by 'schneider@apollo14' on 2020-05-23

   xtb is free software: you can redistribute it and/or modify it under
   the terms of the GNU Lesser General Public License as published by
   the Free Software Foundation, either version 3 of the License, or
   (at your option) any later version.
   
   xtb is distributed in the hope that it will be useful,
   but WITHOUT ANY WARRANTY; without even the implied warranty of
   MERCHANTABILITY or FITNESS FOR A PARTICULAR PURPOSE.  See the
   GNU Lesser General Public License for more details.
   
   Cite this work as:
   * S. Grimme, C. Bannwarth, P. Shushkov, J. Chem. Theory Comput., 2017,
     13, 1989-2009. DOI: 10.1021/acs.jctc.7b00118
   * C. Bannwarth, S. Ehlert and S. Grimme., J. Chem. Theory Comput., 2019,
     15, 1652-1671. DOI: 10.1021/acs.jctc.8b01176
   * P. Pracht, E. Caldeweyher, S. Ehlert, S. Grimme, ChemRxiv, 2019, preprint.
     DOI: 10.26434/chemrxiv.8326202.v1
   
   for GFN-FF:
   * S. Spicher and S. Grimme, Angew. Chem. Int. Ed., 2020,
     DOI: 10.1002/anie.202004239
   
   for DFT-D4:
   * E. Caldeweyher, C. Bannwarth and S. Grimme, J. Chem. Phys., 2017,
     147, 034112. DOI: 10.1063/1.4993215
   * E. Caldeweyher, S. Ehlert, A. Hansen, H. Neugebauer, S. Spicher,
     C. Bannwarth and S. Grimme, J. Chem. Phys., 2019, 150, 154122.
     DOI: 10.1063/1.5090222
   
   for sTDA-xTB:
   * S. Grimme and C. Bannwarth, J. Chem. Phys., 2016, 145, 054103.
     DOI: 10.1063/1.4959605
   
   in the mass-spec context:
   * V. Asgeirsson, C. Bauer and S. Grimme, Chem. Sci., 2017, 8, 4879.
     DOI: 10.1039/c7sc00601b
   * J. Koopman and S. Grimme, ACS Omega 2019, 4, 12, 15120-15133.
     DOI: 10.1021/acsomega.9b02011
   
   for metadynamics refer to:
   * S. Grimme, J. Chem. Theory Comput., 2019, 155, 2847-2862
     DOI: 10.1021/acs.jctc.9b00143
   
   with help from (in alphabetical order)
   C. Bannwarth, F. Bohle, G. Brandenburg, E. Caldeweyher, M. Checinski,
   S. Dohm, S. Ehlert, S. Ehrlich, F. März, H. Neugebauer, J. Pisarek,
   P. Pracht, P. Shushkov, and S. Spicher.
   
 * started run on 2020/06/24 at 15:32:30.046     

           -------------------------------------------------
          |                Calculation Setup                |
           -------------------------------------------------

          program call               : /opt/orca/otool_xtb opt+freq_XTB.xyz --grad -c 0 -u 0 -P 12 --namespace opt+freq --gbsa CH2Cl2
          calculation namespace      : opt+freq
          coordinate file            : opt+freq_XTB.xyz
          number of atoms            :                    36
          number of electrons        :                    88
          charge                     :                     0
          spin                       :                   0.0
          first test random number   :      0.89674090924179

   ID    Z sym.   atoms
    1    6 C      1-7, 12, 14, 30, 33
    2    1 H      8-10, 13, 15-18, 21, 22, 24-29, 31, 32, 34-36
    3    7 N      11
    4    8 O      19, 20, 23

molecular fragmentation (1/2 indicates fragments):
111111111111211111121222211111111111
# atoms in fragment 1/2:    30     6
 fragment masses (1/2) :      179.26       36.03
CMA distance (Bohr)    :   6.526
constraining FC (au)   :  0.0500
########################################################################
[WARNING] Please study the warnings concerning your input carefully
-1- prog_main_parseArguments: Process number higher than OMP_NUM_THREADS, I hope you know what you are doing.
########################################################################
 Solvent             : CH2Cl2
 Using internal parameter file: .param_gbsa2_CH2Cl2
 Gsolv ref. state (COSMO-RS): gsolv [1 M gas/solution]
 temperature (mdtemp)       :    298.14999999999998     
 dielectric constant        :    8.9299999999999997     
 rho                        :    1.3300000000000003     
 mass                       :    84.930000000000007     
 surface tension            :    15.568945408385856     
 probe radius               :   0.71987590000000001     
 Gshift (Eh)                :    4.4408291734517593E-003
 c1                         :    1.4917377599999999     
 soset                      :    0.0000000000000000     
 HB correction              :  F

           -------------------------------------------------
          |                 G F N 2 - x T B                 |
           -------------------------------------------------

        Reference                      10.1021/acs.jctc.8b01176
      * Hamiltonian:
        H0-scaling (s, p, d)           1.850000    2.230000    2.230000
        zeta-weighting                 0.500000
      * Dispersion:
        s8                             2.700000
        a1                             0.520000
        a2                             5.000000
        s9                             5.000000
      * Repulsion:
        kExp                           1.500000    1.000000
        rExp                           1.000000
      * Coulomb:
        alpha                          2.000000
        third order                    shell-resolved
        anisotropic                    true
        a3                             3.000000
        a5                             4.000000
        cn-shift                       1.200000
        cn-exp                         4.000000
        max-rad                        5.000000


          ...................................................
          :                      SETUP                      :
          :.................................................:
          :  # basis functions                  81          :
          :  # atomic orbitals                  81          :
          :  # shells                           51          :
          :  # electrons                        88          :
          :  max. iterations                   250          :
          :  Hamiltonian                  GFN2-xTB          :
          :  restarted?                      false          :
          :  GBSA solvation                   true          :
          :  PC potential                    false          :
          :  electronic temp.          300.0000000     K    :
          :  accuracy                    1.0000000          :
          :  -> integral cutoff          0.2500000E+02      :
          :  -> integral neglect         0.1000000E-07      :
          :  -> SCF convergence          0.1000000E-05 Eh   :
          :  -> wf. convergence          0.1000000E-03 e    :
          :  Broyden damping             0.4000000          :
          ...................................................

 iter      E             dE          RMSdq      gap      omega  full diag
   1    -49.9658054 -0.499658E+02  0.386E+00    3.87       0.0  T
   2    -50.0068931 -0.410877E-01  0.224E+00    4.19       1.0  T
   3    -50.0061825  0.710643E-03  0.630E-01    4.17       1.0  T
   4    -50.0087089 -0.252640E-02  0.229E-01    4.17       1.0  T
   5    -50.0102264 -0.151750E-02  0.692E-02    4.18       1.0  T
   6    -50.0102427 -0.163260E-04  0.298E-02    4.18       1.0  T
   7    -50.0102447 -0.202988E-05  0.115E-02    4.18       1.4  T
   8    -50.0102467 -0.191565E-05  0.412E-03    4.18       4.0  T
   9    -50.0102468 -0.115917E-06  0.210E-03    4.18       7.9  T
  10    -50.0102468 -0.143148E-07  0.832E-04    4.18      20.0  T
  11    -50.0102468 -0.654072E-08  0.345E-04    4.18      48.4  T

   *** convergence criteria satisfied after 11 iterations ***

         #    Occupation            Energy/Eh            Energy/eV
      -------------------------------------------------------------
         1        2.0000           -0.6931419             -18.8614
       ...           ...                  ...                  ...
        38        2.0000           -0.4390663             -11.9476
        39        2.0000           -0.4287654             -11.6673
        40        2.0000           -0.4264064             -11.6031
        41        2.0000           -0.4136741             -11.2566
        42        2.0000           -0.4102798             -11.1643
        43        2.0000           -0.4079361             -11.1005
        44        2.0000           -0.3854732             -10.4893 (HOMO)
        45                         -0.2317189              -6.3054 (LUMO)
        46                         -0.2288574              -6.2275
        47                         -0.1025550              -2.7907
        48                          0.0035894               0.0977
        49                          0.0345050               0.9389
       ...                                ...                  ...
        81                          0.6584678              17.9178
      -------------------------------------------------------------
                  HL-Gap            0.1537542 Eh            4.1839 eV
             Fermi-level           -0.3085960 Eh           -8.3973 eV

 SCC (total)                   0 d,  0 h,  0 min,  0.167 sec
 SCC setup                      ...        0 min,  0.002 sec (  0.971%)
 Dispersion                     ...        0 min,  0.001 sec (  0.306%)
 classical contributions        ...        0 min,  0.000 sec (  0.104%)
 integral evaluation            ...        0 min,  0.019 sec ( 11.615%)
 iterations                     ...        0 min,  0.099 sec ( 59.300%)
 molecular gradient             ...        0 min,  0.042 sec ( 25.426%)
 printout                       ...        0 min,  0.004 sec (  2.264%)

         :::::::::::::::::::::::::::::::::::::::::::::::::::::
         ::                     SUMMARY                     ::
         :::::::::::::::::::::::::::::::::::::::::::::::::::::
         :: total energy             -49.390141671860 Eh    ::
         :: total w/o Gsasa/hb       -49.372443878074 Eh    ::
         :: gradient norm              0.002019303247 Eh/a0 ::
         :: HOMO-LUMO gap              4.183865259223 eV    ::
         ::.................................................::
         :: SCC energy               -50.027944586632 Eh    ::
         :: -> isotropic ES            0.106626417529 Eh    ::
         :: -> anisotropic ES         -0.006246680172 Eh    ::
         :: -> anisotropic XC          0.020786235250 Eh    ::
         :: -> dispersion             -0.029432693262 Eh    ::
         :: -> Gsolv                  -0.024331435615 Eh    ::
         ::    -> Gborn               -0.006633641829 Eh    ::
         ::    -> Gsasa               -0.022138622959 Eh    ::
         ::    -> Ghb                  0.000000000000 Eh    ::
         ::    -> Gshift               0.004440829173 Eh    ::
         :: repulsion energy           0.637604058641 Eh    ::
         :: add. restraining           0.000000000000 Eh    ::
         :::::::::::::::::::::::::::::::::::::::::::::::::::::

           -------------------------------------------------
          |                Property Printout                |
           -------------------------------------------------

    * Orbital Energies and Occupations

         #    Occupation            Energy/Eh            Energy/eV
      -------------------------------------------------------------
         1        2.0000           -0.6931419             -18.8614
       ...           ...                  ...                  ...
        32        2.0000           -0.4686035             -12.7513
        33        2.0000           -0.4572784             -12.4432
        34        2.0000           -0.4485602             -12.2059
        35        2.0000           -0.4466780             -12.1547
        36        2.0000           -0.4445993             -12.0982
        37        2.0000           -0.4417806             -12.0215
        38        2.0000           -0.4390663             -11.9476
        39        2.0000           -0.4287654             -11.6673
        40        2.0000           -0.4264064             -11.6031
        41        2.0000           -0.4136741             -11.2566
        42        2.0000           -0.4102798             -11.1643
        43        2.0000           -0.4079361             -11.1005
        44        2.0000           -0.3854732             -10.4893 (HOMO)
        45                         -0.2317189              -6.3054 (LUMO)
        46                         -0.2288574              -6.2275
        47                         -0.1025550              -2.7907
        48                          0.0035894               0.0977
        49                          0.0345050               0.9389
        50                          0.0661506               1.8000
        51                          0.0772608               2.1024
        52                          0.0789005               2.1470
        53                          0.0979469               2.6653
        54                          0.1109241               3.0184
        55                          0.1190422               3.2393
       ...                                ...                  ...
        81                          0.6584678              17.9178
      -------------------------------------------------------------
                  HL-Gap            0.1537542 Eh            4.1839 eV
             Fermi-level           -0.3085960 Eh           -8.3973 eV

     #   Z        covCN         q      C6AA      α(0)
     1   6 C      2.973    -0.020    28.499     8.757
     2   6 C      2.925    -0.040    29.005     8.832
     3   6 C      2.919    -0.030    28.744     8.792
     4   6 C      2.919    -0.031    28.768     8.796
     5   6 C      2.920    -0.030    28.746     8.792
     6   6 C      2.921    -0.038    28.952     8.824
     7   6 C      3.667     0.185    17.889     6.065
     8   1 H      0.925     0.028     2.617     2.530
     9   1 H      0.926     0.058     2.218     2.329
    10   1 H      0.926     0.040     2.450     2.448
    11   7 N      2.682    -0.303    27.791     7.830
    12   6 C      3.737     0.004    20.595     6.476
    13   1 H      0.804     0.313     0.682     1.297
    14   6 C      3.802    -0.065    21.747     6.639
    15   1 H      0.924     0.052     2.300     2.372
    16   1 H      0.924     0.043     2.411     2.428
    17   1 H      0.924     0.032     2.560     2.502
    18   1 H      0.924     0.030     2.581     2.512
    19   8 O      1.655    -0.488    22.638     6.423
    20   8 O      1.607    -0.627    25.837     6.860
    21   1 H      0.802     0.333     0.630     1.247
    22   1 H      0.805     0.292     0.746     1.357
    23   8 O      1.606    -0.620    25.671     6.838
    24   1 H      0.802     0.327     0.646     1.262
    25   1 H      0.805     0.293     0.742     1.353
    26   1 H      0.922     0.013     2.840     2.636
    27   1 H      0.860     0.151     1.393     1.849
    28   1 H      0.926     0.039     2.460     2.453
    29   1 H      0.926     0.042     2.428     2.437
    30   6 C      3.801    -0.055    21.571     6.613
    31   1 H      0.924     0.033     2.544     2.494
    32   1 H      0.924     0.034     2.530     2.488
    33   6 C      3.752    -0.104    22.540     6.770
    34   1 H      0.925     0.036     2.496     2.471
    35   1 H      0.925     0.037     2.483     2.464
    36   1 H      0.925     0.035     2.512     2.479

 Mol. C6AA /au·bohr⁶  :      10805.143959
 Mol. C8AA /au·bohr⁸  :     237464.141041
 Mol. α(0) /au        :        158.713047


Wiberg/Mayer (AO) data.
largest (>0.10) Wiberg bond orders for each atom
          total WBO             WBO to atom ...
     1  C   3.987        C    6 1.423    C    2 1.410    C    7 0.972    C    4 0.110
     2  C   3.992        C    3 1.450    C    1 1.410    H    8 0.969    C    5 0.112
     3  C   3.992        C    2 1.450    C    4 1.433    H   28 0.970    C    6 0.111
     4  C   3.991        C    5 1.445    C    3 1.433    H   10 0.971    C    1 0.110
     5  C   3.992        C    4 1.445    C    6 1.437    H   29 0.970    C    2 0.112
     6  C   3.990        C    5 1.437    C    1 1.423    H    9 0.961    C    3 0.111
     7  C   3.953        O   19 1.022    C    1 0.972    N   11 0.959    H   26 0.948
     8  H   0.999        C    2 0.969
     9  H   0.997        C    6 0.961
    10  H   0.998        C    4 0.971
    11  N   3.146        C   12 0.996    C    7 0.959    H   27 0.950
    12  C   3.976        C   14 1.001    N   11 0.996    H   15 0.972    H   16 0.971
    13  H   0.902        O   23 0.814
    14  C   3.997        C   30 1.006    C   12 1.001    H   17 0.976    H   18 0.975
    15  H   0.997        C   12 0.972
    16  H   0.998        C   12 0.971
    17  H   0.999        C   14 0.976
    18  H   0.999        C   14 0.975
    19  O   1.959        C    7 1.022    H   21 0.811
    20  O   1.859        H   22 0.912    H   24 0.822
    21  H   0.889        O   19 0.811
    22  H   0.915        O   20 0.912
    23  O   1.873        H   25 0.912    H   13 0.814
    24  H   0.893        O   20 0.822
    25  H   0.914        O   23 0.912
    26  H   1.000        C    7 0.948
    27  H   0.977        N   11 0.950
    28  H   0.998        C    3 0.970
    29  H   0.998        C    5 0.970
    30  C   3.997        C   33 1.019    C   14 1.006    H   31 0.978    H   32 0.978
    31  H   0.999        C   30 0.978
    32  H   0.999        C   30 0.978
    33  C   3.997        C   30 1.019    H   36 0.988    H   34 0.988    H   35 0.987
    34  H   0.999        C   33 0.988
    35  H   0.998        C   33 0.987
    36  H   0.999        C   33 0.988
Topologies differ in total number of bonds
Writing topology from bond orders to xtbtopo.mol

molecular dipole:
                 x           y           z       tot (Debye)
 q only:       -0.195       0.637       0.744
   full:       -0.264       1.030       0.807       3.393
molecular quadrupole (traceless):
                xx          xy          yy          xz          yz          zz
 q only:        6.293       2.426       1.474      -0.559      -0.434      -7.766
  q+dip:        6.579       2.005       4.244      -2.203      -1.345     -10.824
   full:        6.153       2.181       3.015      -1.553      -0.918      -9.168


           -------------------------------------------------
          | TOTAL ENERGY              -49.390141671860 Eh   |
          | GRADIENT NORM               0.002019303247 Eh/α |
          | HOMO-LUMO GAP               4.183865259223 eV   |
           -------------------------------------------------
########################################################################
[WARNING] Runtime exception occurred
-2- restart_readRestart: Dimension missmatch in restart file.
-1- restart_readRestart: Number of electron missmatch in restart file.
########################################################################

------------------------------------------------------------------------
 * finished run on 2020/06/24 at 15:32:30.258     
------------------------------------------------------------------------
 total:
 * wall-time:     0 d,  0 h,  0 min,  0.212 sec
 *  cpu-time:     0 d,  0 h,  0 min,  2.180 sec
 * ratio c/w:    10.286 speedup
 SCF:
 * wall-time:     0 d,  0 h,  0 min,  0.168 sec
 *  cpu-time:     0 d,  0 h,  0 min,  1.751 sec
 * ratio c/w:    10.451 speedup


-------------------------   --------------------
FINAL SINGLE POINT ENERGY       -49.390141671860
-------------------------   --------------------

------------------------------------------------------------------------------
                         ORCA GEOMETRY RELAXATION STEP
------------------------------------------------------------------------------

Reading the OPT-File                    .... done
Getting information on internals        .... done
Copying old internal coords+grads       .... done
Making the new internal coordinates     .... (new redundants).... done
Validating the new internal coordinates .... (new redundants).... done
Calculating the B-matrix                .... done
Calculating the G,G- and P matrices     .... done
Transforming gradient to internals      .... done
Projecting the internal gradient        .... done
Number of atoms                         ....  36
Number of internal coordinates          .... 258
Current Energy                          ....   -49.390141672 Eh
Current gradient norm                   ....     0.002019303 Eh/bohr
Maximum allowed component of the step   ....  0.300
Current trust radius                    ....  0.300
Evaluating the initial hessian          ....  (Almloef) done
Projecting the Hessian                  .... done
Forming the augmented Hessian           .... done
Diagonalizing the augmented Hessian     .... done
Last element of RFO vector              ....  0.995587324
Lowest eigenvalues of augmented Hessian:
 -0.000238141  0.011263938  0.011269405  0.011420812  0.011587788
Length of the computed step             ....  0.094255568
The final length of the internal step   ....  0.094255568
Converting the step to cartesian space:
 Initial RMS(Int)=    0.0058680953
Transforming coordinates:
 Iter   0:  RMS(Cart)=    0.0177784666 RMS(Int)=    0.0058780136
 Iter   1:  RMS(Cart)=    0.0001371214 RMS(Int)=    0.0000691337
 Iter   2:  RMS(Cart)=    0.0000011222 RMS(Int)=    0.0000003757
 Iter   3:  RMS(Cart)=    0.0000000151 RMS(Int)=    0.0000000065
done
Storing new coordinates                 .... done

                                .--------------------.
          ----------------------|Geometry convergence|-------------------------
          Item                value                   Tolerance       Converged
          ---------------------------------------------------------------------
          RMS gradient        0.0003119395            0.0001000000      NO
          MAX gradient        0.0016182204            0.0003000000      NO
          RMS step            0.0058680953            0.0020000000      NO
          MAX step            0.0448369988            0.0040000000      NO
          ........................................................
          Max(Bonds)      0.0237      Max(Angles)    0.31
          Max(Dihed)        0.84      Max(Improp)    0.00
          ---------------------------------------------------------------------

The optimization has not yet converged - more geometry cycles are needed


    ---------------------------------------------------------------------------
                         Redundant Internal Coordinates
                            (Angstroem and degrees)

        Definition                    Value    dE/dq     Step     New-Value
    ----------------------------------------------------------------------------
     1. B(C   1,C   0)                1.3906 -0.000715  0.0006    1.3912   
     2. B(C   2,C   1)                1.3825 -0.000413  0.0004    1.3829   
     3. B(C   3,C   2)                1.3853 -0.000083  0.0001    1.3853   
     4. B(C   4,C   3)                1.3840  0.000117 -0.0001    1.3839   
     5. B(C   5,C   4)                1.3861  0.000355 -0.0003    1.3857   
     6. B(C   5,C   0)                1.3884  0.000740 -0.0006    1.3877   
     7. B(C   6,C   0)                1.5190  0.000045 -0.0001    1.5190   
     8. B(H   7,C   1)                1.0816 -0.000123  0.0002    1.0818   
     9. B(H   8,C   5)                1.0793  0.000132 -0.0002    1.0791   
    10. B(H   9,C   3)                1.0800 -0.000013  0.0000    1.0800   
    11. B(N  10,C   6)                1.4750  0.000047  0.0001    1.4751   
    12. B(C  11,N  10)                1.4633 -0.000574  0.0007    1.4640   
    13. B(H  12,N  10)                1.7251 -0.001318  0.0237    1.7488   
    14. B(C  13,C  11)                1.5284 -0.000876  0.0012    1.5297   
    15. B(H  14,C  11)                1.0924 -0.000032  0.0000    1.0924   
    16. B(H  15,C  11)                1.0947  0.000124 -0.0002    1.0946   
    17. B(H  16,C  13)                1.0944  0.000017 -0.0000    1.0944   
    18. B(H  17,C  13)                1.0928 -0.000164  0.0002    1.0931   
    19. B(O  18,C   6)                1.3870 -0.000338  0.0008    1.3878   
    20. B(H  20,O  18)                0.9842 -0.000981  0.0012    0.9855   
    21. B(H  20,O  19)                1.7663 -0.000659  0.0195    1.7858   
    22. B(H  21,O  19)                0.9599 -0.000435  0.0004    0.9603   
    23. B(O  22,H  12)                0.9915 -0.000660  0.0012    0.9927   
    24. B(H  23,O  19)                0.9856 -0.000320  0.0008    0.9864   
    25. B(H  23,O  22)                1.7061 -0.000218  0.0055    1.7116   
    26. B(H  23,H  20)                2.1165 -0.000539  0.0178    2.1343   
    27. B(H  23,H  12)                2.0140 -0.000362  0.0037    2.0178   
    28. B(H  24,O  22)                0.9604 -0.000172  0.0006    0.9610   
    29. B(H  24,H  23)                2.1836 -0.000547  0.0065    2.1901   
    30. B(H  25,C   6)                1.1049 -0.000138  0.0002    1.1051   
    31. B(H  26,N  10)                1.0169  0.000332  0.0003    1.0172   
    32. B(H  26,H  12)                2.1806 -0.000462  0.0206    2.2012   
    33. B(H  27,C   2)                1.0801 -0.000094  0.0001    1.0802   
    34. B(H  28,C   4)                1.0802  0.000097 -0.0001    1.0800   
    35. B(C  29,C  13)                1.5265 -0.000441  0.0006    1.5271   
    36. B(H  30,C  29)                1.0923  0.000011 -0.0000    1.0923   
    37. B(H  31,C  29)                1.0925  0.000089 -0.0001    1.0924   
    38. B(C  32,C  29)                1.5244 -0.000329  0.0005    1.5248   
    39. B(H  33,C  32)                1.0883  0.000013 -0.0000    1.0882   
    40. B(H  34,C  32)                1.0874 -0.000106  0.0002    1.0876   
    41. B(H  35,C  32)                1.0883  0.000008 -0.0000    1.0883   
    42. A(C   1,C   0,C   5)          119.18 -0.000007    0.00    119.18   
    43. A(C   5,C   0,C   6)          122.56  0.001618   -0.23    122.33   
    44. A(C   1,C   0,C   6)          118.23 -0.001615    0.23    118.46   
    45. A(C   2,C   1,H   7)          119.92  0.000146   -0.03    119.89   
    46. A(C   0,C   1,H   7)          119.41 -0.000445    0.06    119.47   
    47. A(C   0,C   1,C   2)          120.67  0.000300   -0.04    120.63   
    48. A(C   1,C   2,H  27)          119.77 -0.000193    0.03    119.80   
    49. A(C   3,C   2,H  27)          120.28  0.000131   -0.03    120.26   
    50. A(C   1,C   2,C   3)          119.94  0.000062   -0.00    119.94   
    51. A(C   2,C   3,H   9)          120.08 -0.000080    0.01    120.09   
    52. A(C   4,C   3,H   9)          120.23  0.000089   -0.01    120.21   
    53. A(C   2,C   3,C   4)          119.69 -0.000008    0.00    119.69   
    54. A(C   3,C   4,H  28)          120.02 -0.000131    0.03    120.05   
    55. A(C   3,C   4,C   5)          120.45 -0.000058    0.00    120.45   
    56. A(C   5,C   4,H  28)          119.52  0.000189   -0.03    119.50   
    57. A(C   0,C   5,C   4)          120.07 -0.000289    0.03    120.10   
    58. A(C   4,C   5,H   8)          119.38 -0.000164    0.03    119.42   
    59. A(C   0,C   5,H   8)          120.55  0.000453   -0.07    120.48   
    60. A(O  18,C   6,H  25)          104.42 -0.000420    0.01    104.43   
    61. A(N  10,C   6,H  25)          111.19  0.000121   -0.03    111.16   
    62. A(C   0,C   6,H  25)          108.50  0.000314   -0.05    108.45   
    63. A(C   0,C   6,N  10)          106.86 -0.000857    0.18    107.03   
    64. A(C   0,C   6,O  18)          115.42  0.000390   -0.03    115.40   
    65. A(N  10,C   6,O  18)          110.49  0.000488   -0.10    110.39   
    66. A(C  11,N  10,H  12)          105.79 -0.000724    0.24    106.03   
    67. A(C   6,N  10,H  12)          114.69 -0.000168    0.05    114.75   
    68. A(C  11,N  10,H  26)          109.62 -0.000121   -0.02    109.60   
    69. A(C   6,N  10,H  26)          108.57 -0.000223    0.08    108.65   
    70. A(C   6,N  10,C  11)          115.09  0.000838   -0.28    114.82   
    71. A(H  12,N  10,H  26)          102.26  0.000337   -0.05    102.21   
    72. A(N  10,C  11,H  15)          107.17  0.000140    0.05    107.21   
    73. A(C  13,C  11,H  14)          110.44  0.000473   -0.15    110.29   
    74. A(H  14,C  11,H  15)          108.35 -0.000144   -0.00    108.34   
    75. A(C  13,C  11,H  15)          109.57  0.000103    0.03    109.60   
    76. A(N  10,C  11,C  13)          114.14 -0.000723    0.13    114.27   
    77. A(N  10,C  11,H  14)          106.97  0.000159   -0.06    106.92   
    78. A(N  10,H  12,H  23)          118.27 -0.000163   -0.02    118.25   
    79. A(O  22,H  12,H  23)           57.79  0.000035    0.13     57.93   
    80. A(N  10,H  12,H  26)           27.11  0.000108   -0.26     26.85   
    81. A(O  22,H  12,H  26)          155.74  0.000063    0.13    155.87   
    82. A(H  23,H  12,H  26)          141.12 -0.000103   -0.21    140.91   
    83. A(H  16,C  13,H  17)          107.93  0.000157   -0.01    107.92   
    84. A(C  11,C  13,H  17)          109.40 -0.000251    0.04    109.43   
    85. A(C  11,C  13,H  16)          108.92 -0.000247    0.05    108.98   
    86. A(H  17,C  13,C  29)          109.15 -0.000133    0.00    109.15   
    87. A(H  16,C  13,C  29)          109.30 -0.000202    0.04    109.33   
    88. A(C  11,C  13,C  29)          112.05  0.000661   -0.11    111.94   
    89. A(C   6,O  18,H  20)          109.92 -0.000302    0.22    110.14   
    90. A(H  21,O  19,H  23)          106.07 -0.000007    0.02    106.09   
    91. A(H  20,O  19,H  23)           96.40  0.000145    0.01     96.41   
    92. A(H  20,O  19,H  21)          107.04 -0.000221    0.04    107.08   
    93. A(O  19,H  20,H  23)           27.57 -0.000028   -0.23     27.34   
    94. A(O  18,H  20,H  23)          152.31  0.000038    0.23    152.54   
    95. A(O  18,H  20,O  19)          172.14 -0.000014    0.06    172.20   
    96. A(H  12,O  22,H  24)          106.05 -0.000018    0.13    106.18   
    97. A(H  23,O  22,H  24)          106.58 -0.000173    0.09    106.66   
    98. A(H  12,O  22,H  23)           92.76  0.000113   -0.12     92.64   
    99. A(H  12,H  23,O  19)          136.64  0.000116   -0.01    136.63   
   100. A(O  22,H  23,H  24)           24.93  0.000042   -0.07     24.86   
   101. A(H  20,H  23,H  24)          111.49  0.000049   -0.16    111.33   
   102. A(H  12,H  23,H  24)           43.38 -0.000092   -0.04     43.35   
   103. A(O  19,H  23,H  24)          150.34 -0.000074    0.08    150.42   
   104. A(H  20,H  23,O  22)          109.74  0.000083   -0.25    109.49   
   105. A(H  12,H  23,O  22)           29.45 -0.000148   -0.02     29.44   
   106. A(O  19,H  23,O  22)          165.34 -0.000038   -0.03    165.31   
   107. A(H  12,H  23,H  20)           80.61  0.000233   -0.23     80.38   
   108. A(O  19,H  23,H  20)           56.03 -0.000117    0.22     56.25   
   109. A(O  22,H  24,H  23)           48.49  0.000132   -0.01     48.48   
   110. A(N  10,H  26,H  12)           50.63 -0.000445    0.31     50.94   
   111. A(H  31,C  29,C  32)          109.58  0.000394   -0.06    109.52   
   112. A(H  30,C  29,C  32)          109.57  0.000410   -0.05    109.51   
   113. A(C  13,C  29,C  32)          111.39 -0.001331    0.24    111.63   
   114. A(H  30,C  29,H  31)          107.70 -0.000242   -0.02    107.67   
   115. A(C  13,C  29,H  31)          109.31  0.000444   -0.07    109.24   
   116. A(C  13,C  29,H  30)          109.22  0.000361   -0.04    109.18   
   117. A(H  34,C  32,H  35)          108.39  0.000082   -0.03    108.36   
   118. A(H  33,C  32,H  35)          108.33  0.000102    0.02    108.35   
   119. A(C  29,C  32,H  35)          110.43 -0.000274    0.06    110.49   
   120. A(H  33,C  32,H  34)          108.43  0.000057   -0.03    108.40   
   121. A(C  29,C  32,H  34)          110.67  0.000212   -0.05    110.62   
   122. A(C  29,C  32,H  33)          110.51 -0.000171    0.04    110.55   
   123. D(H   7,C   1,C   0,C   6)      2.25 -0.000052    0.01      2.26   
   124. D(C   2,C   1,C   0,C   6)   -178.13  0.000021   -0.14   -178.26   
   125. D(H   7,C   1,C   0,C   5)   -179.67 -0.000125    0.30   -179.37   
   126. D(C   2,C   1,C   0,C   5)     -0.04 -0.000052    0.15      0.10   
   127. D(C   3,C   2,C   1,C   0)     -0.16 -0.000036    0.05     -0.12   
   128. D(H  27,C   2,C   1,H   7)     -0.31  0.000042   -0.10     -0.42   
   129. D(C   3,C   2,C   1,H   7)    179.46  0.000035   -0.11    179.35   
   130. D(H  27,C   2,C   1,C   0)   -179.93 -0.000029    0.05   -179.89   
   131. D(H   9,C   3,C   2,C   1)   -179.70  0.000049   -0.09   -179.79   
   132. D(H   9,C   3,C   2,H  27)      0.07  0.000042   -0.09     -0.02   
   133. D(C   4,C   3,C   2,C   1)      0.11  0.000073   -0.15     -0.04   
   134. D(C   4,C   3,C   2,H  27)    179.88  0.000066   -0.15    179.73   
   135. D(H  28,C   4,C   3,C   2)   -179.89 -0.000034    0.08   -179.82   
   136. D(C   5,C   4,C   3,C   2)      0.14 -0.000023    0.06      0.20   
   137. D(H  28,C   4,C   3,H   9)     -0.08 -0.000010    0.02     -0.06   
   138. D(C   5,C   4,C   3,H   9)    179.96  0.000000    0.00    179.96   
   139. D(H   8,C   5,C   0,C   6)     -2.24 -0.000062    0.12     -2.11   
   140. D(C   0,C   5,C   4,C   3)     -0.35 -0.000063    0.14     -0.22   
   141. D(H   8,C   5,C   4,H  28)      0.21 -0.000035    0.07      0.28   
   142. D(H   8,C   5,C   4,C   3)   -179.82 -0.000046    0.08   -179.74   
   143. D(C   0,C   5,C   4,H  28)    179.68 -0.000053    0.12    179.80   
   144. D(C   4,C   5,C   0,C   6)    178.30 -0.000042    0.07    178.37   
   145. D(C   4,C   5,C   0,C   1)      0.30  0.000100   -0.24      0.06   
   146. D(H   8,C   5,C   0,C   1)    179.77  0.000080   -0.18    179.58   
   147. D(O  18,C   6,C   0,C   5)     26.93  0.000024    0.53     27.46   
   148. D(H  25,C   6,C   0,C   1)    -38.32 -0.000159    0.80    -37.52   
   149. D(H  25,C   6,C   0,C   5)    143.66 -0.000048    0.50    144.16   
   150. D(O  18,C   6,C   0,C   1)   -155.05 -0.000087    0.83   -154.22   
   151. D(N  10,C   6,C   0,C   1)     81.65 -0.000325    0.84     82.49   
   152. D(N  10,C   6,C   0,C   5)    -96.36 -0.000214    0.54    -95.83   
   153. D(C  11,N  10,C   6,C   0)   -173.67 -0.000359    0.39   -173.27   
   154. D(H  12,N  10,C   6,O  18)    -63.06 -0.000138    0.22    -62.84   
   155. D(H  12,N  10,C   6,C   0)     63.24  0.000079    0.25     63.49   
   156. D(H  26,N  10,C   6,H  25)     67.82 -0.000168    0.26     68.09   
   157. D(H  12,N  10,C   6,H  25)   -178.53  0.000008    0.28   -178.25   
   158. D(H  26,N  10,C   6,O  18)   -176.71 -0.000315    0.20   -176.51   
   159. D(H  26,N  10,C   6,C   0)    -50.40 -0.000098    0.23    -50.17   
   160. D(C  11,N  10,C   6,H  25)    -55.44 -0.000430    0.43    -55.01   
   161. D(C  11,N  10,C   6,O  18)     60.03 -0.000577    0.37     60.40   
   162. D(H  15,C  11,N  10,H  12)    -29.49 -0.000002   -0.39    -29.88   
   163. D(H  15,C  11,N  10,C   6)   -157.21  0.000204   -0.45   -157.66   
   164. D(H  14,C  11,N  10,H  12)     86.53 -0.000021   -0.40     86.14   
   165. D(H  14,C  11,N  10,H  26)   -163.89 -0.000034   -0.35   -164.24   
   166. D(H  14,C  11,N  10,C   6)    -41.19  0.000184   -0.46    -41.65   
   167. D(C  13,C  11,N  10,H  12)   -150.99  0.000228   -0.54   -151.54   
   168. D(H  15,C  11,N  10,H  26)     80.09 -0.000015   -0.34     79.75   
   169. D(C  13,C  11,N  10,H  26)    -41.41  0.000215   -0.50    -41.91   
   170. D(C  13,C  11,N  10,C   6)     81.29  0.000433   -0.61     80.68   
   171. D(H  23,H  12,N  10,C  11)    -92.50 -0.000375    0.07    -92.43   
   172. D(H  26,H  12,N  10,C   6)   -117.30  0.000136   -0.09   -117.39   
   173. D(H  26,H  12,N  10,C  11)    114.74 -0.000263    0.04    114.78   
   174. D(H  23,H  12,N  10,C   6)     35.46  0.000024   -0.06     35.40   
   175. D(H  23,H  12,N  10,H  26)    152.76 -0.000113    0.03    152.79   
   176. D(C  29,C  13,C  11,H  15)     59.57  0.000136   -0.21     59.36   
   177. D(C  29,C  13,C  11,H  14)    -59.70 -0.000043   -0.13    -59.83   
   178. D(C  29,C  13,C  11,N  10)    179.74 -0.000095   -0.04    179.70   
   179. D(H  17,C  13,C  11,H  15)   -179.24  0.000230   -0.26   -179.49   
   180. D(H  17,C  13,C  11,H  14)     61.49  0.000051   -0.18     61.31   
   181. D(H  17,C  13,C  11,N  10)    -59.07 -0.000002   -0.09    -59.16   
   182. D(H  16,C  13,C  11,H  15)    -61.48  0.000133   -0.22    -61.69   
   183. D(H  16,C  13,C  11,N  10)     58.69 -0.000099   -0.05     58.64   
   184. D(H  16,C  13,C  11,H  14)    179.25 -0.000046   -0.14    179.11   
   185. D(H  20,O  18,C   6,C   0)    -59.91  0.000335   -0.23    -60.14   
   186. D(H  20,O  18,C   6,H  25)   -178.92  0.000016   -0.17   -179.09   
   187. D(H  20,O  18,C   6,N  10)     61.45 -0.000134   -0.09     61.36   
   188. D(H  23,H  20,O  19,H  21)   -109.02  0.000004   -0.03   -109.05   
   189. D(O  18,H  20,O  19,H  23)     96.63  0.000097    0.00     96.63   
   190. D(O  18,H  20,O  19,H  21)    -12.38  0.000101   -0.03    -12.41   
   191. D(H  23,H  20,O  18,C   6)    -44.39  0.000290   -0.03    -44.42   
   192. D(O  19,H  20,O  18,C   6)   -125.95  0.000241    0.00   -125.94   
   193. D(H  24,O  22,H  12,H  23)   -108.12  0.000149   -0.07   -108.20   
   194. D(H  24,O  22,H  12,H  26)     39.16  0.000056   -0.06     39.10   
   195. D(H  23,O  22,N  10,H  26)    153.17 -0.000194    0.07    153.24   
   196. D(H  23,O  22,N  10,C  11)    -91.45 -0.000460    0.10    -91.35   
   197. D(H  23,O  22,N  10,C   6)     35.87 -0.000082    0.00     35.88   
   198. D(H  24,O  22,N  10,H  26)     45.81 -0.000030   -0.01     45.80   
   199. D(H  24,O  22,N  10,C  11)    161.19 -0.000296    0.02    161.22   
   200. D(H  23,O  22,H  12,H  26)    147.29 -0.000092    0.02    147.30   
   201. D(H  24,O  22,N  10,C   6)    -71.48  0.000082   -0.08    -71.56   
   202. D(H  24,H  23,O  22,H  12)   -107.65  0.000007   -0.11   -107.76   
   203. D(H  20,H  23,O  22,H  24)     98.71 -0.000058    0.14     98.84   
   204. D(H  20,H  23,O  22,H  12)     -8.94 -0.000052    0.03     -8.91   
   205. D(O  19,H  23,O  22,H  24)     85.55 -0.000085    0.15     85.70   
   206. D(O  19,H  23,O  22,H  12)    -22.10 -0.000078    0.04    -22.06   
   207. D(H  24,H  23,H  20,O  19)   -149.41  0.000083   -0.13   -149.54   
   208. D(O  22,H  23,H  20,O  19)   -176.01  0.000024   -0.01   -176.02   
   209. D(O  22,H  23,H  20,O  18)     20.97  0.000073   -0.00     20.97   
   210. D(H  12,H  23,H  20,O  19)    179.54  0.000021    0.00    179.55   
   211. D(H  12,H  23,H  20,O  18)     16.53  0.000070    0.01     16.54   
   212. D(O  19,H  23,H  20,O  18)   -163.01  0.000049    0.00   -163.01   
   213. D(H  24,H  23,O  19,H  20)     73.11 -0.000032   -0.04     73.08   
   214. D(H  24,H  23,O  19,H  21)   -177.06 -0.000218    0.01   -177.05   
   215. D(O  22,H  23,O  19,H  20)     14.98  0.000044   -0.03     14.94   
   216. D(O  22,H  23,O  19,H  21)    124.81 -0.000143    0.01    124.82   
   217. D(H  20,H  23,O  19,H  21)    109.83 -0.000187    0.05    109.88   
   218. D(H  12,H  23,O  19,H  20)     -0.66  0.000029    0.01     -0.65   
   219. D(H  12,H  23,O  19,H  21)    109.17 -0.000158    0.06    109.23   
   220. D(H  24,H  23,H  12,H  26)   -123.49  0.000089   -0.33   -123.82   
   221. D(H  24,H  23,H  12,N  10)   -142.90 -0.000017   -0.03   -142.94   
   222. D(H  24,H  23,H  12,O  22)     35.79  0.000136   -0.11     35.68   
   223. D(O  22,H  23,H  12,H  26)   -159.28 -0.000047   -0.22   -159.50   
   224. D(H  24,H  23,H  20,O  18)     47.58  0.000132   -0.13     47.45   
   225. D(O  22,H  23,H  12,N  10)   -178.69 -0.000153    0.08   -178.61   
   226. D(H  20,H  23,H  12,H  26)     12.19 -0.000086   -0.21     11.98   
   227. D(H  20,H  23,H  12,N  10)     -7.22 -0.000192    0.09     -7.13   
   228. D(H  12,H  23,O  22,H  24)    107.65 -0.000007    0.11    107.76   
   229. D(H  20,H  23,H  12,O  22)    171.47 -0.000039    0.01    171.48   
   230. D(O  19,H  23,H  12,H  26)     12.75 -0.000111   -0.21     12.53   
   231. D(O  19,H  23,H  12,N  10)     -6.67 -0.000218    0.08     -6.58   
   232. D(O  19,H  23,H  12,O  22)    172.03 -0.000064    0.00    172.03   
   233. D(O  22,H  24,H  23,H  20)    -90.81 -0.000109    0.27    -90.54   
   234. D(O  22,H  24,H  23,H  12)    -43.01  0.000152    0.02    -42.99   
   235. D(O  22,H  24,H  23,O  19)   -149.34  0.000004    0.15   -149.18   
   236. D(H  23,H  24,O  22,H  12)     97.92  0.000060   -0.06     97.87   
   237. D(N  10,H  26,H  12,H  23)    -39.96 -0.000150    0.26    -39.70   
   238. D(N  10,H  26,H  12,O  22)   -173.20 -0.000110    0.05   -173.15   
   239. D(H  12,H  26,N  10,C  11)   -111.90  0.000702   -0.24   -112.14   
   240. D(H  12,H  26,N  10,C   6)    121.60 -0.000119    0.07    121.67   
   241. D(C  32,C  29,C  13,H  16)    -59.39 -0.000042    0.14    -59.25   
   242. D(C  32,C  29,C  13,C  11)    179.78 -0.000022    0.12    179.90   
   243. D(H  31,C  29,C  13,H  17)    179.69 -0.000115    0.18    179.86   
   244. D(H  31,C  29,C  13,H  16)     61.85 -0.000111    0.17     62.02   
   245. D(H  31,C  29,C  13,C  11)    -58.98 -0.000091    0.15    -58.83   
   246. D(H  30,C  29,C  13,H  17)    -62.71  0.000058    0.08    -62.63   
   247. D(H  30,C  29,C  13,H  16)    179.45  0.000062    0.07    179.52   
   248. D(C  32,C  29,C  13,H  17)     58.45 -0.000046    0.15     58.59   
   249. D(H  30,C  29,C  13,C  11)     58.62  0.000081    0.05     58.67   
   250. D(H  35,C  32,C  29,H  31)    179.29  0.000162   -0.14    179.15   
   251. D(H  35,C  32,C  29,H  30)     61.33 -0.000020   -0.04     61.29   
   252. D(H  35,C  32,C  29,C  13)    -59.62  0.000117   -0.12    -59.74   
   253. D(H  34,C  32,C  29,H  31)     59.26  0.000100   -0.11     59.16   
   254. D(H  34,C  32,C  29,H  30)    -58.69 -0.000082   -0.01    -58.70   
   255. D(H  34,C  32,C  29,C  13)   -179.65  0.000055   -0.09   -179.74   
   256. D(H  33,C  32,C  29,H  31)    -60.86  0.000002   -0.06    -60.92   
   257. D(H  33,C  32,C  29,H  30)   -178.82 -0.000179    0.04   -178.78   
   258. D(H  33,C  32,C  29,C  13)     60.23 -0.000042   -0.04     60.19   
    ----------------------------------------------------------------------------

         *************************************************************
         *                GEOMETRY OPTIMIZATION CYCLE   2            *
         *************************************************************
      -----------------------------------------------------------      
     |                   =====================                   |     
     |                           x T B                           |     
     |                   =====================                   |     
     |                         S. Grimme                         |     
     |          Mulliken Center for Theoretical Chemistry        |     
     |                    University of Bonn                     |     
      -----------------------------------------------------------      

   * xtb version 6.3.0 (49875a8) compiled by 'schneider@apollo14' on 2020-05-23

   xtb is free software: you can redistribute it and/or modify it under
   the terms of the GNU Lesser General Public License as published by
   the Free Software Foundation, either version 3 of the License, or
   (at your option) any later version.
   
   xtb is distributed in the hope that it will be useful,
   but WITHOUT ANY WARRANTY; without even the implied warranty of
   MERCHANTABILITY or FITNESS FOR A PARTICULAR PURPOSE.  See the
   GNU Lesser General Public License for more details.
   
   Cite this work as:
   * S. Grimme, C. Bannwarth, P. Shushkov, J. Chem. Theory Comput., 2017,
     13, 1989-2009. DOI: 10.1021/acs.jctc.7b00118
   * C. Bannwarth, S. Ehlert and S. Grimme., J. Chem. Theory Comput., 2019,
     15, 1652-1671. DOI: 10.1021/acs.jctc.8b01176
   * P. Pracht, E. Caldeweyher, S. Ehlert, S. Grimme, ChemRxiv, 2019, preprint.
     DOI: 10.26434/chemrxiv.8326202.v1
   
   for GFN-FF:
   * S. Spicher and S. Grimme, Angew. Chem. Int. Ed., 2020,
     DOI: 10.1002/anie.202004239
   
   for DFT-D4:
   * E. Caldeweyher, C. Bannwarth and S. Grimme, J. Chem. Phys., 2017,
     147, 034112. DOI: 10.1063/1.4993215
   * E. Caldeweyher, S. Ehlert, A. Hansen, H. Neugebauer, S. Spicher,
     C. Bannwarth and S. Grimme, J. Chem. Phys., 2019, 150, 154122.
     DOI: 10.1063/1.5090222
   
   for sTDA-xTB:
   * S. Grimme and C. Bannwarth, J. Chem. Phys., 2016, 145, 054103.
     DOI: 10.1063/1.4959605
   
   in the mass-spec context:
   * V. Asgeirsson, C. Bauer and S. Grimme, Chem. Sci., 2017, 8, 4879.
     DOI: 10.1039/c7sc00601b
   * J. Koopman and S. Grimme, ACS Omega 2019, 4, 12, 15120-15133.
     DOI: 10.1021/acsomega.9b02011
   
   for metadynamics refer to:
   * S. Grimme, J. Chem. Theory Comput., 2019, 155, 2847-2862
     DOI: 10.1021/acs.jctc.9b00143
   
   with help from (in alphabetical order)
   C. Bannwarth, F. Bohle, G. Brandenburg, E. Caldeweyher, M. Checinski,
   S. Dohm, S. Ehlert, S. Ehrlich, F. März, H. Neugebauer, J. Pisarek,
   P. Pracht, P. Shushkov, and S. Spicher.
   
 * started run on 2020/06/24 at 15:32:31.051     

           -------------------------------------------------
          |                Calculation Setup                |
           -------------------------------------------------

          program call               : /opt/orca/otool_xtb opt+freq_XTB.xyz --grad -c 0 -u 0 -P 12 --namespace opt+freq --gbsa CH2Cl2
          calculation namespace      : opt+freq
          coordinate file            : opt+freq_XTB.xyz
          number of atoms            :                    36
          number of electrons        :                    88
          charge                     :                     0
          spin                       :                   0.0
          first test random number   :      0.67854162311419

   ID    Z sym.   atoms
    1    6 C      1-7, 12, 14, 30, 33
    2    1 H      8-10, 13, 15-18, 21, 22, 24-29, 31, 32, 34-36
    3    7 N      11
    4    8 O      19, 20, 23

molecular fragmentation (1/2 indicates fragments):
111111111111211111121222211111111111
# atoms in fragment 1/2:    30     6
 fragment masses (1/2) :      179.26       36.03
CMA distance (Bohr)    :   6.584
constraining FC (au)   :  0.0500
########################################################################
[WARNING] Please study the warnings concerning your input carefully
-1- prog_main_parseArguments: Process number higher than OMP_NUM_THREADS, I hope you know what you are doing.
########################################################################
 Solvent             : CH2Cl2
 Using internal parameter file: .param_gbsa2_CH2Cl2
 Gsolv ref. state (COSMO-RS): gsolv [1 M gas/solution]
 temperature (mdtemp)       :    298.14999999999998     
 dielectric constant        :    8.9299999999999997     
 rho                        :    1.3300000000000003     
 mass                       :    84.930000000000007     
 surface tension            :    15.568945408385856     
 probe radius               :   0.71987590000000001     
 Gshift (Eh)                :    4.4408291734517593E-003
 c1                         :    1.4917377599999999     
 soset                      :    0.0000000000000000     
 HB correction              :  F

           -------------------------------------------------
          |                 G F N 2 - x T B                 |
           -------------------------------------------------

        Reference                      10.1021/acs.jctc.8b01176
      * Hamiltonian:
        H0-scaling (s, p, d)           1.850000    2.230000    2.230000
        zeta-weighting                 0.500000
      * Dispersion:
        s8                             2.700000
        a1                             0.520000
        a2                             5.000000
        s9                             5.000000
      * Repulsion:
        kExp                           1.500000    1.000000
        rExp                           1.000000
      * Coulomb:
        alpha                          2.000000
        third order                    shell-resolved
        anisotropic                    true
        a3                             3.000000
        a5                             4.000000
        cn-shift                       1.200000
        cn-exp                         4.000000
        max-rad                        5.000000


          ...................................................
          :                      SETUP                      :
          :.................................................:
          :  # basis functions                  81          :
          :  # atomic orbitals                  81          :
          :  # shells                           51          :
          :  # electrons                        88          :
          :  max. iterations                   250          :
          :  Hamiltonian                  GFN2-xTB          :
          :  restarted?                      false          :
          :  GBSA solvation                   true          :
          :  PC potential                    false          :
          :  electronic temp.          300.0000000     K    :
          :  accuracy                    1.0000000          :
          :  -> integral cutoff          0.2500000E+02      :
          :  -> integral neglect         0.1000000E-07      :
          :  -> SCF convergence          0.1000000E-05 Eh   :
          :  -> wf. convergence          0.1000000E-03 e    :
          :  Broyden damping             0.4000000          :
          ...................................................

 iter      E             dE          RMSdq      gap      omega  full diag
   1    -49.9653912 -0.499654E+02  0.385E+00    3.88       0.0  T
   2    -50.0060419 -0.406507E-01  0.224E+00    4.19       1.0  T
   3    -50.0053418  0.700135E-03  0.627E-01    4.17       1.0  T
   4    -50.0078605 -0.251870E-02  0.228E-01    4.17       1.0  T
   5    -50.0093583 -0.149779E-02  0.692E-02    4.17       1.0  T
   6    -50.0093749 -0.166261E-04  0.299E-02    4.18       1.0  T
   7    -50.0093770 -0.205911E-05  0.117E-02    4.18       1.4  T
   8    -50.0093789 -0.193951E-05  0.414E-03    4.18       4.0  T
   9    -50.0093790 -0.116317E-06  0.210E-03    4.18       7.9  T
  10    -50.0093790 -0.144596E-07  0.834E-04    4.18      20.0  T
  11    -50.0093790 -0.656092E-08  0.346E-04    4.18      48.2  T

   *** convergence criteria satisfied after 11 iterations ***

         #    Occupation            Energy/Eh            Energy/eV
      -------------------------------------------------------------
         1        2.0000           -0.6929924             -18.8573
       ...           ...                  ...                  ...
        38        2.0000           -0.4390704             -11.9477
        39        2.0000           -0.4286643             -11.6645
        40        2.0000           -0.4263194             -11.6007
        41        2.0000           -0.4136191             -11.2551
        42        2.0000           -0.4101902             -11.1618
        43        2.0000           -0.4078936             -11.0993
        44        2.0000           -0.3853325             -10.4854 (HOMO)
        45                         -0.2316558              -6.3037 (LUMO)
        46                         -0.2287382              -6.2243
        47                         -0.1024657              -2.7882
        48                          0.0031356               0.0853
        49                          0.0331284               0.9015
       ...                                ...                  ...
        81                          0.6586062              17.9216
      -------------------------------------------------------------
                  HL-Gap            0.1536766 Eh            4.1818 eV
             Fermi-level           -0.3084942 Eh           -8.3946 eV

 SCC (total)                   0 d,  0 h,  0 min,  0.162 sec
 SCC setup                      ...        0 min,  0.001 sec (  0.860%)
[...]
     74      -0.000478  -0.005066   0.008124  -0.000978   0.423663   0.073807
     75      -0.000224  -0.000157   0.000161   0.001941  -0.000299  -0.000160
     76      -0.001045   0.020307   0.011340  -0.001619  -0.000237   0.000094
     77       0.000429  -0.015284  -0.006627   0.003799   0.000078   0.000027
     78       0.001037   0.004731  -0.001653  -0.495574  -0.001079  -0.000602
     79      -0.000912  -0.003847   0.002318   0.704791   0.002091   0.001129
     80      -0.000444  -0.005168   0.003128   0.501864   0.000649   0.000521
     81       0.019801  -0.006616  -0.002679   0.001275  -0.000035   0.000172
     82      -0.027473   0.008990   0.003668  -0.001335   0.000008  -0.000261
     83      -0.001137   0.000383   0.000231  -0.000138   0.000033   0.000012
     84       0.079097  -0.001335  -0.000480   0.000662  -0.000004  -0.000177
     85       0.199483  -0.002339   0.000030   0.001182  -0.000024  -0.000465
     86      -0.046970   0.000612   0.000211  -0.000388   0.000067   0.000128
     87       0.000026  -0.000078   0.000022   0.000022   0.000009   0.000015
     88      -0.000024   0.000143   0.000008  -0.000096  -0.000013  -0.000013
     89      -0.000000   0.000072  -0.000009  -0.000003   0.000006  -0.000002
     90      -0.000175   0.000722  -0.000061  -0.000765  -0.000096  -0.000121
     91       0.000258  -0.001334  -0.000034   0.000223   0.000130   0.000097
     92       0.000319  -0.001422  -0.000093   0.000817   0.000137   0.000122
     93      -0.000123   0.000042  -0.000182  -0.000266  -0.000100  -0.000072
     94       0.000029  -0.000004  -0.000054  -0.000024   0.000036   0.000009
     95      -0.000304   0.000413   0.000129  -0.000426  -0.000195  -0.000083
     96       0.000000   0.000031   0.000051   0.000015   0.000002   0.000002
     97       0.000025  -0.000082  -0.000021   0.000018  -0.000011  -0.000001
     98      -0.000015   0.000116   0.000011  -0.000027   0.000003  -0.000001
     99       0.000166  -0.000562  -0.000232  -0.000023  -0.000021  -0.000010
    100      -0.000195   0.000630   0.000285   0.000105   0.000075   0.000036
    101      -0.000225   0.000752   0.000337   0.000068   0.000027   0.000010
    102      -0.000381   0.001522  -0.000060  -0.000757   0.000039  -0.000038
    103      -0.000065   0.000324  -0.000063  -0.000326   0.000054  -0.000009
    104       0.000029  -0.000196   0.000034   0.000099  -0.000018   0.000007
    105       0.000231  -0.001055  -0.000322   0.000178  -0.000018  -0.000001
    106      -0.000060   0.000300   0.000089  -0.000094   0.000048   0.000010
    107       0.000388  -0.001978  -0.000539   0.000265  -0.000053   0.000005


-----------
IR SPECTRUM  
-----------

 Mode    freq (cm**-1)   T**2         TX         TY         TZ
-------------------------------------------------------------------
   6:        25.17    0.000000  (  0.000000   0.000000   0.000000)
   7:        35.95    0.000000  (  0.000000   0.000000   0.000000)
   8:        45.64    0.000000  (  0.000000   0.000000   0.000000)
   9:        54.37    0.000000  (  0.000000   0.000000   0.000000)
  10:        59.69    0.000000  (  0.000000   0.000000   0.000000)
  11:        69.82    0.000000  (  0.000000   0.000000   0.000000)
  12:        96.98    0.000000  (  0.000000   0.000000   0.000000)
  13:       101.04    0.000000  (  0.000000   0.000000   0.000000)
  14:       126.99    0.000000  (  0.000000   0.000000   0.000000)
  15:       167.04    0.000000  (  0.000000   0.000000   0.000000)
  16:       172.39    0.000000  (  0.000000   0.000000   0.000000)
  17:       219.86    0.000000  (  0.000000   0.000000   0.000000)
  18:       229.18    0.000000  (  0.000000   0.000000   0.000000)
  19:       234.47    0.000000  (  0.000000   0.000000   0.000000)
  20:       244.24    0.000000  (  0.000000   0.000000   0.000000)
  21:       256.32    0.000000  (  0.000000   0.000000   0.000000)
  22:       269.63    0.000000  (  0.000000   0.000000   0.000000)
  23:       280.92    0.000000  (  0.000000   0.000000   0.000000)
  24:       289.89    0.000000  (  0.000000   0.000000   0.000000)
  25:       362.10    0.000000  (  0.000000   0.000000   0.000000)
  26:       368.33    0.000000  (  0.000000   0.000000   0.000000)
  27:       392.13    0.000000  (  0.000000   0.000000   0.000000)
  28:       419.25    0.000000  (  0.000000   0.000000   0.000000)
  29:       444.15    0.000000  (  0.000000   0.000000   0.000000)
  30:       466.10    0.000000  (  0.000000   0.000000   0.000000)
  31:       523.04    0.000000  (  0.000000   0.000000   0.000000)
  32:       541.29    0.000000  (  0.000000   0.000000   0.000000)
  33:       589.45    0.000000  (  0.000000   0.000000   0.000000)
  34:       618.96    0.000000  (  0.000000   0.000000   0.000000)
  35:       631.89    0.000000  (  0.000000   0.000000   0.000000)
  36:       674.88    0.000000  (  0.000000   0.000000   0.000000)
  37:       683.92    0.000000  (  0.000000   0.000000   0.000000)
  38:       755.55    0.000000  (  0.000000   0.000000   0.000000)
  39:       773.14    0.000000  (  0.000000   0.000000   0.000000)
  40:       808.37    0.000000  (  0.000000   0.000000   0.000000)
  41:       816.49    0.000000  (  0.000000   0.000000   0.000000)
  42:       841.57    0.000000  (  0.000000   0.000000   0.000000)
  43:       883.36    0.000000  (  0.000000   0.000000   0.000000)
  44:       885.40    0.000000  (  0.000000   0.000000   0.000000)
  45:       907.09    0.000000  (  0.000000   0.000000   0.000000)
  46:       931.49    0.000000  (  0.000000   0.000000   0.000000)
  47:       934.82    0.000000  (  0.000000   0.000000   0.000000)
  48:       939.54    0.000000  (  0.000000   0.000000   0.000000)
  49:       948.87    0.000000  (  0.000000   0.000000   0.000000)
  50:       974.83    0.000000  (  0.000000   0.000000   0.000000)
  51:       991.56    0.000000  (  0.000000   0.000000   0.000000)
  52:      1050.91    0.000000  (  0.000000   0.000000   0.000000)
  53:      1077.41    0.000000  (  0.000000   0.000000   0.000000)
  54:      1087.81    0.000000  (  0.000000   0.000000   0.000000)
  55:      1098.52    0.000000  (  0.000000   0.000000   0.000000)
  56:      1110.83    0.000000  (  0.000000   0.000000   0.000000)
  57:      1127.29    0.000000  (  0.000000   0.000000   0.000000)
  58:      1130.89    0.000000  (  0.000000   0.000000   0.000000)
  59:      1157.87    0.000000  (  0.000000   0.000000   0.000000)
  60:      1182.14    0.000000  (  0.000000   0.000000   0.000000)
  61:      1196.37    0.000000  (  0.000000   0.000000   0.000000)
  62:      1213.91    0.000000  (  0.000000   0.000000   0.000000)
  63:      1220.12    0.000000  (  0.000000   0.000000   0.000000)
  64:      1245.57    0.000000  (  0.000000   0.000000   0.000000)
  65:      1264.52    0.000000  (  0.000000   0.000000   0.000000)
  66:      1267.99    0.000000  (  0.000000   0.000000   0.000000)
  67:      1281.58    0.000000  (  0.000000   0.000000   0.000000)
  68:      1284.29    0.000000  (  0.000000   0.000000   0.000000)
  69:      1293.26    0.000000  (  0.000000   0.000000   0.000000)
  70:      1322.51    0.000000  (  0.000000   0.000000   0.000000)
  71:      1334.53    0.000000  (  0.000000   0.000000   0.000000)
  72:      1359.49    0.000000  (  0.000000   0.000000   0.000000)
  73:      1367.92    0.000000  (  0.000000   0.000000   0.000000)
  74:      1377.19    0.000000  (  0.000000   0.000000   0.000000)
  75:      1414.01    0.000000  (  0.000000   0.000000   0.000000)
  76:      1436.39    0.000000  (  0.000000   0.000000   0.000000)
  77:      1470.38    0.000000  (  0.000000   0.000000   0.000000)
  78:      1474.77    0.000000  (  0.000000   0.000000   0.000000)
  79:      1489.55    0.000000  (  0.000000   0.000000   0.000000)
  80:      1495.04    0.000000  (  0.000000   0.000000   0.000000)
  81:      1501.10    0.000000  (  0.000000   0.000000   0.000000)
  82:      1503.92    0.000000  (  0.000000   0.000000   0.000000)
  83:      1514.52    0.000000  (  0.000000   0.000000   0.000000)
  84:      1530.05    0.000000  (  0.000000   0.000000   0.000000)
  85:      1591.59    0.000000  (  0.000000   0.000000   0.000000)
  86:      1599.99    0.000000  (  0.000000   0.000000   0.000000)
  87:      2818.03    0.000000  (  0.000000   0.000000   0.000000)
  88:      2943.23    0.000000  (  0.000000   0.000000   0.000000)
  89:      2949.51    0.000000  (  0.000000   0.000000   0.000000)
  90:      2965.81    0.000000  (  0.000000   0.000000   0.000000)
  91:      2972.50    0.000000  (  0.000000   0.000000   0.000000)
  92:      2979.93    0.000000  (  0.000000   0.000000   0.000000)
  93:      2985.11    0.000000  (  0.000000   0.000000   0.000000)
  94:      3019.92    0.000000  (  0.000000   0.000000   0.000000)
  95:      3024.15    0.000000  (  0.000000   0.000000   0.000000)
  96:      3027.61    0.000000  (  0.000000   0.000000   0.000000)
  97:      3035.49    0.000000  (  0.000000   0.000000   0.000000)
  98:      3059.51    0.000000  (  0.000000   0.000000   0.000000)
  99:      3074.54    0.000000  (  0.000000   0.000000   0.000000)
 100:      3081.00    0.000000  (  0.000000   0.000000   0.000000)
 101:      3090.57    0.000000  (  0.000000   0.000000   0.000000)
 102:      3108.20    0.000000  (  0.000000   0.000000   0.000000)
 103:      3158.77    0.000000  (  0.000000   0.000000   0.000000)
 104:      3204.97    0.000000  (  0.000000   0.000000   0.000000)
 105:      3341.28    0.000000  (  0.000000   0.000000   0.000000)
 106:      3627.80    0.000000  (  0.000000   0.000000   0.000000)
 107:      3635.49    0.000000  (  0.000000   0.000000   0.000000)

The first frequency considered to be a vibration is 6
The total number of vibrations considered is 102


--------------------------
THERMOCHEMISTRY AT 298.15K
--------------------------

Temperature         ... 298.15 K
Pressure            ... 1.00 atm
Total Mass          ... 215.29 AMU

Throughout the following assumptions are being made:
  (1) The electronic state is orbitally nondegenerate
  (2) There are no thermally accessible electronically excited states
  (3) Hindered rotations indicated by low frequency modes are not
      treated as such but are treated as vibrations and this may
      cause some error
  (4) All equations used are the standard statistical mechanics
      equations for an ideal gas
  (5) All vibrations are strictly harmonic

freq.      25.17  E(vib)   ...       0.56 
freq.      35.95  E(vib)   ...       0.54 
freq.      45.64  E(vib)   ...       0.53 
freq.      54.37  E(vib)   ...       0.52 
freq.      59.69  E(vib)   ...       0.51 
freq.      69.82  E(vib)   ...       0.50 
freq.      96.98  E(vib)   ...       0.46 
freq.     101.04  E(vib)   ...       0.46 
freq.     126.99  E(vib)   ...       0.43 
freq.     167.04  E(vib)   ...       0.39 
freq.     172.39  E(vib)   ...       0.38 
freq.     219.86  E(vib)   ...       0.33 
freq.     229.18  E(vib)   ...       0.32 
freq.     234.47  E(vib)   ...       0.32 
freq.     244.24  E(vib)   ...       0.31 
freq.     256.32  E(vib)   ...       0.30 
freq.     269.63  E(vib)   ...       0.29 
freq.     280.92  E(vib)   ...       0.28 
freq.     289.89  E(vib)   ...       0.27 
freq.     362.10  E(vib)   ...       0.22 
freq.     368.33  E(vib)   ...       0.21 
freq.     392.13  E(vib)   ...       0.20 
freq.     419.25  E(vib)   ...       0.18 
freq.     444.15  E(vib)   ...       0.17 
freq.     466.10  E(vib)   ...       0.16 
freq.     523.04  E(vib)   ...       0.13 
freq.     541.29  E(vib)   ...       0.12 
freq.     589.45  E(vib)   ...       0.10 
freq.     618.96  E(vib)   ...       0.09 
freq.     631.89  E(vib)   ...       0.09 
freq.     674.88  E(vib)   ...       0.08 
freq.     683.92  E(vib)   ...       0.07 
freq.     755.55  E(vib)   ...       0.06 
freq.     773.14  E(vib)   ...       0.05 
freq.     808.37  E(vib)   ...       0.05 
freq.     816.49  E(vib)   ...       0.05 
freq.     841.57  E(vib)   ...       0.04 
freq.     883.36  E(vib)   ...       0.04 
freq.     885.40  E(vib)   ...       0.04 
freq.     907.09  E(vib)   ...       0.03 
freq.     931.49  E(vib)   ...       0.03 
freq.     934.82  E(vib)   ...       0.03 
freq.     939.54  E(vib)   ...       0.03 
freq.     948.87  E(vib)   ...       0.03 
freq.     974.83  E(vib)   ...       0.03 
freq.     991.56  E(vib)   ...       0.02 
freq.    1050.91  E(vib)   ...       0.02 
freq.    1077.41  E(vib)   ...       0.02 
freq.    1087.81  E(vib)   ...       0.02 
freq.    1098.52  E(vib)   ...       0.02 
freq.    1110.83  E(vib)   ...       0.01 
freq.    1127.29  E(vib)   ...       0.01 
freq.    1130.89  E(vib)   ...       0.01 
freq.    1157.87  E(vib)   ...       0.01 
freq.    1182.14  E(vib)   ...       0.01 
freq.    1196.37  E(vib)   ...       0.01 
freq.    1213.91  E(vib)   ...       0.01 
freq.    1220.12  E(vib)   ...       0.01 
freq.    1245.57  E(vib)   ...       0.01 
freq.    1264.52  E(vib)   ...       0.01 
freq.    1267.99  E(vib)   ...       0.01 
freq.    1281.58  E(vib)   ...       0.01 
freq.    1284.29  E(vib)   ...       0.01 
freq.    1293.26  E(vib)   ...       0.01 
freq.    1322.51  E(vib)   ...       0.01 
freq.    1334.53  E(vib)   ...       0.01 
freq.    1359.49  E(vib)   ...       0.01 
freq.    1367.92  E(vib)   ...       0.01 
freq.    1377.19  E(vib)   ...       0.01 
freq.    1414.01  E(vib)   ...       0.00 
freq.    1436.39  E(vib)   ...       0.00 
freq.    1470.38  E(vib)   ...       0.00 
freq.    1474.77  E(vib)   ...       0.00 
freq.    1489.55  E(vib)   ...       0.00 
freq.    1495.04  E(vib)   ...       0.00 
freq.    1501.10  E(vib)   ...       0.00 
freq.    1503.92  E(vib)   ...       0.00 
freq.    1514.52  E(vib)   ...       0.00 
freq.    1530.05  E(vib)   ...       0.00 
freq.    1591.59  E(vib)   ...       0.00 
freq.    1599.99  E(vib)   ...       0.00 
freq.    2818.03  E(vib)   ...       0.00 
freq.    2943.23  E(vib)   ...       0.00 
freq.    2949.51  E(vib)   ...       0.00 
freq.    2965.81  E(vib)   ...       0.00 
freq.    2972.50  E(vib)   ...       0.00 
freq.    2979.93  E(vib)   ...       0.00 
freq.    2985.11  E(vib)   ...       0.00 
freq.    3019.92  E(vib)   ...       0.00 
freq.    3024.15  E(vib)   ...       0.00 
freq.    3027.61  E(vib)   ...       0.00 
freq.    3035.49  E(vib)   ...       0.00 
freq.    3059.51  E(vib)   ...       0.00 
freq.    3074.54  E(vib)   ...       0.00 
freq.    3081.00  E(vib)   ...       0.00 
freq.    3090.57  E(vib)   ...       0.00 
freq.    3108.20  E(vib)   ...       0.00 
freq.    3158.77  E(vib)   ...       0.00 
freq.    3204.97  E(vib)   ...       0.00 
freq.    3341.28  E(vib)   ...       0.00 
freq.    3627.80  E(vib)   ...       0.00 
freq.    3635.49  E(vib)   ...       0.00 

------------
INNER ENERGY
------------

The inner energy is: U= E(el) + E(ZPE) + E(vib) + E(rot) + E(trans)
    E(el)   - is the total energy from the electronic structure calculation
              = E(kin-el) + E(nuc-el) + E(el-el) + E(nuc-nuc)
    E(ZPE)  - the the zero temperature vibrational energy from the frequency calculation
    E(vib)  - the the finite temperature correction to E(ZPE) due to population
              of excited vibrational states
    E(rot)  - is the rotational thermal energy
    E(trans)- is the translational thermal energy

Summary of contributions to the inner energy U:
Electronic energy                ...    -49.39055546 Eh
Zero point energy                ...      0.30359956 Eh     190.51 kcal/mol
Thermal vibrational correction   ...      0.01646642 Eh      10.33 kcal/mol
Thermal rotational correction    ...      0.00141627 Eh       0.89 kcal/mol
Thermal translational correction ...      0.00141627 Eh       0.89 kcal/mol
-----------------------------------------------------------------------
Total thermal energy                    -49.06765694 Eh


Summary of corrections to the electronic energy:
(perhaps to be used in another calculation)
Total thermal correction                  0.01929896 Eh      12.11 kcal/mol
Non-thermal (ZPE) correction              0.30359956 Eh     190.51 kcal/mol
-----------------------------------------------------------------------
Total correction                          0.32289852 Eh     202.62 kcal/mol


--------
ENTHALPY
--------

The enthalpy is H = U + kB*T
                kB is Boltzmann's constant
Total free energy                 ...    -49.06765694 Eh 
Thermal Enthalpy correction       ...      0.00094421 Eh       0.59 kcal/mol
-----------------------------------------------------------------------
Total Enthalpy                    ...    -49.06671273 Eh


Note: Only C1 symmetry has been detected, increase convergence thresholds 
      if your molecule has a higher symmetry. Symmetry factor of 1.0 is   
      used for the rotational entropy correction. 
 

Note: Rotational entropy computed according to Herzberg 
Infrared and Raman Spectra, Chapter V,1, Van Nostrand Reinhold, 1945 
Point Group:  C1, Symmetry Number:   1  
Rotational constants in cm-1:     0.024599     0.009774     0.007941 

Vibrational entropy computed according to the QRRHO of S. Grimme
Chem.Eur.J. 2012 18 9955


-------
ENTROPY
-------

The entropy contributions are T*S = T*(S(el)+S(vib)+S(rot)+S(trans))
     S(el)   - electronic entropy
     S(vib)  - vibrational entropy
     S(rot)  - rotational entropy
     S(trans)- translational entropy
The entropies will be listed as mutliplied by the temperature to get
units of energy

Electronic entropy                ...      0.00000000 Eh      0.00 kcal/mol
Vibrational entropy               ...      0.02953187 Eh     18.53 kcal/mol
Rotational entropy                ...      0.01572770 Eh      9.87 kcal/mol
Translational entropy             ...      0.01995728 Eh     12.52 kcal/mol
-----------------------------------------------------------------------
Final entropy term                ...      0.06521685 Eh     40.92 kcal/mol

In case the symmetry of your molecule has not been determined correctly
or in case you have a reason to use a different symmetry number we print 
out the resulting rotational entropy values for sn=1,12 :
 --------------------------------------------------------
|  sn= 1 | S(rot)=       0.01572770 Eh      9.87 kcal/mol|
|  sn= 2 | S(rot)=       0.01507324 Eh      9.46 kcal/mol|
|  sn= 3 | S(rot)=       0.01469041 Eh      9.22 kcal/mol|
|  sn= 4 | S(rot)=       0.01441878 Eh      9.05 kcal/mol|
|  sn= 5 | S(rot)=       0.01420809 Eh      8.92 kcal/mol|
|  sn= 6 | S(rot)=       0.01403595 Eh      8.81 kcal/mol|
|  sn= 7 | S(rot)=       0.01389040 Eh      8.72 kcal/mol|
|  sn= 8 | S(rot)=       0.01376433 Eh      8.64 kcal/mol|
|  sn= 9 | S(rot)=       0.01365312 Eh      8.57 kcal/mol|
|  sn=10 | S(rot)=       0.01355364 Eh      8.51 kcal/mol|
|  sn=11 | S(rot)=       0.01346365 Eh      8.45 kcal/mol|
|  sn=12 | S(rot)=       0.01338149 Eh      8.40 kcal/mol|
 --------------------------------------------------------


-------------------
GIBBS FREE ENERGY
-------------------

The Gibbs free energy is G = H - T*S

Total enthalpy                    ...    -49.06671273 Eh 
Total entropy correction          ...     -0.06521685 Eh    -40.92 kcal/mol
-----------------------------------------------------------------------
Final Gibbs free energy         ...    -49.13192958 Eh

For completeness - the Gibbs free energy minus the electronic energy
G-E(el)                           ...      0.25862588 Eh    162.29 kcal/mol


Total Time for Numerical Frequencies  :       101.562 sec

Timings for individual modules:

Sum of individual times         ...        9.422 sec (=   0.157 min)
Geometry relaxation             ...        5.583 sec (=   0.093 min)  59.3 %
XTB module                      ...        3.839 sec (=   0.064 min)  40.7 %
                             ****ORCA TERMINATED NORMALLY****
TOTAL RUN TIME: 0 days 0 hours 1 minutes 55 seconds 764 msec
