
                                 *****************
                                 * O   R   C   A *
                                 *****************

           --- An Ab Initio, DFT and Semiempirical electronic structure package ---

                  #######################################################
                  #                        -***-                        #
                  #          Department of theory and spectroscopy      #
                  #               Directorship: Frank Neese             #
                  #        Max Planck Institute fuer Kohlenforschung    #
                  #                Kaiser Wilhelm Platz 1               #
                  #                 D-45470 Muelheim/Ruhr               #
                  #                      Germany                        #
                  #                                                     #
                  #                  All rights reserved                #
                  #                        -***-                        #
                  #######################################################


                         Program Version 4.2.1 -  RELEASE  -


 With contributions from (in alphabetic order):
   Daniel Aravena         : Magnetic Suceptibility
   Michael Atanasov       : Ab Initio Ligand Field Theory (pilot matlab implementation)
   Alexander A. Auer      : GIAO ZORA, VPT2
   Ute Becker             : Parallelization
   Giovanni Bistoni       : ED, misc. LED, open-shell LED, HFLD
   Martin Brehm           : Molecular dynamics
   Dmytro Bykov           : SCF Hessian
   Vijay G. Chilkuri      : MRCI spin determinant printing, contributions to CSF-ICE
   Dipayan Datta          : RHF DLPNO-CCSD density
   Achintya Kumar Dutta   : EOM-CC, STEOM-CC
   Dmitry Ganyushin       : Spin-Orbit,Spin-Spin,Magnetic field MRCI
   Miquel Garcia          : C-PCM Hessian, Gaussian charge scheme
   Yang Guo               : DLPNO-NEVPT2, CIM, IAO-localization
   Andreas Hansen         : Spin unrestricted coupled pair/coupled cluster methods
   Benjamin Helmich-Paris : CASSCF linear response (MC-RPA)
   Lee Huntington         : MR-EOM, pCC
   Robert Izsak           : Overlap fitted RIJCOSX, COSX-SCS-MP3, EOM
   Christian Kollmar      : KDIIS, OOCD, Brueckner-CCSD(T), CCSD density
   Simone Kossmann        : Meta GGA functionals, TD-DFT gradient, OOMP2, MP2 Hessian
   Martin Krupicka        : AUTO-CI
   Lucas Lang             : DCDCAS
   Dagmar Lenk            : GEPOL surface, SMD
   Dimitrios Liakos       : Extrapolation schemes; Compound Job, initial MDCI parallelization
   Dimitrios Manganas     : Further ROCIS development; embedding schemes
   Dimitrios Pantazis     : SARC Basis sets
   Taras Petrenko         : DFT Hessian,TD-DFT gradient, ASA, ECA, R-Raman, ABS, FL, XAS/XES, NRVS
   Peter Pinski           : DLPNO-MP2, DLPNO-MP2 Gradient
   Christoph Reimann      : Effective Core Potentials
   Marius Retegan         : Local ZFS, SOC
   Christoph Riplinger    : Optimizer, TS searches, QM/MM, DLPNO-CCSD(T), (RO)-DLPNO pert. Triples
   Tobias Risthaus        : Range-separated hybrids, TD-DFT gradient, RPA, STAB
   Michael Roemelt        : Original ROCIS implementation
   Masaaki Saitow         : Open-shell DLPNO-CCSD energy and density
   Barbara Sandhoefer     : DKH picture change effects
   Avijit Sen             : IP-ROCIS
   Kantharuban Sivalingam : CASSCF convergence, NEVPT2, FIC-MRCI
   Bernardo de Souza      : ESD, SOC TD-DFT
   Georgi Stoychev        : AutoAux, RI-MP2 NMR
   Willem Van den Heuvel  : Paramagnetic NMR
   Boris Wezisla          : Elementary symmetry handling
   Frank Wennmohs         : Technical directorship


 We gratefully acknowledge several colleagues who have allowed us to
 interface, adapt or use parts of their codes:
   Stefan Grimme, W. Hujo, H. Kruse,             : VdW corrections, initial TS optimization,
                  C. Bannwarth                     DFT functionals, gCP, sTDA/sTD-DF
   Ed Valeev, F. Pavosevic, A. Kumar             : LibInt (2-el integral package), F12 methods
   Garnet Chan, S. Sharma, J. Yang, R. Olivares  : DMRG
   Ulf Ekstrom                                   : XCFun DFT Library
   Mihaly Kallay                                 : mrcc  (arbitrary order and MRCC methods)
   Andreas Klamt, Michael Diedenhofen            : otool_cosmo (COSMO solvation model)
   Jiri Pittner, Ondrej Demel                    : Mk-CCSD
   Frank Weinhold                                : gennbo (NPA and NBO analysis)
   Christopher J. Cramer and Donald G. Truhlar   : smd solvation model
   Lars Goerigk                                  : TD-DFT with DH, B97 family of functionals
   V. Asgeirsson, H. Jonsson                     : NEB implementation
   FAccTs GmbH                                   : IRC, NEB, NEB-TS, Multilevel, MM, QM/MM, CI optimization
   S Lehtola, MJT Oliveira, MAL Marques          : LibXC Library


 Your calculation uses the libint2 library for the computation of 2-el integrals
 For citations please refer to: http://libint.valeyev.net

 Your ORCA version has been built with support for libXC version: 4.2.3
 For citations please refer to: https://tddft.org/programs/libxc/

 This ORCA versions uses:
   CBLAS   interface :  Fast vector & matrix operations
   LAPACKE interface :  Fast linear algebra routines
   SCALAPACK package :  Parallel linear algebra routines




***************************************
The coordinates will be read from file: init.xyz
***************************************


Your calculation utilizes the SMD solvation module
Please cite in your paper:
A.V. Marenich, C.J. Cramer, D.G. Truhlar J. Phys. Chem. B, 113, (2009), 6378 

Your calculation utilizes the semiempirical GFN2-xTB method
Please cite in your paper:
C. Bannwarth, Ehlert S., S. Grimme,  J. Chem. Theory Comput., 15, (2019), 1652.
   

----- Orbital basis set information -----
Your calculation utilizes the basis: def2-SVP
   F. Weigend and R. Ahlrichs, Phys. Chem. Chem. Phys. 7, 3297 (2005).

================================================================================
                                        WARNINGS
                       Please study these warnings very carefully!
================================================================================


WARNING: The environment variable RSH_COMMAND is not set!
  ===> : All Displacements for the Numerical Hessian calculation
         will be started on localhost

WARNING: Geometry Optimization
  ===> : Switching off AutoStart
         For restart on a previous wavefunction, please use MOREAD

WARNING: Found dipole moment calculation with XTB calculation
  ===> : Switching off dipole moment calculation


INFO   : the flag for use of LIBINT has been found!

================================================================================
                                       INPUT FILE
================================================================================
NAME = opt+freq.inp
|  1> ! XTB2 Opt NumFreq
|  2> 
|  3> %cpcm
|  4>  smd true
|  5>  smdsolvent "ch2cl2"
|  6> end
|  7> 
|  8> %pal
|  9>  nprocs 12
| 10> end
| 11> 
| 12> *xyzfile 0 1 init.xyz
| 13> 
| 14> 
| 15>                          ****END OF INPUT****
================================================================================

                       *****************************
                       * Geometry Optimization Run *
                       *****************************

Geometry optimization settings:
Update method            Update   .... BFGS
Choice of coordinates    CoordSys .... Z-matrix Internals
Initial Hessian          InHess   .... Almoef's Model

Convergence Tolerances:
Energy Change            TolE     ....  5.0000e-06 Eh
Max. Gradient            TolMAXG  ....  3.0000e-04 Eh/bohr
RMS Gradient             TolRMSG  ....  1.0000e-04 Eh/bohr
Max. Displacement        TolMAXD  ....  4.0000e-03 bohr
RMS Displacement         TolRMSD  ....  2.0000e-03 bohr
Strict Convergence                ....  False
------------------------------------------------------------------------------
                        ORCA OPTIMIZATION COORDINATE SETUP
------------------------------------------------------------------------------

The optimization will be done in new redundant internal coordinates
Making redundant internal coordinates   ...  (new redundants) done
Evaluating the initial hessian          ...  (Almloef) done
Evaluating the coordinates              ...  done
Calculating the B-matrix                .... done
Calculating the G-matrix                .... done
Diagonalizing the G-matrix              .... done
Small eigenvalue found = 4.200e-03
Small eigenvalue found = 1.350e-02
Small eigenvalue found = 2.003e-02
Small eigenvalue found = 2.997e-02
The first mode is                       ....  101
The number of degrees of freedom        ....   93

    -----------------------------------------------------------------
                    Redundant Internal Coordinates


    -----------------------------------------------------------------
         Definition                    Initial Value    Approx d2E/dq
    -----------------------------------------------------------------
      1. B(C   1,C   0)                  1.3921         0.619919   
      2. B(C   2,C   1)                  1.3931         0.617619   
      3. B(C   3,C   2)                  1.3955         0.612210   
      4. B(C   4,C   3)                  1.3896         0.625622   
      5. B(C   5,C   0)                  1.3905         0.623705   
      6. B(C   5,C   4)                  1.3926         0.618890   
      7. B(H   6,C   1)                  1.0833         0.369127   
      8. B(H   7,C   3)                  1.0815         0.371516   
      9. B(H   8,C   5)                  1.0821         0.370651   
     10. B(H  10,N   9)                  1.8571         0.019261   
     11. B(C  11,N   9)                  1.4719         0.414208   
     12. B(H  12,C  11)                  1.0928         0.356445   
     13. B(H  13,C  11)                  1.0910         0.358767   
     14. B(H  14,N   9)                  1.0134         0.427291   
     15. B(H  16,H  10)                  1.9520         0.002906   
     16. B(C  17,N   9)                  1.4689         0.418857   
     17. B(C  17,C   2)                  1.5174         0.391236   
     18. B(H  18,C  17)                  1.0933         0.355703   
     19. B(O  19,C  17)                  1.4194         0.502232   
     20. B(O  19,H  16)                  0.9722         0.497155   
     21. B(C  20,C  11)                  1.5287         0.375382   
     22. B(H  21,C  20)                  1.0933         0.355736   
     23. B(H  22,C  20)                  1.0951         0.353383   
     24. B(O  23,H  15)                  0.9642         0.511947   
     25. B(O  23,H  10)                  0.9879         0.469310   
     26. B(O  23,H  16)                  2.0083         0.011055   
     27. B(C  24,C  20)                  1.5285         0.375573   
     28. B(H  25,C  24)                  1.0944         0.354272   
     29. B(H  26,C  24)                  1.0942         0.354645   
     30. B(H  27,C   0)                  1.0823         0.370419   
     31. B(H  28,C   4)                  1.0823         0.370379   
     32. B(C  29,C  24)                  1.5270         0.377691   
     33. B(H  30,C  29)                  1.0926         0.356667   
     34. B(H  31,C  29)                  1.0917         0.357828   
     35. B(H  32,C  29)                  1.0927         0.356591   
     36. A(C   1,C   0,C   5)          119.9860         0.434521   
     37. A(C   1,C   0,H  27)          119.8930         0.354594   
     38. A(C   5,C   0,H  27)          120.1206         0.354960   
     39. A(C   2,C   1,H   6)          119.5105         0.354161   
     40. A(C   0,C   1,H   6)          119.8753         0.354384   
     41. A(C   0,C   1,C   2)          120.6134         0.433755   
     42. A(C   1,C   2,C  17)          119.9356         0.399647   
     43. A(C   1,C   2,C   3)          119.1076         0.432780   
     44. A(C   3,C   2,C  17)          120.9455         0.399029   
     45. A(C   2,C   3,C   4)          120.3698         0.433784   
     46. A(C   4,C   3,H   7)          119.5643         0.355323   
     47. A(C   2,C   3,H   7)          120.0659         0.354020   
     48. A(C   5,C   4,H  28)          120.0509         0.354488   
     49. A(C   3,C   4,C   5)          120.2398         0.434631   
     50. A(C   3,C   4,H  28)          119.7093         0.355139   
     51. A(C   0,C   5,H   8)          120.2134         0.354998   
     52. A(C   0,C   5,C   4)          119.6835         0.434392   
     53. A(C   4,C   5,H   8)          120.1028         0.354532   
     54. A(H  10,N   9,C  11)          105.6493         0.210699   
     55. A(C  11,N   9,H  14)          110.4542         0.334439   
     56. A(H  10,N   9,C  17)          102.2595         0.211006   
     57. A(H  14,N   9,C  17)          109.8476         0.335060   
     58. A(H  10,N   9,H  14)          113.4273         0.194633   
     59. A(C  11,N   9,C  17)          114.9951         0.372482   
     60. A(N   9,H  10,H  16)           78.8085         0.116618   
     61. A(N   9,H  10,O  23)          157.5472         0.196900   
     62. A(H  16,H  10,O  23)           78.7398         0.145894   
     63. A(H  12,C  11,H  13)          106.7460         0.290205   
     64. A(N   9,C  11,H  13)          107.2256         0.327700   
     65. A(N   9,C  11,C  20)          115.2593         0.367832   
     66. A(H  13,C  11,C  20)          110.3329         0.324378   
     67. A(N   9,C  11,H  12)          107.6440         0.327350   
     68. A(H  12,C  11,C  20)          109.2664         0.324033   
     69. A(O  19,H  16,O  23)          152.4407         0.185407   
     70. A(H  10,H  16,O  19)          123.6548         0.146641   
     71. A(H  10,H  16,O  23)           28.8455         0.113356   
     72. A(H  18,C  17,O  19)          104.4648         0.337858   
     73. A(N   9,C  17,O  19)          109.5483         0.385120   
     74. A(C   2,C  17,O  19)          113.4275         0.383002   
     75. A(N   9,C  17,H  18)          111.7321         0.327840   
     76. A(C   2,C  17,H  18)          108.4051         0.326132   
     77. A(C   2,C  17,N   9)          109.2277         0.371167   
     78. A(H  16,O  19,C  17)          107.9105         0.354320   
     79. A(C  11,C  20,H  21)          109.8709         0.323927   
     80. A(H  22,C  20,C  24)          109.5697         0.323601   
     81. A(H  21,C  20,C  24)          109.2918         0.323954   
     82. A(C  11,C  20,C  24)          112.4621         0.363983   
     83. A(H  21,C  20,H  22)          106.6737         0.289427   
     84. A(C  11,C  20,H  22)          108.8039         0.323574   
     85. A(H  15,O  23,H  16)          109.0058         0.186048   
     86. A(H  10,O  23,H  16)           72.4147         0.184157   
     87. A(H  10,O  23,H  15)          105.4872         0.315697   
     88. A(H  26,C  24,C  29)          109.5450         0.324090   
     89. A(H  25,C  24,C  29)          109.4300         0.324034   
     90. A(C  20,C  24,C  29)          112.9875         0.364365   
     91. A(H  25,C  24,H  26)          106.3001         0.289402   
     92. A(C  20,C  24,H  26)          109.1231         0.323791   
     93. A(C  20,C  24,H  25)          109.2344         0.323735   
     94. A(H  31,C  29,H  32)          107.6986         0.290104   
     95. A(H  30,C  29,H  32)          107.6311         0.289956   
     96. A(C  24,C  29,H  32)          111.1296         0.324381   
     97. A(H  30,C  29,H  31)          107.7237         0.290114   
     98. A(C  24,C  29,H  31)          111.4415         0.324565   
     99. A(C  24,C  29,H  30)          111.0397         0.324392   
    100. D(H   6,C   1,C   0,C   5)    179.6552         0.026592   
    101. D(C   2,C   1,C   0,C   5)     -0.0210         0.026592   
    102. D(C   2,C   1,C   0,H  27)   -179.7683         0.026592   
    103. D(H   6,C   1,C   0,H  27)     -0.0921         0.026592   
    104. D(C   3,C   2,C   1,C   0)      0.0634         0.026383   
    105. D(C  17,C   2,C   1,C   0)   -178.7222         0.026383   
    106. D(C  17,C   2,C   1,H   6)      1.6004         0.026383   
    107. D(C   3,C   2,C   1,H   6)   -179.6140         0.026383   
    108. D(H   7,C   3,C   2,C  17)     -1.2910         0.025896   
    109. D(H   7,C   3,C   2,C   1)    179.9360         0.025896   
    110. D(C   4,C   3,C   2,C   1)     -0.0498         0.025896   
    111. D(C   4,C   3,C   2,C  17)    178.7232         0.025896   
    112. D(C   5,C   4,C   3,H   7)   -179.9920         0.027114   
    113. D(C   5,C   4,C   3,C   2)     -0.0061         0.027114   
    114. D(H  28,C   4,C   3,H   7)     -0.0456         0.027114   
    115. D(H  28,C   4,C   3,C   2)    179.9403         0.027114   
    116. D(H   8,C   5,C   4,H  28)     -0.1194         0.026498   
    117. D(C   0,C   5,C   4,H  28)   -179.8972         0.026498   
    118. D(C   0,C   5,C   4,C   3)      0.0491         0.026498   
    119. D(H   8,C   5,C   0,H  27)     -0.0663         0.026938   
    120. D(H   8,C   5,C   0,C   1)   -179.8130         0.026938   
    121. D(H   8,C   5,C   4,C   3)    179.8268         0.026498   
    122. D(C   4,C   5,C   0,C   1)     -0.0356         0.026938   
    123. D(C   4,C   5,C   0,H  27)    179.7112         0.026938   
    124. D(H  16,H  10,N   9,C  17)     21.2635         0.001737   
    125. D(H  16,H  10,N   9,H  14)    139.4806         0.001737   
    126. D(H  16,H  10,N   9,C  11)    -99.3949         0.001737   
    127. D(O  23,H  10,N   9,C  11)    -99.9680         0.001737   
    128. D(O  23,H  10,N   9,H  14)    138.9075         0.001737   
    129. D(O  23,H  10,N   9,C  17)     20.6905         0.001737   
    130. D(H  12,C  11,N   9,H  14)     73.1606         0.015671   
    131. D(C  20,C  11,N   9,C  17)     75.9653         0.015671   
    132. D(C  20,C  11,N   9,H  14)    -49.0429         0.015671   
    133. D(H  13,C  11,N   9,H  10)     64.6548         0.015671   
    134. D(H  13,C  11,N   9,C  17)    -47.3016         0.015671   
    135. D(H  13,C  11,N   9,H  14)   -172.3098         0.015671   
    136. D(H  12,C  11,N   9,H  10)    -49.8748         0.015671   
    137. D(C  20,C  11,N   9,H  10)   -172.0783         0.015671   
    138. D(H  12,C  11,N   9,C  17)   -161.8312         0.015671   
    139. D(O  23,H  16,H  10,N   9)   -179.7768         0.001584   
    140. D(O  19,H  16,H  10,N   9)      3.0259         0.001584   
    141. D(O  19,H  16,H  10,O  23)   -177.1973         0.001584   
    142. D(O  19,C  17,N   9,H  10)    -40.5186         0.016025   
    143. D(O  19,C  17,N   9,H  14)   -161.2486         0.016025   
    144. D(H  18,C  17,N   9,H  10)   -155.7879         0.016025   
    145. D(H  18,C  17,N   9,H  14)     83.4820         0.016025   
    146. D(H  18,C  17,N   9,C  11)    -41.8421         0.016025   
    147. D(C   2,C  17,N   9,H  10)     84.2786         0.016025   
    148. D(C   2,C  17,N   9,H  14)    -36.4515         0.016025   
    149. D(C   2,C  17,N   9,C  11)   -161.7756         0.016025   
    150. D(O  19,C  17,C   2,C   3)     50.2522         0.011384   
    151. D(H  18,C  17,C   2,C   3)    165.7889         0.011384   
    152. D(H  18,C  17,C   2,C   1)    -15.4483         0.011384   
    153. D(O  19,C  17,N   9,C  11)     73.4272         0.016025   
    154. D(N   9,C  17,C   2,C   3)    -72.2502         0.011384   
    155. D(O  19,C  17,C   2,C   1)   -130.9849         0.011384   
    156. D(N   9,C  17,C   2,C   1)    106.5126         0.011384   
    157. D(H  16,O  19,C  17,H  18)    165.0585         0.019947   
    158. D(H  16,O  19,C  17,N   9)     45.2322         0.019947   
    159. D(H  16,O  19,C  17,C   2)    -77.0926         0.019947   
    160. D(C  17,O  19,H  16,O  23)    -30.1729         0.308007   
    161. D(C  17,O  19,H  16,H  10)    -27.2502         0.308007   
    162. D(H  21,C  20,C  11,N   9)    -57.8043         0.011246   
    163. D(C  24,C  20,C  11,H  12)     58.8909         0.011246   
    164. D(C  24,C  20,C  11,N   9)   -179.7800         0.011246   
    165. D(H  22,C  20,C  11,H  13)   -179.7544         0.011246   
    166. D(H  22,C  20,C  11,H  12)    -62.6875         0.011246   
    167. D(H  22,C  20,C  11,N   9)     58.6416         0.011246   
    168. D(H  21,C  20,C  11,H  13)     63.7997         0.011246   
    169. D(C  24,C  20,C  11,H  13)    -58.1760         0.011246   
    170. D(H  21,C  20,C  11,H  12)   -179.1333         0.011246   
    171. D(H  15,O  23,H  16,H  10)   -100.7835         0.001570   
    172. D(H  15,O  23,H  16,O  19)    -95.7366         0.001570   
    173. D(H  10,O  23,H  16,O  19)      5.0469         0.001570   
    174. D(H  16,O  23,H  10,N   9)      0.5732         0.294633   
    175. D(H  15,O  23,H  10,H  16)    105.4669         0.294633   
    176. D(H  15,O  23,H  10,N   9)    106.0402         0.294633   
    177. D(C  29,C  24,C  20,H  22)    -57.1081         0.011256   
    178. D(C  29,C  24,C  20,H  21)     59.4471         0.011256   
    179. D(C  29,C  24,C  20,C  11)   -178.2493         0.011256   
    180. D(H  26,C  24,C  20,H  22)   -179.2299         0.011256   
    181. D(H  26,C  24,C  20,H  21)    -62.6747         0.011256   
    182. D(H  26,C  24,C  20,C  11)     59.6289         0.011256   
    183. D(H  25,C  24,C  20,H  22)     64.9464         0.011256   
    184. D(H  25,C  24,C  20,H  21)   -178.4983         0.011256   
    185. D(H  25,C  24,C  20,C  11)    -56.1947         0.011256   
    186. D(H  32,C  29,C  24,H  25)    178.2994         0.011377   
    187. D(H  32,C  29,C  24,C  20)    -59.7559         0.011377   
    188. D(H  31,C  29,C  24,H  26)    -57.9988         0.011377   
    189. D(H  31,C  29,C  24,H  25)     58.1715         0.011377   
    190. D(H  31,C  29,C  24,C  20)   -179.8837         0.011377   
    191. D(H  30,C  29,C  24,H  26)   -178.0976         0.011377   
    192. D(H  30,C  29,C  24,H  25)    -61.9273         0.011377   
    193. D(H  32,C  29,C  24,H  26)     62.1291         0.011377   
    194. D(H  30,C  29,C  24,C  20)     60.0175         0.011377   
    -----------------------------------------------------------------

Number of atoms                         .... 33
Number of degrees of freedom            .... 194

         *************************************************************
         *                GEOMETRY OPTIMIZATION CYCLE   1            *
         *************************************************************
      -----------------------------------------------------------      
     |                   =====================                   |     
     |                           x T B                           |     
     |                   =====================                   |     
     |                         S. Grimme                         |     
     |          Mulliken Center for Theoretical Chemistry        |     
     |                    University of Bonn                     |     
      -----------------------------------------------------------      

   * xtb version 6.3.0 (49875a8) compiled by 'schneider@apollo14' on 2020-05-23

   xtb is free software: you can redistribute it and/or modify it under
   the terms of the GNU Lesser General Public License as published by
   the Free Software Foundation, either version 3 of the License, or
   (at your option) any later version.
   
   xtb is distributed in the hope that it will be useful,
   but WITHOUT ANY WARRANTY; without even the implied warranty of
   MERCHANTABILITY or FITNESS FOR A PARTICULAR PURPOSE.  See the
   GNU Lesser General Public License for more details.
   
   Cite this work as:
   * S. Grimme, C. Bannwarth, P. Shushkov, J. Chem. Theory Comput., 2017,
     13, 1989-2009. DOI: 10.1021/acs.jctc.7b00118
   * C. Bannwarth, S. Ehlert and S. Grimme., J. Chem. Theory Comput., 2019,
     15, 1652-1671. DOI: 10.1021/acs.jctc.8b01176
   * P. Pracht, E. Caldeweyher, S. Ehlert, S. Grimme, ChemRxiv, 2019, preprint.
     DOI: 10.26434/chemrxiv.8326202.v1
   
   for GFN-FF:
   * S. Spicher and S. Grimme, Angew. Chem. Int. Ed., 2020,
     DOI: 10.1002/anie.202004239
   
   for DFT-D4:
   * E. Caldeweyher, C. Bannwarth and S. Grimme, J. Chem. Phys., 2017,
     147, 034112. DOI: 10.1063/1.4993215
   * E. Caldeweyher, S. Ehlert, A. Hansen, H. Neugebauer, S. Spicher,
     C. Bannwarth and S. Grimme, J. Chem. Phys., 2019, 150, 154122.
     DOI: 10.1063/1.5090222
   
   for sTDA-xTB:
   * S. Grimme and C. Bannwarth, J. Chem. Phys., 2016, 145, 054103.
     DOI: 10.1063/1.4959605
   
   in the mass-spec context:
   * V. Asgeirsson, C. Bauer and S. Grimme, Chem. Sci., 2017, 8, 4879.
     DOI: 10.1039/c7sc00601b
   * J. Koopman and S. Grimme, ACS Omega 2019, 4, 12, 15120-15133.
     DOI: 10.1021/acsomega.9b02011
   
   for metadynamics refer to:
   * S. Grimme, J. Chem. Theory Comput., 2019, 155, 2847-2862
     DOI: 10.1021/acs.jctc.9b00143
   
   with help from (in alphabetical order)
   C. Bannwarth, F. Bohle, G. Brandenburg, E. Caldeweyher, M. Checinski,
   S. Dohm, S. Ehlert, S. Ehrlich, F. März, H. Neugebauer, J. Pisarek,
   P. Pracht, P. Shushkov, and S. Spicher.
   
 * started run on 2020/06/19 at 17:44:47.334     

           -------------------------------------------------
          |                Calculation Setup                |
           -------------------------------------------------

          program call               : /opt/orca/otool_xtb opt+freq_XTB.xyz --grad -c 0 -u 0 -P 12 --namespace opt+freq --gbsa CH2Cl2
          calculation namespace      : opt+freq
          coordinate file            : opt+freq_XTB.xyz
          number of atoms            :                    33
          number of electrons        :                    80
          charge                     :                     0
          spin                       :                   0.0
          first test random number   :      0.69970862674061

   ID    Z sym.   atoms
    1    6 C      1-6, 12, 18, 21, 25, 30
    2    1 H      7-9, 11, 13-17, 19, 22, 23, 26-29, 31-33
    3    7 N      10
    4    8 O      20, 24

molecular fragmentation (1/2 indicates fragments):
111111111121111211111112111111111
# atoms in fragment 1/2:    30     3
 fragment masses (1/2) :      179.26       18.02
CMA distance (Bohr)    :   6.791
constraining FC (au)   :  0.0500
########################################################################
[WARNING] Please study the warnings concerning your input carefully
-1- prog_main_parseArguments: Process number higher than OMP_NUM_THREADS, I hope you know what you are doing.
########################################################################
 Solvent             : CH2Cl2
 Using internal parameter file: .param_gbsa2_CH2Cl2
 Gsolv ref. state (COSMO-RS): gsolv [1 M gas/solution]
 temperature (mdtemp)       :    298.14999999999998     
 dielectric constant        :    8.9299999999999997     
 rho                        :    1.3300000000000003     
 mass                       :    84.930000000000007     
 surface tension            :    15.568945408385856     
 probe radius               :   0.71987590000000001     
 Gshift (Eh)                :    4.4408291734517593E-003
 c1                         :    1.4917377599999999     
 soset                      :    0.0000000000000000     
 HB correction              :  F

           -------------------------------------------------
          |                 G F N 2 - x T B                 |
           -------------------------------------------------

        Reference                      10.1021/acs.jctc.8b01176
      * Hamiltonian:
        H0-scaling (s, p, d)           1.850000    2.230000    2.230000
        zeta-weighting                 0.500000
      * Dispersion:
        s8                             2.700000
        a1                             0.520000
        a2                             5.000000
        s9                             5.000000
      * Repulsion:
        kExp                           1.500000    1.000000
        rExp                           1.000000
      * Coulomb:
        alpha                          2.000000
        third order                    shell-resolved
        anisotropic                    true
        a3                             3.000000
        a5                             4.000000
        cn-shift                       1.200000
        cn-exp                         4.000000
        max-rad                        5.000000


          ...................................................
          :                      SETUP                      :
          :.................................................:
          :  # basis functions                  75          :
          :  # atomic orbitals                  75          :
          :  # shells                           47          :
          :  # electrons                        80          :
          :  max. iterations                   250          :
          :  Hamiltonian                  GFN2-xTB          :
          :  restarted?                      false          :
          :  GBSA solvation                   true          :
          :  PC potential                    false          :
          :  electronic temp.          300.0000000     K    :
          :  accuracy                    1.0000000          :
          :  -> integral cutoff          0.2500000E+02      :
          :  -> integral neglect         0.1000000E-07      :
          :  -> SCF convergence          0.1000000E-05 Eh   :
          :  -> wf. convergence          0.1000000E-03 e    :
          :  Broyden damping             0.4000000          :
          ...................................................

 iter      E             dE          RMSdq      gap      omega  full diag
   1    -44.8347607 -0.448348E+02  0.345E+00    3.81       0.0  T
   2    -44.8768270 -0.420663E-01  0.195E+00    4.19       1.0  T
   3    -44.8765911  0.235951E-03  0.652E-01    4.20       1.0  T
   4    -44.8783341 -0.174308E-02  0.242E-01    4.22       1.0  T
   5    -44.8800347 -0.170052E-02  0.672E-02    4.21       1.0  T
   6    -44.8800504 -0.157594E-04  0.284E-02    4.22       1.0  T
   7    -44.8800512 -0.821442E-06  0.106E-02    4.22       1.6  T
   8    -44.8800530 -0.176161E-05  0.365E-03    4.22       4.8  T
   9    -44.8800531 -0.101602E-06  0.183E-03    4.22       9.5  T
  10    -44.8800531 -0.989684E-08  0.725E-04    4.22      24.0  T
  11    -44.8800531 -0.461621E-08  0.297E-04    4.22      58.6  T

   *** convergence criteria satisfied after 11 iterations ***

         #    Occupation            Energy/Eh            Energy/eV
      -------------------------------------------------------------
         1        2.0000           -0.6933833             -18.8679
       ...           ...                  ...                  ...
        34        2.0000           -0.4412807             -12.0079
        35        2.0000           -0.4290401             -11.6748
        36        2.0000           -0.4252305             -11.5711
        37        2.0000           -0.4132426             -11.2449
        38        2.0000           -0.4077654             -11.0959
        39        2.0000           -0.4061573             -11.0521
        40        2.0000           -0.3870408             -10.5319 (HOMO)
        41                         -0.2319479              -6.3116 (LUMO)
        42                         -0.2285684              -6.2197
        43                         -0.1049144              -2.8549
        44                         -0.0068925              -0.1876
        45                          0.0434300               1.1818
       ...                                ...                  ...
        75                          0.6419960              17.4696
      -------------------------------------------------------------
                  HL-Gap            0.1550930 Eh            4.2203 eV
             Fermi-level           -0.3094943 Eh           -8.4218 eV

 SCC (total)                   0 d,  0 h,  0 min,  0.089 sec
 SCC setup                      ...        0 min,  0.002 sec (  1.691%)
 Dispersion                     ...        0 min,  0.000 sec (  0.501%)
 classical contributions        ...        0 min,  0.000 sec (  0.181%)
 integral evaluation            ...        0 min,  0.016 sec ( 18.289%)
 iterations                     ...        0 min,  0.040 sec ( 44.307%)
 molecular gradient             ...        0 min,  0.028 sec ( 31.636%)
 printout                       ...        0 min,  0.003 sec (  3.373%)

         :::::::::::::::::::::::::::::::::::::::::::::::::::::
         ::                     SUMMARY                     ::
         :::::::::::::::::::::::::::::::::::::::::::::::::::::
         :: total energy             -44.300126495801 Eh    ::
         :: total w/o Gsasa/hb       -44.283504352001 Eh    ::
         :: gradient norm              0.024944762112 Eh/a0 ::
         :: HOMO-LUMO gap              4.220294631260 eV    ::
         ::.................................................::
         :: SCC energy               -44.896675252932 Eh    ::
         :: -> isotropic ES            0.075037900460 Eh    ::
         :: -> anisotropic ES         -0.000174608511 Eh    ::
         :: -> anisotropic XC          0.021851086981 Eh    ::
         :: -> dispersion             -0.026502857908 Eh    ::
         :: -> Gsolv                  -0.021950167359 Eh    ::
         ::    -> Gborn               -0.005328023559 Eh    ::
         ::    -> Gsasa               -0.021062972973 Eh    ::
         ::    -> Ghb                  0.000000000000 Eh    ::
         ::    -> Gshift               0.004440829173 Eh    ::
         :: repulsion energy           0.596488252483 Eh    ::
         :: add. restraining           0.000000000000 Eh    ::
         :::::::::::::::::::::::::::::::::::::::::::::::::::::

           -------------------------------------------------
          |                Property Printout                |
           -------------------------------------------------

    * Orbital Energies and Occupations

         #    Occupation            Energy/Eh            Energy/eV
      -------------------------------------------------------------
         1        2.0000           -0.6933833             -18.8679
       ...           ...                  ...                  ...
        28        2.0000           -0.4733211             -12.8797
        29        2.0000           -0.4713572             -12.8263
        30        2.0000           -0.4600656             -12.5190
        31        2.0000           -0.4486971             -12.2097
        32        2.0000           -0.4452710             -12.1164
        33        2.0000           -0.4442665             -12.0891
        34        2.0000           -0.4412807             -12.0079
        35        2.0000           -0.4290401             -11.6748
        36        2.0000           -0.4252305             -11.5711
        37        2.0000           -0.4132426             -11.2449
        38        2.0000           -0.4077654             -11.0959
        39        2.0000           -0.4061573             -11.0521
        40        2.0000           -0.3870408             -10.5319 (HOMO)
        41                         -0.2319479              -6.3116 (LUMO)
        42                         -0.2285684              -6.2197
        43                         -0.1049144              -2.8549
        44                         -0.0068925              -0.1876
        45                          0.0434300               1.1818
        46                          0.0619991               1.6871
        47                          0.0734507               1.9987
        48                          0.0816412               2.2216
        49                          0.0994584               2.7064
        50                          0.1047930               2.8516
        51                          0.1190931               3.2407
       ...                                ...                  ...
        75                          0.6419960              17.4696
      -------------------------------------------------------------
                  HL-Gap            0.1550930 Eh            4.2203 eV
             Fermi-level           -0.3094943 Eh           -8.4218 eV

     #   Z        covCN         q      C6AA      α(0)
     1   6 C      2.914    -0.030    28.750     8.792
     2   6 C      2.919    -0.038    28.956     8.824
     3   6 C      2.966    -0.017    28.426     8.745
     4   6 C      2.918    -0.035    28.865     8.810
     5   6 C      2.915    -0.029    28.736     8.790
     6   6 C      2.915    -0.030    28.757     8.794
     7   1 H      0.925     0.031     2.572     2.508
     8   1 H      0.925     0.053     2.281     2.362
     9   1 H      0.925     0.040     2.444     2.445
    10   7 N      2.677    -0.298    27.675     7.813
    11   1 H      0.802     0.310     0.693     1.308
    12   6 C      3.737     0.005    20.584     6.474
    13   1 H      0.924     0.041     2.431     2.438
    14   1 H      0.924     0.047     2.354     2.399
    15   1 H      0.860     0.149     1.408     1.859
    16   1 H      0.805     0.288     0.758     1.367
    17   1 H      0.804     0.322     0.659     1.275
    18   6 C      3.666     0.177    18.003     6.085
    19   1 H      0.924     0.022     2.698     2.569
    20   8 O      1.654    -0.483    22.538     6.409
    21   6 C      3.800    -0.064    21.736     6.638
    22   1 H      0.924     0.030     2.586     2.515
    23   1 H      0.924     0.032     2.554     2.499
    24   8 O      1.606    -0.622    25.712     6.844
    25   6 C      3.800    -0.054    21.546     6.609
    26   1 H      0.924     0.034     2.537     2.491
    27   1 H      0.924     0.033     2.546     2.496
    28   1 H      0.925     0.040     2.448     2.447
    29   1 H      0.925     0.041     2.433     2.439
    30   6 C      3.749    -0.102    22.511     6.767
    31   1 H      0.924     0.036     2.509     2.477
    32   1 H      0.924     0.037     2.486     2.466
    33   1 H      0.924     0.034     2.525     2.485

 Mol. C6AA /au·bohr⁶  :       9456.533274
 Mol. C8AA /au·bohr⁸  :     210515.437100
 Mol. α(0) /au        :        149.237380


Wiberg/Mayer (AO) data.
largest (>0.10) Wiberg bond orders for each atom
          total WBO             WBO to atom ...
     1  C   3.991        C    6 1.442    C    2 1.440    H   28 0.971    C    4 0.112
     2  C   3.991        C    1 1.440    C    3 1.420    H    7 0.969    C    5 0.112
     3  C   3.986        C    2 1.420    C    4 1.413    C   18 0.977    C    6 0.110
     4  C   3.990        C    5 1.447    C    3 1.413    H    8 0.965    C    1 0.112
     5  C   3.991        C    4 1.447    C    6 1.436    H   29 0.971    C    2 0.112
     6  C   3.991        C    1 1.442    C    5 1.436    H    9 0.971    C    3 0.110
     7  H   0.999        C    2 0.969
     8  H   0.997        C    4 0.965
     9  H   0.998        C    6 0.971
    10  N   3.124        C   12 0.997    C   18 0.979    H   15 0.951
    11  H   0.904        O   24 0.844
    12  C   3.977        C   21 1.000    N   10 0.997    H   14 0.974    H   13 0.972
    13  H   0.998        C   12 0.972
    14  H   0.998        C   12 0.974
    15  H   0.978        N   10 0.951
    16  H   0.917        O   24 0.915
    17  H   0.896        O   20 0.852
    18  C   3.950        O   20 0.990    N   10 0.979    C    3 0.977    H   19 0.952
    19  H   0.999        C   18 0.952
    20  O   1.950        C   18 0.990    H   17 0.852
    21  C   3.997        C   25 1.006    C   12 1.000    H   23 0.976    H   22 0.974
    22  H   0.999        C   21 0.974
    23  H   0.999        C   21 0.976
    24  O   1.829        H   16 0.915    H   11 0.844
    25  C   3.996        C   30 1.019    C   21 1.006    H   27 0.978    H   26 0.978
    26  H   0.999        C   25 0.978
    27  H   0.999        C   25 0.978
    28  H   0.998        C    1 0.971
    29  H   0.998        C    5 0.971
    30  C   3.996        C   25 1.019    H   33 0.988    H   31 0.988    H   32 0.987
    31  H   0.999        C   30 0.988
    32  H   0.998        C   30 0.987
    33  H   0.999        C   30 0.988
Topologies differ in total number of bonds
Writing topology from bond orders to xtbtopo.mol

molecular dipole:
                 x           y           z       tot (Debye)
 q only:       -0.888      -0.429      -0.381
   full:       -1.298      -0.436      -0.445       3.660
molecular quadrupole (traceless):
                xx          xy          yy          xz          yz          zz
 q only:        1.883       4.066      -0.420      -6.452      -7.053      -1.463
  q+dip:        1.278       2.959       0.220      -8.588      -9.468      -1.497
   full:        1.695       4.519       0.097      -7.582      -8.595      -1.792


           -------------------------------------------------
          | TOTAL ENERGY              -44.300126495801 Eh   |
          | GRADIENT NORM               0.024944762112 Eh/α |
          | HOMO-LUMO GAP               4.220294631260 eV   |
           -------------------------------------------------

------------------------------------------------------------------------
 * finished run on 2020/06/19 at 17:44:47.461     
------------------------------------------------------------------------
 total:
 * wall-time:     0 d,  0 h,  0 min,  0.127 sec
 *  cpu-time:     0 d,  0 h,  0 min,  1.288 sec
 * ratio c/w:    10.134 speedup
 SCF:
 * wall-time:     0 d,  0 h,  0 min,  0.090 sec
 *  cpu-time:     0 d,  0 h,  0 min,  0.947 sec
 * ratio c/w:    10.552 speedup


-------------------------   --------------------
FINAL SINGLE POINT ENERGY       -44.300126495800
-------------------------   --------------------

------------------------------------------------------------------------------
                         ORCA GEOMETRY RELAXATION STEP
------------------------------------------------------------------------------

Reading the OPT-File                    .... done
Getting information on internals        .... done
Copying old internal coords+grads       .... done
Making the new internal coordinates     .... (new redundants).... done
Validating the new internal coordinates .... (new redundants).... done
Calculating the B-matrix                .... done
Calculating the G,G- and P matrices     .... done
Transforming gradient to internals      .... done
Projecting the internal gradient        .... done
Number of atoms                         ....  33
Number of internal coordinates          .... 194
Current Energy                          ....   -44.300126496 Eh
Current gradient norm                   ....     0.024944762 Eh/bohr
Maximum allowed component of the step   ....  0.300
Current trust radius                    ....  0.300
Evaluating the initial hessian          ....  (Almloef) done
Projecting the Hessian                  .... done
Forming the augmented Hessian           .... done
Diagonalizing the augmented Hessian     .... done
Last element of RFO vector              ....  0.995589350
Lowest eigenvalues of augmented Hessian:
 -0.001640241  0.011247049  0.011257803  0.011376576  0.011385927
Length of the computed step             ....  0.094233792
The final length of the internal step   ....  0.094233792
Converting the step to cartesian space:
 Initial RMS(Int)=    0.0067655920
Transforming coordinates:
 Iter   0:  RMS(Cart)=    0.0251439890 RMS(Int)=    1.1042212312
 Iter   1:  RMS(Cart)=    0.0001258421 RMS(Int)=    0.0000512907
 Iter   2:  RMS(Cart)=    0.0000013327 RMS(Int)=    0.0000004635
 Iter   3:  RMS(Cart)=    0.0000000173 RMS(Int)=    0.0000000100
done
Storing new coordinates                 .... done

                                .--------------------.
          ----------------------|Geometry convergence|-------------------------
          Item                value                   Tolerance       Converged
          ---------------------------------------------------------------------
          RMS gradient        0.0017995263            0.0001000000      NO
          MAX gradient        0.0093348729            0.0003000000      NO
          RMS step            0.0067655920            0.0020000000      NO
          MAX step            0.0212583360            0.0040000000      NO
          ........................................................
          Max(Bonds)      0.0112      Max(Angles)    0.86
          Max(Dihed)        1.08      Max(Improp)    0.00
          ---------------------------------------------------------------------

The optimization has not yet converged - more geometry cycles are needed


    ---------------------------------------------------------------------------
                         Redundant Internal Coordinates
                            (Angstroem and degrees)

        Definition                    Value    dE/dq     Step     New-Value
    ----------------------------------------------------------------------------
     1. B(C   1,C   0)                1.3921  0.008002 -0.0068    1.3853   
     2. B(C   2,C   1)                1.3931  0.005005 -0.0042    1.3889   
     3. B(C   3,C   2)                1.3955  0.005761 -0.0049    1.3906   
     4. B(C   4,C   3)                1.3896  0.006426 -0.0054    1.3842   
     5. B(C   5,C   0)                1.3905  0.006450 -0.0055    1.3850   
     6. B(C   5,C   4)                1.3926  0.007274 -0.0062    1.3863   
     7. B(H   6,C   1)                1.0833  0.001417 -0.0020    1.0812   
     8. B(H   7,C   3)                1.0815  0.001450 -0.0021    1.0794   
     9. B(H   8,C   5)                1.0821  0.001636 -0.0023    1.0798   
    10. B(H  10,N   9)                1.8571  0.000255 -0.0040    1.8531   
    11. B(C  11,N   9)                1.4719  0.007859 -0.0100    1.4619   
    12. B(H  12,C  11)                1.0928 -0.001413  0.0021    1.0949   
    13. B(H  13,C  11)                1.0910 -0.001802  0.0026    1.0937   
    14. B(H  14,N   9)                1.0134 -0.001059  0.0013    1.0147   
    15. B(H  16,H  10)                1.9520  0.001356 -0.0112    1.9407   
    16. B(C  17,N   9)                1.4689  0.003247 -0.0053    1.4635   
    17. B(C  17,C   2)                1.5174  0.002682 -0.0036    1.5138   
    18. B(H  18,C  17)                1.0933 -0.004818  0.0071    1.1005   
    19. B(O  19,C  17)                1.4194  0.009335 -0.0107    1.4087   
    20. B(O  19,H  16)                0.9722 -0.000028  0.0004    0.9726   
    21. B(C  20,C  11)                1.5287  0.000429 -0.0006    1.5281   
    22. B(H  21,C  20)                1.0933 -0.000003  0.0000    1.0933   
    23. B(H  22,C  20)                1.0951  0.000001 -0.0000    1.0951   
    24. B(O  23,H  15)                0.9642  0.002699 -0.0028    0.9614   
    25. B(O  23,H  10)                0.9879  0.004481 -0.0059    0.9820   
    26. B(O  23,H  16)                2.0083  0.000505 -0.0109    1.9974   
    27. B(C  24,C  20)                1.5285  0.002640 -0.0037    1.5248   
    28. B(H  25,C  24)                1.0944  0.000558 -0.0008    1.0936   
    29. B(H  26,C  24)                1.0942  0.000478 -0.0007    1.0934   
    30. B(H  27,C   0)                1.0823  0.001717 -0.0024    1.0799   
    31. B(H  28,C   4)                1.0823  0.001863 -0.0026    1.0797   
    32. B(C  29,C  24)                1.5270  0.004204 -0.0059    1.5212   
    33. B(H  30,C  29)                1.0926  0.002360 -0.0035    1.0891   
    34. B(H  31,C  29)                1.0917  0.002609 -0.0038    1.0879   
    35. B(H  32,C  29)                1.0927  0.002382 -0.0035    1.0891   
    36. A(C   1,C   0,C   5)          119.99 -0.000334    0.04    120.02   
    37. A(C   1,C   0,H  27)          119.89  0.000450   -0.06    119.83   
    38. A(C   5,C   0,H  27)          120.12 -0.000116    0.03    120.15   
    39. A(C   2,C   1,H   6)          119.51 -0.000752    0.11    119.62   
    40. A(C   0,C   1,H   6)          119.88  0.000043   -0.02    119.86   
    41. A(C   0,C   1,C   2)          120.61  0.000708   -0.09    120.52   
    42. A(C   1,C   2,C  17)          119.94 -0.000100    0.01    119.95   
    43. A(C   1,C   2,C   3)          119.11 -0.000576    0.09    119.20   
    44. A(C   3,C   2,C  17)          120.95  0.000675   -0.10    120.84   
    45. A(C   2,C   3,C   4)          120.37  0.000880   -0.11    120.26   
    46. A(C   4,C   3,H   7)          119.56 -0.000779    0.11    119.67   
    47. A(C   2,C   3,H   7)          120.07 -0.000101    0.00    120.07   
    48. A(C   5,C   4,H  28)          120.05 -0.000076    0.02    120.07   
    49. A(C   3,C   4,C   5)          120.24 -0.000167    0.02    120.26   
    50. A(C   3,C   4,H  28)          119.71  0.000243   -0.04    119.67   
    51. A(C   0,C   5,H   8)          120.21  0.000384   -0.05    120.16   
    52. A(C   0,C   5,C   4)          119.68 -0.000512    0.06    119.74   
    53. A(C   4,C   5,H   8)          120.10  0.000128   -0.01    120.10   
    54. A(H  10,N   9,C  11)          105.65 -0.000794    0.49    106.14   
    55. A(C  11,N   9,H  14)          110.45  0.000081   -0.14    110.31   
    56. A(H  10,N   9,C  17)          102.26 -0.000589    0.04    102.30   
    57. A(H  14,N   9,C  17)          109.85 -0.000404   -0.08    109.77   
    58. A(H  10,N   9,H  14)          113.43  0.000564   -0.15    113.28   
    59. A(C  11,N   9,C  17)          115.00  0.001137   -0.13    114.87   
    60. A(N   9,H  10,H  16)           78.81  0.002168   -0.16     78.65   
    61. A(N   9,H  10,O  23)          157.55  0.001022   -0.11    157.43   
    62. A(H  16,H  10,O  23)           78.74 -0.001144    0.04     78.78   
    63. A(H  12,C  11,H  13)          106.75 -0.001312    0.86    107.60   
    64. A(N   9,C  11,H  13)          107.23  0.000124   -0.10    107.12   
    65. A(N   9,C  11,C  20)          115.26  0.000701   -0.35    114.90   
    66. A(H  13,C  11,C  20)          110.33 -0.000084    0.05    110.38   
    67. A(N   9,C  11,H  12)          107.64  0.000875   -0.38    107.27   
    68. A(H  12,C  11,C  20)          109.27 -0.000438    0.02    109.29   
    69. A(O  19,H  16,O  23)          152.44  0.000946    0.06    152.50   
    70. A(H  10,H  16,O  19)          123.65 -0.000184    0.07    123.73   
    71. A(H  10,H  16,O  23)           28.85  0.001123   -0.01     28.83   
    72. A(H  18,C  17,O  19)          104.46  0.000869   -0.05    104.42   
    73. A(N   9,C  17,O  19)          109.55 -0.001218   -0.12    109.43   
    74. A(C   2,C  17,O  19)          113.43  0.000553   -0.33    113.10   
    75. A(N   9,C  17,H  18)          111.73 -0.000541    0.44    112.17   
    76. A(C   2,C  17,H  18)          108.41 -0.001318    0.47    108.87   
    77. A(C   2,C  17,N   9)          109.23  0.001574   -0.37    108.86   
    78. A(H  16,O  19,C  17)          107.91 -0.000521    0.03    107.94   
    79. A(C  11,C  20,H  21)          109.87 -0.000414   -0.02    109.85   
    80. A(H  22,C  20,C  24)          109.57 -0.000227   -0.01    109.56   
    81. A(H  21,C  20,C  24)          109.29 -0.000431   -0.05    109.24   
    82. A(C  11,C  20,C  24)          112.46  0.002209   -0.53    111.93   
    83. A(H  21,C  20,H  22)          106.67 -0.000371    0.49    107.16   
    84. A(C  11,C  20,H  22)          108.80 -0.000903    0.18    108.98   
    85. A(H  15,O  23,H  16)          109.01 -0.000699    0.15    109.16   
    86. A(H  10,O  23,H  16)           72.41  0.000021   -0.03     72.38   
    87. A(H  10,O  23,H  15)          105.49 -0.000759    0.32    105.81   
    88. A(H  26,C  24,C  29)          109.55 -0.000476   -0.02    109.52   
    89. A(H  25,C  24,C  29)          109.43 -0.000586    0.01    109.44   
    90. A(C  20,C  24,C  29)          112.99  0.002903   -0.70    112.29   
    91. A(H  25,C  24,H  26)          106.30 -0.000531    0.66    106.96   
    92. A(C  20,C  24,H  26)          109.12 -0.000801    0.07    109.19   
    93. A(C  20,C  24,H  25)          109.23 -0.000718    0.06    109.29   
    94. A(H  31,C  29,H  32)          107.70 -0.001825    0.30    108.00   
    95. A(H  30,C  29,H  32)          107.63 -0.001364    0.31    107.94   
    96. A(C  24,C  29,H  32)          111.13  0.001175   -0.21    110.92   
    97. A(H  30,C  29,H  31)          107.72 -0.001779    0.31    108.03   
    98. A(C  24,C  29,H  31)          111.44  0.002505   -0.49    110.96   
    99. A(C  24,C  29,H  30)          111.04  0.000997   -0.17    110.87   
   100. D(H   6,C   1,C   0,C   5)    179.66 -0.000011    0.01    179.67   
   101. D(C   2,C   1,C   0,C   5)     -0.02  0.000014   -0.04     -0.06   
   102. D(C   2,C   1,C   0,H  27)   -179.77  0.000038   -0.08   -179.85   
   103. D(H   6,C   1,C   0,H  27)     -0.09  0.000012   -0.03     -0.12   
   104. D(C   3,C   2,C   1,C   0)      0.06  0.000082   -0.15     -0.09   
   105. D(C  17,C   2,C   1,C   0)   -178.72  0.000129   -0.30   -179.02   
   106. D(C  17,C   2,C   1,H   6)      1.60  0.000152   -0.35      1.25   
   107. D(C   3,C   2,C   1,H   6)   -179.61  0.000105   -0.20   -179.81   
   108. D(H   7,C   3,C   2,C  17)     -1.29 -0.000209    0.45     -0.84   
   109. D(H   7,C   3,C   2,C   1)    179.94 -0.000152    0.30    180.23   
   110. D(C   4,C   3,C   2,C   1)     -0.05 -0.000149    0.29      0.24   
   111. D(C   4,C   3,C   2,C  17)    178.72 -0.000206    0.44    179.16   
   112. D(C   5,C   4,C   3,H   7)   -179.99  0.000122   -0.25   -180.24   
   113. D(C   5,C   4,C   3,C   2)     -0.01  0.000120   -0.24     -0.24   
   114. D(H  28,C   4,C   3,H   7)     -0.05  0.000043   -0.09     -0.13   
   115. D(H  28,C   4,C   3,C   2)    179.94  0.000040   -0.08    179.86   
   116. D(H   8,C   5,C   4,H  28)     -0.12 -0.000011    0.02     -0.10   
   117. D(C   0,C   5,C   4,H  28)   -179.90  0.000058   -0.12   -180.01   
   118. D(C   0,C   5,C   4,C   3)      0.05 -0.000021    0.05      0.10   
   119. D(H   8,C   5,C   0,H  27)     -0.07  0.000003   -0.01     -0.07   
   120. D(H   8,C   5,C   0,C   1)   -179.81  0.000025   -0.05   -179.86   
   121. D(H   8,C   5,C   4,C   3)    179.83 -0.000091    0.18    180.01   
   122. D(C   4,C   5,C   0,C   1)     -0.04 -0.000045    0.09      0.05   
   123. D(C   4,C   5,C   0,H  27)    179.71 -0.000068    0.13    179.84   
   124. D(H  16,H  10,N   9,C  17)     21.26  0.000994    0.05     21.31   
   125. D(H  16,H  10,N   9,H  14)    139.48  0.000424   -0.09    139.39   
   126. D(H  16,H  10,N   9,C  11)    -99.39  0.000320   -0.03    -99.42   
   127. D(O  23,H  10,N   9,C  11)    -99.97 -0.000146    0.00    -99.96   
   128. D(O  23,H  10,N   9,H  14)    138.91 -0.000043   -0.06    138.85   
   129. D(O  23,H  10,N   9,C  17)     20.69  0.000527    0.08     20.77   
   130. D(H  12,C  11,N   9,H  14)     73.16  0.000346    0.13     73.29   
   131. D(C  20,C  11,N   9,C  17)     75.97  0.000188    0.30     76.26   
   132. D(C  20,C  11,N   9,H  14)    -49.04 -0.000222    0.63    -48.42   
   133. D(H  13,C  11,N   9,H  10)     64.65 -0.000918    0.85     65.50   
   134. D(H  13,C  11,N   9,C  17)    -47.30 -0.000275    0.56    -46.74   
   135. D(H  13,C  11,N   9,H  14)   -172.31 -0.000685    0.89   -171.42   
   136. D(H  12,C  11,N   9,H  10)    -49.87  0.000113    0.09    -49.79   
   137. D(C  20,C  11,N   9,H  10)   -172.08 -0.000455    0.58   -171.49   
   138. D(H  12,C  11,N   9,C  17)   -161.83  0.000756   -0.20   -162.03   
   139. D(O  23,H  16,H  10,N   9)   -179.78  0.000173   -0.01   -179.79   
   140. D(O  19,H  16,H  10,N   9)      3.03 -0.000078   -0.01      3.01   
   141. D(O  19,H  16,H  10,O  23)   -177.20 -0.000251   -0.00   -177.20   
   142. D(O  19,C  17,N   9,H  10)    -40.52  0.000154   -0.16    -40.68   
   143. D(O  19,C  17,N   9,H  14)   -161.25  0.000012    0.03   -161.22   
   144. D(H  18,C  17,N   9,H  10)   -155.79  0.000146   -0.28   -156.07   
   145. D(H  18,C  17,N   9,H  14)     83.48  0.000004   -0.09     83.39   
   146. D(H  18,C  17,N   9,C  11)    -41.84 -0.000650    0.27    -41.57   
   147. D(C   2,C  17,N   9,H  10)     84.28  0.001092   -0.90     83.38   
   148. D(C   2,C  17,N   9,H  14)    -36.45  0.000950   -0.71    -37.16   
   149. D(C   2,C  17,N   9,C  11)   -161.78  0.000296   -0.35   -162.13   
   150. D(O  19,C  17,C   2,C   3)     50.25 -0.000226   -0.03     50.23   
   151. D(H  18,C  17,C   2,C   3)    165.79  0.000322    0.03    165.81   
   152. D(H  18,C  17,C   2,C   1)    -15.45  0.000258    0.18    -15.27   
   153. D(O  19,C  17,N   9,C  11)     73.43 -0.000642    0.39     73.82   
   154. D(N   9,C  17,C   2,C   3)    -72.25 -0.000195    0.63    -71.62   
   155. D(O  19,C  17,C   2,C   1)   -130.98 -0.000289    0.13   -130.86   
   156. D(N   9,C  17,C   2,C   1)    106.51 -0.000258    0.78    107.29   
   157. D(H  16,O  19,C  17,H  18)    165.06 -0.000708    0.56    165.62   
   158. D(H  16,O  19,C  17,N   9)     45.23  0.000053    0.13     45.36   
   159. D(H  16,O  19,C  17,C   2)    -77.09 -0.001467    0.93    -76.17   
   160. D(C  17,O  19,H  16,O  23)    -30.17  0.000257   -0.16    -30.33   
   161. D(C  17,O  19,H  16,H  10)    -27.25  0.000192   -0.15    -27.40   
   162. D(H  21,C  20,C  11,N   9)    -57.80  0.000900   -0.72    -58.52   
   163. D(C  24,C  20,C  11,H  12)     58.89 -0.001061    0.45     59.34   
   164. D(C  24,C  20,C  11,N   9)   -179.78  0.000235   -0.28   -180.06   
   165. D(H  22,C  20,C  11,H  13)   -179.75  0.000312   -0.40   -180.16   
   166. D(H  22,C  20,C  11,H  12)    -62.69 -0.001591    0.68    -62.01   
   167. D(H  22,C  20,C  11,N   9)     58.64 -0.000294   -0.04     58.60   
   168. D(H  21,C  20,C  11,H  13)     63.80  0.001507   -1.08     62.72   
   169. D(C  24,C  20,C  11,H  13)    -58.18  0.000842   -0.64    -58.81   
   170. D(H  21,C  20,C  11,H  12)   -179.13 -0.000396    0.01   -179.13   
   171. D(H  15,O  23,H  16,H  10)   -100.78  0.000640   -0.31   -101.09   
   172. D(H  15,O  23,H  16,O  19)    -95.74  0.000358   -0.30    -96.04   
   173. D(H  10,O  23,H  16,O  19)      5.05 -0.000282    0.00      5.05   
   174. D(H  16,O  23,H  10,N   9)      0.57  0.000473   -0.03      0.54   
   175. D(H  15,O  23,H  10,H  16)    105.47 -0.000551    0.07    105.54   
   176. D(H  15,O  23,H  10,N   9)    106.04 -0.000078    0.04    106.08   
   177. D(C  29,C  24,C  20,H  22)    -57.11  0.000398   -0.43    -57.54   
   178. D(C  29,C  24,C  20,H  21)     59.45 -0.000424    0.12     59.57   
   179. D(C  29,C  24,C  20,C  11)   -178.25  0.000234   -0.30   -178.55   
   180. D(H  26,C  24,C  20,H  22)   -179.23 -0.000380    0.02   -179.21   
   181. D(H  26,C  24,C  20,H  21)    -62.67 -0.001202    0.57    -62.11   
   182. D(H  26,C  24,C  20,C  11)     59.63 -0.000543    0.15     59.78   
   183. D(H  25,C  24,C  20,H  22)     64.95  0.001098   -0.85     64.10   
   184. D(H  25,C  24,C  20,H  21)   -178.50  0.000276   -0.30   -178.80   
   185. D(H  25,C  24,C  20,C  11)    -56.19  0.000934   -0.72    -56.91   
   186. D(H  32,C  29,C  24,H  25)    178.30 -0.000472    0.30    178.60   
   187. D(H  32,C  29,C  24,C  20)    -59.76  0.000161   -0.09    -59.84   
   188. D(H  31,C  29,C  24,H  26)    -58.00  0.000599   -0.40    -58.40   
   189. D(H  31,C  29,C  24,H  25)     58.17 -0.000644    0.39     58.56   
   190. D(H  31,C  29,C  24,C  20)   -179.88 -0.000011   -0.00   -179.89   
   191. D(H  30,C  29,C  24,H  26)   -178.10  0.000494   -0.35   -178.45   
   192. D(H  30,C  29,C  24,H  25)    -61.93 -0.000748    0.44    -61.49   
   193. D(H  32,C  29,C  24,H  26)     62.13  0.000771   -0.49     61.64   
   194. D(H  30,C  29,C  24,C  20)     60.02 -0.000116    0.05     60.07   
    ----------------------------------------------------------------------------

         *************************************************************
         *                GEOMETRY OPTIMIZATION CYCLE   2            *
         *************************************************************
      -----------------------------------------------------------      
     |                   =====================                   |     
     |                           x T B                           |     
     |                   =====================                   |     
     |                         S. Grimme                         |     
     |          Mulliken Center for Theoretical Chemistry        |     
     |                    University of Bonn                     |     
      -----------------------------------------------------------      

   * xtb version 6.3.0 (49875a8) compiled by 'schneider@apollo14' on 2020-05-23

   xtb is free software: you can redistribute it and/or modify it under
   the terms of the GNU Lesser General Public License as published by
   the Free Software Foundation, either version 3 of the License, or
   (at your option) any later version.
   
   xtb is distributed in the hope that it will be useful,
   but WITHOUT ANY WARRANTY; without even the implied warranty of
   MERCHANTABILITY or FITNESS FOR A PARTICULAR PURPOSE.  See the
   GNU Lesser General Public License for more details.
   
   Cite this work as:
   * S. Grimme, C. Bannwarth, P. Shushkov, J. Chem. Theory Comput., 2017,
     13, 1989-2009. DOI: 10.1021/acs.jctc.7b00118
   * C. Bannwarth, S. Ehlert and S. Grimme., J. Chem. Theory Comput., 2019,
     15, 1652-1671. DOI: 10.1021/acs.jctc.8b01176
   * P. Pracht, E. Caldeweyher, S. Ehlert, S. Grimme, ChemRxiv, 2019, preprint.
     DOI: 10.26434/chemrxiv.8326202.v1
   
   for GFN-FF:
   * S. Spicher and S. Grimme, Angew. Chem. Int. Ed., 2020,
     DOI: 10.1002/anie.202004239
   
   for DFT-D4:
   * E. Caldeweyher, C. Bannwarth and S. Grimme, J. Chem. Phys., 2017,
     147, 034112. DOI: 10.1063/1.4993215
   * E. Caldeweyher, S. Ehlert, A. Hansen, H. Neugebauer, S. Spicher,
     C. Bannwarth and S. Grimme, J. Chem. Phys., 2019, 150, 154122.
     DOI: 10.1063/1.5090222
   
   for sTDA-xTB:
   * S. Grimme and C. Bannwarth, J. Chem. Phys., 2016, 145, 054103.
     DOI: 10.1063/1.4959605
   
   in the mass-spec context:
   * V. Asgeirsson, C. Bauer and S. Grimme, Chem. Sci., 2017, 8, 4879.
     DOI: 10.1039/c7sc00601b
   * J. Koopman and S. Grimme, ACS Omega 2019, 4, 12, 15120-15133.
     DOI: 10.1021/acsomega.9b02011
   
   for metadynamics refer to:
   * S. Grimme, J. Chem. Theory Comput., 2019, 155, 2847-2862
     DOI: 10.1021/acs.jctc.9b00143
   
   with help from (in alphabetical order)
   C. Bannwarth, F. Bohle, G. Brandenburg, E. Caldeweyher, M. Checinski,
   S. Dohm, S. Ehlert, S. Ehrlich, F. März, H. Neugebauer, J. Pisarek,
   P. Pracht, P. Shushkov, and S. Spicher.
   
 * started run on 2020/06/19 at 17:44:48.003     

           -------------------------------------------------
          |                Calculation Setup                |
           -------------------------------------------------

          program call               : /opt/orca/otool_xtb opt+freq_XTB.xyz --grad -c 0 -u 0 -P 12 --namespace opt+freq --gbsa CH2Cl2
          calculation namespace      : opt+freq
          coordinate file            : opt+freq_XTB.xyz
          number of atoms            :                    33
          number of electrons        :                    80
          charge                     :                     0
          spin                       :                   0.0
          first test random number   :      0.67531548842287

   ID    Z sym.   atoms
    1    6 C      1-6, 12, 18, 21, 25, 30
    2    1 H      7-9, 11, 13-17, 19, 22, 23, 26-29, 31-33
    3    7 N      10
    4    8 O      20, 24

molecular fragmentation (1/2 indicates fragments):
111111111121111211111112111111111
# atoms in fragment 1/2:    30     3
 fragment masses (1/2) :      179.26       18.02
CMA distance (Bohr)    :   6.747
constraining FC (au)   :  0.0500
########################################################################
[WARNING] Please study the warnings concerning your input carefully
-1- prog_main_parseArguments: Process number higher than OMP_NUM_THREADS, I hope you know what you are doing.
########################################################################
 Solvent             : CH2Cl2
 Using internal parameter file: .param_gbsa2_CH2Cl2
 Gsolv ref. state (COSMO-RS): gsolv [1 M gas/solution]
 temperature (mdtemp)       :    298.14999999999998     
 dielectric constant        :    8.9299999999999997     
 rho                        :    1.3300000000000003     
 mass                       :    84.930000000000007     
 surface tension            :    15.568945408385856     
 probe radius               :   0.71987590000000001     
 Gshift (Eh)                :    4.4408291734517593E-003
 c1                         :    1.4917377599999999     
 soset                      :    0.0000000000000000     
 HB correction              :  F

           -------------------------------------------------
          |                 G F N 2 - x T B                 |
           -------------------------------------------------

        Reference                      10.1021/acs.jctc.8b01176
      * Hamiltonian:
        H0-scaling (s, p, d)           1.850000    2.230000    2.230000
        zeta-weighting                 0.500000
      * Dispersion:
        s8                             2.700000
        a1                             0.520000
        a2                             5.000000
        s9                             5.000000
      * Repulsion:
        kExp                           1.500000    1.000000
        rExp                           1.000000
      * Coulomb:
        alpha                          2.000000
        third order                    shell-resolved
        anisotropic                    true
        a3                             3.000000
        a5                             4.000000
        cn-shift                       1.200000
        cn-exp                         4.000000
        max-rad                        5.000000


          ...................................................
          :                      SETUP                      :
          :.................................................:
          :  # basis functions                  75          :
          :  # atomic orbitals                  75          :
          :  # shells                           47          :
          :  # electrons                        80          :
          :  max. iterations                   250          :
          :  Hamiltonian                  GFN2-xTB          :
          :  restarted?                      false          :
          :  GBSA solvation                   true          :
          :  PC potential                    false          :
          :  electronic temp.          300.0000000     K    :
          :  accuracy                    1.0000000          :
          :  -> integral cutoff          0.2500000E+02      :
          :  -> integral neglect         0.1000000E-07      :
          :  -> SCF convergence          0.1000000E-05 Eh   :
          :  -> wf. convergence          0.1000000E-03 e    :
          :  Broyden damping             0.4000000          :
          ...................................................

 iter      E             dE          RMSdq      gap      omega  full diag
   1    -44.8484659 -0.448485E+02  0.345E+00    3.84       0.0  T
   2    -44.8908383 -0.423725E-01  0.196E+00    4.23       1.0  T
   3    -44.8907341  0.104238E-03  0.650E-01    4.23       1.0  T
   4    -44.8924185 -0.168444E-02  0.237E-01    4.25       1.0  T
   5    -44.8940362 -0.161766E-02  0.672E-02    4.25       1.0  T
   6    -44.8940516 -0.153680E-04  0.284E-02    4.25       1.0  T
   7    -44.8940525 -0.925014E-06  0.106E-02    4.25       1.6  T
   8    -44.8940542 -0.171506E-05  0.363E-03    4.25       4.8  T
   9    -44.8940543 -0.950129E-07  0.182E-03    4.25       9.6  T
  10    -44.8940543 -0.907619E-08  0.688E-04    4.25      25.3  T
  11    -44.8940543 -0.414975E-08  0.285E-04    4.25      61.2  T

   *** convergence criteria satisfied after 11 iterations ***

         #    Occupation            Energy/Eh            Energy/eV
      -------------------------------------------------------------
         1        2.0000           -0.6949702             -18.9111
       ...           ...                  ...                  ...
        34        2.0000           -0.4413007             -12.0084
        35        2.0000           -0.4295362             -11.6883
        36        2.0000           -0.4247945             -11.5592
        37        2.0000           -0.4123110             -11.2196
        38        2.0000           -0.4084626             -11.1148
        39        2.0000           -0.4065467             -11.0627
        40        2.0000           -0.3867963             -10.5253 (HOMO)
        41                         -0.2304554              -6.2710 (LUMO)
        42                         -0.2269873              -6.1766
        43                         -0.1012146              -2.7542
        44                          0.0033781               0.0919
        45                          0.0482094               1.3118
       ...                                ...                  ...
        75                          0.6581369              17.9088
      -------------------------------------------------------------
                  HL-Gap            0.1563409 Eh            4.2543 eV
             Fermi-level           -0.3086259 Eh           -8.3981 eV

 SCC (total)                   0 d,  0 h,  0 min,  0.189 sec
 SCC setup                      ...        0 min,  0.001 sec (  0.721%)
 Dispersion                     ...        0 min,  0.000 sec (  0.238%)
 classical contributions        ...        0 min,  0.000 sec (  0.094%)
 integral evaluation            ...        0 min,  0.017 sec (  8.865%)
 iterations                     ...        0 min,  0.131 sec ( 69.064%)
 molecular gradient             ...        0 min,  0.034 sec ( 17.793%)
 printout                       ...        0 min,  0.006 sec (  3.214%)

         :::::::::::::::::::::::::::::::::::::::::::::::::::::
         ::                     SUMMARY                     ::
         :::::::::::::::::::::::::::::::::::::::::::::::::::::
         :: total energy             -44.301092616277 Eh    ::
         :: total w/o Gsasa/hb       -44.284596161440 Eh    ::
         :: gradient norm              0.010199284051 Eh/a0 ::
         :: HOMO-LUMO gap              4.254253533812 eV    ::
         ::.................................................::
         :: SCC energy               -44.910550775960 Eh    ::
         :: -> isotropic ES            0.074723438360 Eh    ::
         :: -> anisotropic ES         -0.000632255352 Eh    ::
         :: -> anisotropic XC          0.021510244643 Eh    ::
         :: -> dispersion             -0.026669316115 Eh    ::
         :: -> Gsolv                  -0.021705702930 Eh    ::
         ::    -> Gborn               -0.005209248093 Eh    ::
         ::    -> Gsasa               -0.020937284010 Eh    ::
         ::    -> Ghb                  0.000000000000 Eh    ::
         ::    -> Gshift               0.004440829173 Eh    ::
         :: repulsion energy           0.609396050828 Eh    ::
         :: add. restraining           0.000000000000 Eh    ::
         :::::::::::::::::::::::::::::::::::::::::::::::::::::

           -------------------------------------------------
          |                Property Printout                |
           -------------------------------------------------

    * Orbital Energies and Occupations

         #    Occupation            Energy/Eh            Energy/eV
      -------------------------------------------------------------
         1        2.0000           -0.6949702             -18.9111
       ...           ...                  ...                  ...
        28        2.0000           -0.4739130             -12.8958
        29        2.0000           -0.4714002             -12.8275
        30        2.0000           -0.4596703             -12.5083
        31        2.0000           -0.4491530             -12.2221
        32        2.0000           -0.4451859             -12.1141
        33        2.0000           -0.4444471             -12.0940
        34        2.0000           -0.4413007             -12.0084
        35        2.0000           -0.4295362             -11.6883
        36        2.0000           -0.4247945             -11.5592
        37        2.0000           -0.4123110             -11.2196
        38        2.0000           -0.4084626             -11.1148
        39        2.0000           -0.4065467             -11.0627
        40        2.0000           -0.3867963             -10.5253 (HOMO)
        41                         -0.2304554              -6.2710 (LUMO)
        42                         -0.2269873              -6.1766
        43                         -0.1012146              -2.7542
        44                          0.0033781               0.0919
        45                          0.0482094               1.3118
        46                          0.0682128               1.8562
        47                          0.0804284               2.1886
        48                          0.0861042               2.3430
        49                          0.0999668               2.7202
        50                          0.1060742               2.8864
        51                          0.1202855               3.2731
       ...                                ...                  ...
        75                          0.6581369              17.9088
      -------------------------------------------------------------
                  HL-Gap            0.1563409 Eh            4.2543 eV
             Fermi-level           -0.3086259 Eh           -8.3981 eV

     #   Z        covCN         q      C6AA      α(0)
     1   6 C      2.918    -0.030    28.748     8.792
     2   6 C      2.923    -0.039    28.960     8.825
     3   6 C      2.971    -0.017    28.438     8.747
     4   6 C      2.922    -0.036    28.884     8.813
     5   6 C      2.919    -0.029    28.732     8.790
     6   6 C      2.919    -0.030    28.758     8.794
     7   1 H      0.925     0.031     2.578     2.511
     8   1 H      0.926     0.054     2.268     2.355
     9   1 H      0.926     0.040     2.449     2.447
    10   7 N      2.679    -0.298    27.677     7.813
    11   1 H      0.803     0.310     0.691     1.306
    12   6 C      3.739     0.006    20.558     6.470
    13   1 H      0.924     0.040     2.443     2.445
    14   1 H      0.924     0.047     2.359     2.402
    15   1 H      0.860     0.149     1.410     1.860
    16   1 H      0.805     0.289     0.756     1.365
    17   1 H      0.804     0.323     0.655     1.271
    18   6 C      3.668     0.180    17.958     6.076
    19   1 H      0.923     0.019     2.753     2.595
    20   8 O      1.655    -0.482    22.511     6.405
    21   6 C      3.801    -0.065    21.743     6.639
    22   1 H      0.924     0.030     2.588     2.516
    23   1 H      0.924     0.032     2.556     2.500
    24   8 O      1.608    -0.622    25.712     6.844
    25   6 C      3.801    -0.054    21.549     6.609
    26   1 H      0.924     0.034     2.536     2.490
    27   1 H      0.924     0.033     2.546     2.495
    28   1 H      0.926     0.040     2.455     2.450
    29   1 H      0.926     0.041     2.436     2.441
    30   6 C      3.752    -0.103    22.528     6.769
    31   1 H      0.925     0.036     2.501     2.473
    32   1 H      0.925     0.038     2.481     2.463
    33   1 H      0.925     0.035     2.517     2.481

 Mol. C6AA /au·bohr⁶  :       9458.529254
 Mol. C8AA /au·bohr⁸  :     210541.672437
 Mol. α(0) /au        :        149.253110


Wiberg/Mayer (AO) data.
largest (>0.10) Wiberg bond orders for each atom
          total WBO             WBO to atom ...
     1  C   3.992        C    2 1.442    C    6 1.441    H   28 0.971    C    4 0.112
     2  C   3.991        C    1 1.442    C    3 1.419    H    7 0.968    C    5 0.111
     3  C   3.987        C    2 1.419    C    4 1.414    C   18 0.976    C    6 0.110
     4  C   3.991        C    5 1.446    C    3 1.414    H    8 0.963    C    1 0.112
     5  C   3.992        C    4 1.446    C    6 1.437    H   29 0.970    C    2 0.111
     6  C   3.991        C    1 1.441    C    5 1.437    H    9 0.971    C    3 0.110
     7  H   0.999        C    2 0.968
     8  H   0.997        C    4 0.963
     9  H   0.998        C    6 0.971
    10  N   3.126        C   12 1.000    C   18 0.978    H   15 0.951
    11  H   0.904        O   24 0.844
    12  C   3.977        C   21 1.000    N   10 1.000    H   14 0.973    H   13 0.972
    13  H   0.998        C   12 0.972
    14  H   0.998        C   12 0.973
    15  H   0.978        N   10 0.951
    16  H   0.916        O   24 0.914
    17  H   0.895        O   20 0.850
    18  C   3.951        O   20 0.993    N   10 0.978    C    3 0.976    H   19 0.950
    19  H   0.999        C   18 0.950
    20  O   1.953        C   18 0.993    H   17 0.850
    21  C   3.997        C   25 1.006    C   12 1.000    H   23 0.976    H   22 0.974
    22  H   0.999        C   21 0.974
    23  H   0.999        C   21 0.976
    24  O   1.830        H   16 0.914    H   11 0.844
    25  C   3.997        C   30 1.020    C   21 1.006    H   27 0.978    H   26 0.978
    26  H   0.999        C   25 0.978
    27  H   0.999        C   25 0.978
    28  H   0.998        C    1 0.971
    29  H   0.998        C    5 0.970
    30  C   3.996        C   25 1.020    H   33 0.988    H   31 0.988    H   32 0.987
    31  H   0.999        C   30 0.988
    32  H   0.998        C   30 0.987
    33  H   0.999        C   30 0.988
Topologies differ in total number of bonds
Writing topology from bond orders to xtbtopo.mol

molecular dipole:
                 x           y           z       tot (Debye)
 q only:       -0.865      -0.453      -0.359
   full:       -1.278      -0.457      -0.424       3.613
molecular quadrupole (traceless):
                xx          xy          yy          xz          yz          zz
 q only:        1.809       3.899      -0.334      -6.190      -7.098      -1.474
  q+dip:        1.032       2.830       0.506      -8.227      -9.354      -1.538
   full:        1.523       4.359       0.303      -7.253      -8.553      -1.826


           -------------------------------------------------
          | TOTAL ENERGY              -44.301092616277 Eh   |
          | GRADIENT NORM               0.010199284051 Eh/α |
          | HOMO-LUMO GAP               4.254253533812 eV   |
           -------------------------------------------------

------------------------------------------------------------------------
 * finished run on 2020/06/19 at 17:44:48.244     
------------------------------------------------------------------------
 total:
 * wall-time:     0 d,  0 h,  0 min,  0.241 sec
 *  cpu-time:     0 d,  0 h,  0 min,  2.476 sec
 * ratio c/w:    10.262 speedup
 SCF:
 * wall-time:     0 d,  0 h,  0 min,  0.190 sec
 *  cpu-time:     0 d,  0 h,  0 min,  1.991 sec
 * ratio c/w:    10.472 speedup


-------------------------   --------------------
FINAL SINGLE POINT ENERGY       -44.301092616280
-------------------------   --------------------

------------------------------------------------------------------------------
                         ORCA GEOMETRY RELAXATION STEP
[...]
     17      -0.000062   0.000038  -0.000001
     18       0.004783   0.000825   0.000310
     19      -0.003414  -0.000578  -0.000326
     20      -0.001406  -0.000232   0.000044
     21       0.003113  -0.000159   0.001935
     22      -0.007477   0.000019  -0.002799
     23       0.006473  -0.000021   0.001822
     24      -0.000436   0.000421  -0.000073
     25      -0.000398   0.000214  -0.000214
     26       0.001151  -0.000706   0.000393
     27       0.004987  -0.023037  -0.000030
     28       0.001894  -0.008437   0.000112
     29       0.013484  -0.063115   0.000081
     30       0.079122  -0.030085   0.006012
     31      -0.020890   0.011422  -0.022573
     32       0.041819  -0.016072   0.027359
     33       0.000161  -0.001079  -0.000004
     34      -0.000108   0.000307  -0.000055
     35       0.000751  -0.002599   0.000069
     36       0.000772  -0.000389   0.000577
     37       0.001806  -0.002290   0.000832
     38       0.000319  -0.001295  -0.000187
     39      -0.002914   0.005857   0.000117
     40      -0.001893   0.006237  -0.000340
     41      -0.002920   0.012273  -0.000838
     42      -0.071307   0.338957  -0.000702
     43      -0.022558   0.101894  -0.000246
     44      -0.194206   0.907102  -0.001606
     45      -0.007185   0.000569   0.194546
     46      -0.011535  -0.001816   0.625012
     47       0.008326   0.000362  -0.752532
     48       0.546000   0.120142   0.006446
     49      -0.798376  -0.175205  -0.012905
     50      -0.090361  -0.020117   0.000659
     51      -0.002562  -0.001547  -0.000066
     52       0.001469   0.000892  -0.000014
     53      -0.001180  -0.001814   0.000032
     54       0.007663  -0.000560   0.000000
     55      -0.011163   0.006103  -0.000090
     56      -0.003355   0.000216  -0.000052
     57      -0.033052  -0.007217  -0.000405
     58       0.050350   0.010740   0.000739
     59       0.006640   0.001565   0.000023
     60       0.000085  -0.000067   0.000015
     61       0.000214  -0.000046  -0.000000
     62      -0.000203   0.000281  -0.000011
     63      -0.000331  -0.000045  -0.000047
     64      -0.002173  -0.000128   0.000301
     65       0.000257  -0.000451  -0.000026
     66      -0.000155   0.002821  -0.000158
     67       0.000183  -0.000127  -0.000013
     68       0.000966   0.001554  -0.000219
     69      -0.004405   0.001925  -0.012579
     70       0.001418  -0.000822  -0.037939
     71      -0.003101   0.000941   0.045661
     72       0.000056  -0.000055   0.000004
     73      -0.000001   0.000032  -0.000015
     74       0.000056  -0.000045   0.000017
     75      -0.000048  -0.000182   0.000057
     76      -0.000012  -0.000457   0.000152
     77       0.000123   0.000020  -0.000046
     78      -0.000220  -0.000218  -0.000003
     79      -0.000264   0.000327  -0.000018
     80      -0.000739   0.000893  -0.000148
     81       0.000891  -0.000196   0.000099
     82      -0.002000   0.000613  -0.000245
     83       0.001583  -0.000594   0.000187
     84      -0.000803   0.000764   0.000249
     85       0.000338  -0.000457  -0.000220
     86       0.000641  -0.000377  -0.000050
     87      -0.000000   0.000021  -0.000002
     88       0.000056  -0.000012  -0.000001
     89      -0.000014  -0.000011   0.000002
     90       0.000041   0.000080  -0.000014
     91       0.000047   0.000025   0.000006
     92       0.000266   0.000110  -0.000018
     93       0.000297  -0.000584   0.000044
     94       0.000030  -0.000086   0.000007
     95      -0.000274   0.000411  -0.000033
     96      -0.000085   0.000013  -0.000009
     97      -0.000737   0.000185   0.000025
     98       0.000039  -0.000054  -0.000006


-----------
IR SPECTRUM  
-----------

 Mode    freq (cm**-1)   T**2         TX         TY         TZ
-------------------------------------------------------------------
   6:        21.57    0.000000  (  0.000000   0.000000   0.000000)
   7:        28.16    0.000000  (  0.000000   0.000000   0.000000)
   8:        48.19    0.000000  (  0.000000   0.000000   0.000000)
   9:        54.38    0.000000  (  0.000000   0.000000   0.000000)
  10:        74.82    0.000000  (  0.000000   0.000000   0.000000)
  11:        97.85    0.000000  (  0.000000   0.000000   0.000000)
  12:       111.60    0.000000  (  0.000000   0.000000   0.000000)
  13:       133.09    0.000000  (  0.000000   0.000000   0.000000)
  14:       158.00    0.000000  (  0.000000   0.000000   0.000000)
  15:       196.42    0.000000  (  0.000000   0.000000   0.000000)
  16:       199.38    0.000000  (  0.000000   0.000000   0.000000)
  17:       219.49    0.000000  (  0.000000   0.000000   0.000000)
  18:       227.98    0.000000  (  0.000000   0.000000   0.000000)
  19:       249.12    0.000000  (  0.000000   0.000000   0.000000)
  20:       284.58    0.000000  (  0.000000   0.000000   0.000000)
  21:       347.48    0.000000  (  0.000000   0.000000   0.000000)
  22:       363.76    0.000000  (  0.000000   0.000000   0.000000)
  23:       376.62    0.000000  (  0.000000   0.000000   0.000000)
  24:       407.05    0.000000  (  0.000000   0.000000   0.000000)
  25:       420.21    0.000000  (  0.000000   0.000000   0.000000)
  26:       457.26    0.000000  (  0.000000   0.000000   0.000000)
  27:       530.02    0.000000  (  0.000000   0.000000   0.000000)
  28:       540.71    0.000000  (  0.000000   0.000000   0.000000)
  29:       589.61    0.000000  (  0.000000   0.000000   0.000000)
  30:       623.25    0.000000  (  0.000000   0.000000   0.000000)
  31:       645.43    0.000000  (  0.000000   0.000000   0.000000)
  32:       674.05    0.000000  (  0.000000   0.000000   0.000000)
  33:       760.20    0.000000  (  0.000000   0.000000   0.000000)
  34:       768.87    0.000000  (  0.000000   0.000000   0.000000)
  35:       806.16    0.000000  (  0.000000   0.000000   0.000000)
  36:       829.07    0.000000  (  0.000000   0.000000   0.000000)
  37:       850.28    0.000000  (  0.000000   0.000000   0.000000)
  38:       879.64    0.000000  (  0.000000   0.000000   0.000000)
  39:       905.71    0.000000  (  0.000000   0.000000   0.000000)
  40:       932.20    0.000000  (  0.000000   0.000000   0.000000)
  41:       933.33    0.000000  (  0.000000   0.000000   0.000000)
  42:       941.21    0.000000  (  0.000000   0.000000   0.000000)
  43:       945.76    0.000000  (  0.000000   0.000000   0.000000)
  44:       976.50    0.000000  (  0.000000   0.000000   0.000000)
  45:       998.26    0.000000  (  0.000000   0.000000   0.000000)
  46:      1046.72    0.000000  (  0.000000   0.000000   0.000000)
  47:      1058.73    0.000000  (  0.000000   0.000000   0.000000)
  48:      1086.91    0.000000  (  0.000000   0.000000   0.000000)
  49:      1097.58    0.000000  (  0.000000   0.000000   0.000000)
  50:      1117.15    0.000000  (  0.000000   0.000000   0.000000)
  51:      1125.27    0.000000  (  0.000000   0.000000   0.000000)
  52:      1129.42    0.000000  (  0.000000   0.000000   0.000000)
  53:      1154.06    0.000000  (  0.000000   0.000000   0.000000)
  54:      1182.21    0.000000  (  0.000000   0.000000   0.000000)
  55:      1194.55    0.000000  (  0.000000   0.000000   0.000000)
  56:      1213.38    0.000000  (  0.000000   0.000000   0.000000)
  57:      1216.02    0.000000  (  0.000000   0.000000   0.000000)
  58:      1229.00    0.000000  (  0.000000   0.000000   0.000000)
  59:      1260.40    0.000000  (  0.000000   0.000000   0.000000)
  60:      1269.13    0.000000  (  0.000000   0.000000   0.000000)
  61:      1279.77    0.000000  (  0.000000   0.000000   0.000000)
  62:      1284.42    0.000000  (  0.000000   0.000000   0.000000)
  63:      1298.42    0.000000  (  0.000000   0.000000   0.000000)
  64:      1323.62    0.000000  (  0.000000   0.000000   0.000000)
  65:      1334.22    0.000000  (  0.000000   0.000000   0.000000)
  66:      1356.14    0.000000  (  0.000000   0.000000   0.000000)
  67:      1367.25    0.000000  (  0.000000   0.000000   0.000000)
  68:      1379.95    0.000000  (  0.000000   0.000000   0.000000)
  69:      1414.23    0.000000  (  0.000000   0.000000   0.000000)
  70:      1438.27    0.000000  (  0.000000   0.000000   0.000000)
  71:      1471.95    0.000000  (  0.000000   0.000000   0.000000)
  72:      1475.23    0.000000  (  0.000000   0.000000   0.000000)
  73:      1489.33    0.000000  (  0.000000   0.000000   0.000000)
  74:      1494.15    0.000000  (  0.000000   0.000000   0.000000)
  75:      1500.76    0.000000  (  0.000000   0.000000   0.000000)
  76:      1502.61    0.000000  (  0.000000   0.000000   0.000000)
  77:      1524.27    0.000000  (  0.000000   0.000000   0.000000)
  78:      1591.48    0.000000  (  0.000000   0.000000   0.000000)
  79:      1600.55    0.000000  (  0.000000   0.000000   0.000000)
  80:      2841.21    0.000000  (  0.000000   0.000000   0.000000)
  81:      2934.15    0.000000  (  0.000000   0.000000   0.000000)
  82:      2950.36    0.000000  (  0.000000   0.000000   0.000000)
  83:      2965.37    0.000000  (  0.000000   0.000000   0.000000)
  84:      2973.56    0.000000  (  0.000000   0.000000   0.000000)
  85:      2975.00    0.000000  (  0.000000   0.000000   0.000000)
  86:      2980.81    0.000000  (  0.000000   0.000000   0.000000)
  87:      3024.20    0.000000  (  0.000000   0.000000   0.000000)
  88:      3027.42    0.000000  (  0.000000   0.000000   0.000000)
  89:      3034.65    0.000000  (  0.000000   0.000000   0.000000)
  90:      3063.76    0.000000  (  0.000000   0.000000   0.000000)
  91:      3073.56    0.000000  (  0.000000   0.000000   0.000000)
  92:      3079.27    0.000000  (  0.000000   0.000000   0.000000)
  93:      3089.23    0.000000  (  0.000000   0.000000   0.000000)
  94:      3103.24    0.000000  (  0.000000   0.000000   0.000000)
  95:      3229.95    0.000000  (  0.000000   0.000000   0.000000)
  96:      3357.98    0.000000  (  0.000000   0.000000   0.000000)
  97:      3364.04    0.000000  (  0.000000   0.000000   0.000000)
  98:      3629.17    0.000000  (  0.000000   0.000000   0.000000)

The first frequency considered to be a vibration is 6
The total number of vibrations considered is 93


--------------------------
THERMOCHEMISTRY AT 298.15K
--------------------------

Temperature         ... 298.15 K
Pressure            ... 1.00 atm
Total Mass          ... 197.28 AMU

Throughout the following assumptions are being made:
  (1) The electronic state is orbitally nondegenerate
  (2) There are no thermally accessible electronically excited states
  (3) Hindered rotations indicated by low frequency modes are not
      treated as such but are treated as vibrations and this may
      cause some error
  (4) All equations used are the standard statistical mechanics
      equations for an ideal gas
  (5) All vibrations are strictly harmonic

freq.      21.57  E(vib)   ...       0.56 
freq.      28.16  E(vib)   ...       0.55 
freq.      48.19  E(vib)   ...       0.53 
freq.      54.38  E(vib)   ...       0.52 
freq.      74.82  E(vib)   ...       0.49 
freq.      97.85  E(vib)   ...       0.46 
freq.     111.60  E(vib)   ...       0.45 
freq.     133.09  E(vib)   ...       0.42 
freq.     158.00  E(vib)   ...       0.40 
freq.     196.42  E(vib)   ...       0.36 
freq.     199.38  E(vib)   ...       0.35 
freq.     219.49  E(vib)   ...       0.33 
freq.     227.98  E(vib)   ...       0.33 
freq.     249.12  E(vib)   ...       0.31 
freq.     284.58  E(vib)   ...       0.28 
freq.     347.48  E(vib)   ...       0.23 
freq.     363.76  E(vib)   ...       0.22 
freq.     376.62  E(vib)   ...       0.21 
freq.     407.05  E(vib)   ...       0.19 
freq.     420.21  E(vib)   ...       0.18 
freq.     457.26  E(vib)   ...       0.16 
freq.     530.02  E(vib)   ...       0.13 
freq.     540.71  E(vib)   ...       0.12 
freq.     589.61  E(vib)   ...       0.10 
freq.     623.25  E(vib)   ...       0.09 
freq.     645.43  E(vib)   ...       0.09 
freq.     674.05  E(vib)   ...       0.08 
freq.     760.20  E(vib)   ...       0.06 
freq.     768.87  E(vib)   ...       0.06 
freq.     806.16  E(vib)   ...       0.05 
freq.     829.07  E(vib)   ...       0.04 
freq.     850.28  E(vib)   ...       0.04 
freq.     879.64  E(vib)   ...       0.04 
freq.     905.71  E(vib)   ...       0.03 
freq.     932.20  E(vib)   ...       0.03 
freq.     933.33  E(vib)   ...       0.03 
freq.     941.21  E(vib)   ...       0.03 
freq.     945.76  E(vib)   ...       0.03 
freq.     976.50  E(vib)   ...       0.03 
freq.     998.26  E(vib)   ...       0.02 
freq.    1046.72  E(vib)   ...       0.02 
freq.    1058.73  E(vib)   ...       0.02 
freq.    1086.91  E(vib)   ...       0.02 
freq.    1097.58  E(vib)   ...       0.02 
freq.    1117.15  E(vib)   ...       0.01 
freq.    1125.27  E(vib)   ...       0.01 
freq.    1129.42  E(vib)   ...       0.01 
freq.    1154.06  E(vib)   ...       0.01 
freq.    1182.21  E(vib)   ...       0.01 
freq.    1194.55  E(vib)   ...       0.01 
freq.    1213.38  E(vib)   ...       0.01 
freq.    1216.02  E(vib)   ...       0.01 
freq.    1229.00  E(vib)   ...       0.01 
freq.    1260.40  E(vib)   ...       0.01 
freq.    1269.13  E(vib)   ...       0.01 
freq.    1279.77  E(vib)   ...       0.01 
freq.    1284.42  E(vib)   ...       0.01 
freq.    1298.42  E(vib)   ...       0.01 
freq.    1323.62  E(vib)   ...       0.01 
freq.    1334.22  E(vib)   ...       0.01 
freq.    1356.14  E(vib)   ...       0.01 
freq.    1367.25  E(vib)   ...       0.01 
freq.    1379.95  E(vib)   ...       0.01 
freq.    1414.23  E(vib)   ...       0.00 
freq.    1438.27  E(vib)   ...       0.00 
freq.    1471.95  E(vib)   ...       0.00 
freq.    1475.23  E(vib)   ...       0.00 
freq.    1489.33  E(vib)   ...       0.00 
freq.    1494.15  E(vib)   ...       0.00 
freq.    1500.76  E(vib)   ...       0.00 
freq.    1502.61  E(vib)   ...       0.00 
freq.    1524.27  E(vib)   ...       0.00 
freq.    1591.48  E(vib)   ...       0.00 
freq.    1600.55  E(vib)   ...       0.00 
freq.    2841.21  E(vib)   ...       0.00 
freq.    2934.15  E(vib)   ...       0.00 
freq.    2950.36  E(vib)   ...       0.00 
freq.    2965.37  E(vib)   ...       0.00 
freq.    2973.56  E(vib)   ...       0.00 
freq.    2975.00  E(vib)   ...       0.00 
freq.    2980.81  E(vib)   ...       0.00 
freq.    3024.20  E(vib)   ...       0.00 
freq.    3027.42  E(vib)   ...       0.00 
freq.    3034.65  E(vib)   ...       0.00 
freq.    3063.76  E(vib)   ...       0.00 
freq.    3073.56  E(vib)   ...       0.00 
freq.    3079.27  E(vib)   ...       0.00 
freq.    3089.23  E(vib)   ...       0.00 
freq.    3103.24  E(vib)   ...       0.00 
freq.    3229.95  E(vib)   ...       0.00 
freq.    3357.98  E(vib)   ...       0.00 
freq.    3364.04  E(vib)   ...       0.00 
freq.    3629.17  E(vib)   ...       0.00 

------------
INNER ENERGY
------------

The inner energy is: U= E(el) + E(ZPE) + E(vib) + E(rot) + E(trans)
    E(el)   - is the total energy from the electronic structure calculation
              = E(kin-el) + E(nuc-el) + E(el-el) + E(nuc-nuc)
    E(ZPE)  - the the zero temperature vibrational energy from the frequency calculation
    E(vib)  - the the finite temperature correction to E(ZPE) due to population
              of excited vibrational states
    E(rot)  - is the rotational thermal energy
    E(trans)- is the translational thermal energy

Summary of contributions to the inner energy U:
Electronic energy                ...    -44.30155097 Eh
Zero point energy                ...      0.27978486 Eh     175.57 kcal/mol
Thermal vibrational correction   ...      0.01416030 Eh       8.89 kcal/mol
Thermal rotational correction    ...      0.00141627 Eh       0.89 kcal/mol
Thermal translational correction ...      0.00141627 Eh       0.89 kcal/mol
-----------------------------------------------------------------------
Total thermal energy                    -44.00477327 Eh


Summary of corrections to the electronic energy:
(perhaps to be used in another calculation)
Total thermal correction                  0.01699284 Eh      10.66 kcal/mol
Non-thermal (ZPE) correction              0.27978486 Eh     175.57 kcal/mol
-----------------------------------------------------------------------
Total correction                          0.29677771 Eh     186.23 kcal/mol


--------
ENTHALPY
--------

The enthalpy is H = U + kB*T
                kB is Boltzmann's constant
Total free energy                 ...    -44.00477327 Eh 
Thermal Enthalpy correction       ...      0.00094421 Eh       0.59 kcal/mol
-----------------------------------------------------------------------
Total Enthalpy                    ...    -44.00382906 Eh


Note: Only C1 symmetry has been detected, increase convergence thresholds 
      if your molecule has a higher symmetry. Symmetry factor of 1.0 is   
      used for the rotational entropy correction. 
 

Note: Rotational entropy computed according to Herzberg 
Infrared and Raman Spectra, Chapter V,1, Van Nostrand Reinhold, 1945 
Point Group:  C1, Symmetry Number:   1  
Rotational constants in cm-1:     0.032854     0.010694     0.008761 

Vibrational entropy computed according to the QRRHO of S. Grimme
Chem.Eur.J. 2012 18 9955


-------
ENTROPY
-------

The entropy contributions are T*S = T*(S(el)+S(vib)+S(rot)+S(trans))
     S(el)   - electronic entropy
     S(vib)  - vibrational entropy
     S(rot)  - rotational entropy
     S(trans)- translational entropy
The entropies will be listed as mutliplied by the temperature to get
units of energy

Electronic entropy                ...      0.00000000 Eh      0.00 kcal/mol
Vibrational entropy               ...      0.02560122 Eh     16.06 kcal/mol
Rotational entropy                ...      0.01550220 Eh      9.73 kcal/mol
Translational entropy             ...      0.01983352 Eh     12.45 kcal/mol
-----------------------------------------------------------------------
Final entropy term                ...      0.06093694 Eh     38.24 kcal/mol

In case the symmetry of your molecule has not been determined correctly
or in case you have a reason to use a different symmetry number we print 
out the resulting rotational entropy values for sn=1,12 :
 --------------------------------------------------------
|  sn= 1 | S(rot)=       0.01550220 Eh      9.73 kcal/mol|
|  sn= 2 | S(rot)=       0.01484775 Eh      9.32 kcal/mol|
|  sn= 3 | S(rot)=       0.01446491 Eh      9.08 kcal/mol|
|  sn= 4 | S(rot)=       0.01419329 Eh      8.91 kcal/mol|
|  sn= 5 | S(rot)=       0.01398260 Eh      8.77 kcal/mol|
|  sn= 6 | S(rot)=       0.01381046 Eh      8.67 kcal/mol|
|  sn= 7 | S(rot)=       0.01366491 Eh      8.57 kcal/mol|
|  sn= 8 | S(rot)=       0.01353883 Eh      8.50 kcal/mol|
|  sn= 9 | S(rot)=       0.01342762 Eh      8.43 kcal/mol|
|  sn=10 | S(rot)=       0.01332814 Eh      8.36 kcal/mol|
|  sn=11 | S(rot)=       0.01323815 Eh      8.31 kcal/mol|
|  sn=12 | S(rot)=       0.01315600 Eh      8.26 kcal/mol|
 --------------------------------------------------------


-------------------
GIBBS FREE ENERGY
-------------------

The Gibbs free energy is G = H - T*S

Total enthalpy                    ...    -44.00382906 Eh 
Total entropy correction          ...     -0.06093694 Eh    -38.24 kcal/mol
-----------------------------------------------------------------------
Final Gibbs free energy         ...    -44.06476600 Eh

For completeness - the Gibbs free energy minus the electronic energy
G-E(el)                           ...      0.23678498 Eh    148.58 kcal/mol


Total Time for Numerical Frequencies  :        85.397 sec

Timings for individual modules:

Sum of individual times         ...        8.214 sec (=   0.137 min)
Geometry relaxation             ...        4.364 sec (=   0.073 min)  53.1 %
XTB module                      ...        3.850 sec (=   0.064 min)  46.9 %
                             ****ORCA TERMINATED NORMALLY****
TOTAL RUN TIME: 0 days 0 hours 1 minutes 37 seconds 661 msec
