
                                 *****************
                                 * O   R   C   A *
                                 *****************

           --- An Ab Initio, DFT and Semiempirical electronic structure package ---

                  #######################################################
                  #                        -***-                        #
                  #          Department of theory and spectroscopy      #
                  #               Directorship: Frank Neese             #
                  #        Max Planck Institute fuer Kohlenforschung    #
                  #                Kaiser Wilhelm Platz 1               #
                  #                 D-45470 Muelheim/Ruhr               #
                  #                      Germany                        #
                  #                                                     #
                  #                  All rights reserved                #
                  #                        -***-                        #
                  #######################################################


                         Program Version 4.2.1 -  RELEASE  -


 With contributions from (in alphabetic order):
   Daniel Aravena         : Magnetic Suceptibility
   Michael Atanasov       : Ab Initio Ligand Field Theory (pilot matlab implementation)
   Alexander A. Auer      : GIAO ZORA, VPT2
   Ute Becker             : Parallelization
   Giovanni Bistoni       : ED, misc. LED, open-shell LED, HFLD
   Martin Brehm           : Molecular dynamics
   Dmytro Bykov           : SCF Hessian
   Vijay G. Chilkuri      : MRCI spin determinant printing, contributions to CSF-ICE
   Dipayan Datta          : RHF DLPNO-CCSD density
   Achintya Kumar Dutta   : EOM-CC, STEOM-CC
   Dmitry Ganyushin       : Spin-Orbit,Spin-Spin,Magnetic field MRCI
   Miquel Garcia          : C-PCM Hessian, Gaussian charge scheme
   Yang Guo               : DLPNO-NEVPT2, CIM, IAO-localization
   Andreas Hansen         : Spin unrestricted coupled pair/coupled cluster methods
   Benjamin Helmich-Paris : CASSCF linear response (MC-RPA)
   Lee Huntington         : MR-EOM, pCC
   Robert Izsak           : Overlap fitted RIJCOSX, COSX-SCS-MP3, EOM
   Christian Kollmar      : KDIIS, OOCD, Brueckner-CCSD(T), CCSD density
   Simone Kossmann        : Meta GGA functionals, TD-DFT gradient, OOMP2, MP2 Hessian
   Martin Krupicka        : AUTO-CI
   Lucas Lang             : DCDCAS
   Dagmar Lenk            : GEPOL surface, SMD
   Dimitrios Liakos       : Extrapolation schemes; Compound Job, initial MDCI parallelization
   Dimitrios Manganas     : Further ROCIS development; embedding schemes
   Dimitrios Pantazis     : SARC Basis sets
   Taras Petrenko         : DFT Hessian,TD-DFT gradient, ASA, ECA, R-Raman, ABS, FL, XAS/XES, NRVS
   Peter Pinski           : DLPNO-MP2, DLPNO-MP2 Gradient
   Christoph Reimann      : Effective Core Potentials
   Marius Retegan         : Local ZFS, SOC
   Christoph Riplinger    : Optimizer, TS searches, QM/MM, DLPNO-CCSD(T), (RO)-DLPNO pert. Triples
   Tobias Risthaus        : Range-separated hybrids, TD-DFT gradient, RPA, STAB
   Michael Roemelt        : Original ROCIS implementation
   Masaaki Saitow         : Open-shell DLPNO-CCSD energy and density
   Barbara Sandhoefer     : DKH picture change effects
   Avijit Sen             : IP-ROCIS
   Kantharuban Sivalingam : CASSCF convergence, NEVPT2, FIC-MRCI
   Bernardo de Souza      : ESD, SOC TD-DFT
   Georgi Stoychev        : AutoAux, RI-MP2 NMR
   Willem Van den Heuvel  : Paramagnetic NMR
   Boris Wezisla          : Elementary symmetry handling
   Frank Wennmohs         : Technical directorship


 We gratefully acknowledge several colleagues who have allowed us to
 interface, adapt or use parts of their codes:
   Stefan Grimme, W. Hujo, H. Kruse,             : VdW corrections, initial TS optimization,
                  C. Bannwarth                     DFT functionals, gCP, sTDA/sTD-DF
   Ed Valeev, F. Pavosevic, A. Kumar             : LibInt (2-el integral package), F12 methods
   Garnet Chan, S. Sharma, J. Yang, R. Olivares  : DMRG
   Ulf Ekstrom                                   : XCFun DFT Library
   Mihaly Kallay                                 : mrcc  (arbitrary order and MRCC methods)
   Andreas Klamt, Michael Diedenhofen            : otool_cosmo (COSMO solvation model)
   Jiri Pittner, Ondrej Demel                    : Mk-CCSD
   Frank Weinhold                                : gennbo (NPA and NBO analysis)
   Christopher J. Cramer and Donald G. Truhlar   : smd solvation model
   Lars Goerigk                                  : TD-DFT with DH, B97 family of functionals
   V. Asgeirsson, H. Jonsson                     : NEB implementation
   FAccTs GmbH                                   : IRC, NEB, NEB-TS, Multilevel, MM, QM/MM, CI optimization
   S Lehtola, MJT Oliveira, MAL Marques          : LibXC Library


 Your calculation uses the libint2 library for the computation of 2-el integrals
 For citations please refer to: http://libint.valeyev.net

 Your ORCA version has been built with support for libXC version: 4.2.3
 For citations please refer to: https://tddft.org/programs/libxc/

 This ORCA versions uses:
   CBLAS   interface :  Fast vector & matrix operations
   LAPACKE interface :  Fast linear algebra routines
   SCALAPACK package :  Parallel linear algebra routines




***************************************
The coordinates will be read from file: init.xyz
***************************************


Your calculation utilizes the SMD solvation module
Please cite in your paper:
A.V. Marenich, C.J. Cramer, D.G. Truhlar J. Phys. Chem. B, 113, (2009), 6378 

Your calculation utilizes the semiempirical GFN2-xTB method
Please cite in your paper:
C. Bannwarth, Ehlert S., S. Grimme,  J. Chem. Theory Comput., 15, (2019), 1652.
   

----- Orbital basis set information -----
Your calculation utilizes the basis: def2-SVP
   F. Weigend and R. Ahlrichs, Phys. Chem. Chem. Phys. 7, 3297 (2005).

================================================================================
                                        WARNINGS
                       Please study these warnings very carefully!
================================================================================


WARNING: The environment variable RSH_COMMAND is not set!
  ===> : All Displacements for the Numerical Hessian calculation
         will be started on localhost

WARNING: Geometry Optimization
  ===> : Switching off AutoStart
         For restart on a previous wavefunction, please use MOREAD

WARNING: Found dipole moment calculation with XTB calculation
  ===> : Switching off dipole moment calculation


INFO   : the flag for use of LIBINT has been found!

================================================================================
                                       INPUT FILE
================================================================================
NAME = opt+freq.inp
|  1> ! XTB2 Opt NumFreq
|  2> 
|  3> %cpcm
|  4>  smd true
|  5>  smdsolvent "ch2cl2"
|  6> end
|  7> 
|  8> %pal
|  9>  nprocs 12
| 10> end
| 11> 
| 12> *xyzfile 0 1 init.xyz
| 13> 
| 14> 
| 15>                          ****END OF INPUT****
================================================================================

                       *****************************
                       * Geometry Optimization Run *
                       *****************************

Geometry optimization settings:
Update method            Update   .... BFGS
Choice of coordinates    CoordSys .... Z-matrix Internals
Initial Hessian          InHess   .... Almoef's Model

Convergence Tolerances:
Energy Change            TolE     ....  5.0000e-06 Eh
Max. Gradient            TolMAXG  ....  3.0000e-04 Eh/bohr
RMS Gradient             TolRMSG  ....  1.0000e-04 Eh/bohr
Max. Displacement        TolMAXD  ....  4.0000e-03 bohr
RMS Displacement         TolRMSD  ....  2.0000e-03 bohr
Strict Convergence                ....  False
------------------------------------------------------------------------------
                        ORCA OPTIMIZATION COORDINATE SETUP
------------------------------------------------------------------------------

The optimization will be done in new redundant internal coordinates
Making redundant internal coordinates   ...  (new redundants) done
Evaluating the initial hessian          ...  (Almloef) done
Evaluating the coordinates              ...  done
Calculating the B-matrix                .... done
Calculating the G-matrix                .... done
Diagonalizing the G-matrix              .... done
Small eigenvalue found = 1.814e-02
Small eigenvalue found = 2.612e-02
The first mode is                       ....  314
The number of degrees of freedom        ....  132

    -----------------------------------------------------------------
                    Redundant Internal Coordinates


    -----------------------------------------------------------------
         Definition                    Initial Value    Approx d2E/dq
    -----------------------------------------------------------------
      1. B(C   1,C   0)                  1.3911         0.622171   
      2. B(C   2,C   1)                  1.3934         0.616959   
      3. B(C   3,C   2)                  1.3957         0.611940   
      4. B(C   4,C   3)                  1.3906         0.623339   
      5. B(C   5,C   0)                  1.3915         0.621447   
      6. B(C   5,C   4)                  1.3919         0.620529   
      7. B(H   6,C   1)                  1.0831         0.369363   
      8. B(H   7,C   3)                  1.0820         0.370791   
      9. B(H   8,C   5)                  1.0822         0.370522   
     10. B(H  10,H   7)                  2.3670         0.000633   
     11. B(C  11,N   9)                  1.4654         0.424214   
     12. B(H  12,C  11)                  1.0961         0.352114   
     13. B(H  13,C  11)                  1.0938         0.355151   
     14. B(H  14,N   9)                  1.0143         0.425885   
     15. B(H  14,H  10)                  2.6097         0.000259   
     16. B(N  15,H  10)                  1.0160         0.423320   
     17. B(N  15,H   7)                  2.5929         0.001291   
     18. B(H  16,H  10)                  2.7966         0.000131   
     19. B(C  17,N  15)                  1.4657         0.423725   
     20. B(H  18,C  17)                  1.0940         0.354845   
     21. B(H  19,H  14)                  2.2906         0.000838   
     22. B(H  19,C  17)                  1.0939         0.354982   
     23. B(C  20,N   9)                  1.4313         0.480894   
     24. B(C  20,C   2)                  1.5164         0.392678   
     25. B(H  21,C  20)                  1.0944         0.354284   
     26. B(O  22,C  20)                  1.4511         0.447050   
     27. B(O  22,H  16)                  0.9656         0.509287   
     28. B(O  22,H  10)                  2.2049         0.005367   
     29. B(H  23,N  15)                  1.0147         0.425365   
     30. B(C  24,C  11)                  1.5228         0.383609   
     31. B(H  25,C  24)                  1.0944         0.354316   
     32. B(H  25,H  19)                  2.7214         0.000172   
     33. B(H  26,C  24)                  1.0937         0.355185   
     34. B(C  27,C  17)                  1.5300         0.373637   
     35. B(H  28,C  27)                  1.0954         0.353003   
     36. B(H  29,C  27)                  1.0944         0.354326   
     37. B(H  29,H  25)                  2.5923         0.000276   
     38. B(H  29,H  12)                  2.3776         0.000609   
     39. B(C  30,C  24)                  1.5276         0.376931   
     40. B(H  31,C  30)                  1.0938         0.355144   
     41. B(H  31,H  29)                  2.7834         0.000137   
     42. B(H  32,C  30)                  1.0944         0.354339   
     43. B(C  33,C  27)                  1.5282         0.376067   
     44. B(H  34,C  33)                  1.0944         0.354314   
     45. B(H  35,H  25)                  2.3415         0.000695   
     46. B(H  35,C  33)                  1.0939         0.354983   
     47. B(C  36,C  33)                  1.5269         0.377838   
     48. B(H  37,C  36)                  1.0918         0.357743   
     49. B(H  38,C  36)                  1.0927         0.356542   
     50. B(H  39,H  31)                  2.4248         0.000511   
     51. B(H  39,C  36)                  1.0919         0.357592   
     52. B(C  40,C  30)                  1.5268         0.377975   
     53. B(H  41,C  40)                  1.0917         0.357824   
     54. B(H  42,C  40)                  1.0926         0.356637   
     55. B(H  43,H  39)                  2.6435         0.000229   
     56. B(H  43,H  35)                  2.7257         0.000169   
     57. B(H  43,C  40)                  1.0921         0.357391   
     58. B(H  44,C   4)                  1.0824         0.370309   
     59. B(H  45,C   0)                  1.0823         0.370377   
     60. A(C   5,C   0,H  45)          120.0706         0.354735   
     61. A(C   1,C   0,C   5)          120.0289         0.434521   
     62. A(C   1,C   0,H  45)          119.9003         0.354805   
     63. A(C   2,C   1,H   6)          119.5087         0.354135   
     64. A(C   0,C   1,C   2)          120.5227         0.433955   
     65. A(C   0,C   1,H   6)          119.9686         0.354640   
     66. A(C   1,C   2,C  20)          120.0840         0.399831   
     67. A(C   3,C   2,C  20)          120.6420         0.399256   
     68. A(C   1,C   2,C   3)          119.2490         0.432663   
     69. A(C   4,C   3,H   7)          119.9865         0.354985   
     70. A(C   2,C   3,H   7)          119.7710         0.353877   
     71. A(C   2,C   3,C   4)          120.2424         0.433464   
     72. A(C   5,C   4,H  44)          120.0419         0.354635   
     73. A(C   3,C   4,C   5)          120.2698         0.434553   
     74. A(C   3,C   4,H  44)          119.6881         0.354907   
     75. A(C   4,C   5,H   8)          120.1541         0.354670   
     76. A(C   0,C   5,H   8)          120.1599         0.354759   
     77. A(C   0,C   5,C   4)          119.6858         0.434315   
     78. A(C   3,H   7,N  15)          161.1846         0.145139   
     79. A(H  10,H   7,N  15)           23.0646         0.099608   
     80. A(C   3,H   7,H  10)          141.5801         0.127649   
     81. A(C  11,N   9,C  20)          115.6839         0.383069   
     82. A(C  11,N   9,H  14)          110.6589         0.335585   
     83. A(H  14,N   9,C  20)          109.8716         0.342684   
     84. A(H   7,H  10,O  22)           71.0312         0.103646   
     85. A(H  14,H  10,O  22)           65.3857         0.100970   
     86. A(N  15,H  10,O  22)          161.7825         0.167936   
     87. A(H   7,H  10,H  14)           64.9517         0.094969   
     88. A(H  14,H  10,H  16)           79.7263         0.093176   
     89. A(H  16,H  10,O  22)           17.6796         0.099247   
     90. A(H   7,H  10,H  16)           66.4833         0.094110   
     91. A(H  14,H  10,N  15)          110.6196         0.121169   
     92. A(H   7,H  10,N  15)           91.0499         0.128361   
     93. A(N  15,H  10,H  16)          149.2203         0.116539   
     94. A(N   9,C  11,H  13)          107.7525         0.328444   
     95. A(N   9,C  11,H  12)          112.0330         0.327979   
     96. A(H  12,C  11,H  13)          106.8157         0.289190   
     97. A(H  13,C  11,C  24)          109.9077         0.324994   
     98. A(H  12,C  11,C  24)          109.4611         0.324536   
     99. A(N   9,C  11,C  24)          110.7687         0.370721   
    100. A(C  11,H  12,H  29)          120.0329         0.126865   
    101. A(N   9,H  14,H  10)          110.0503         0.121213   
    102. A(N   9,H  14,H  19)          154.4906         0.131000   
    103. A(H  10,H  14,H  19)           58.0211         0.095360   
    104. A(H   7,N  15,H  23)          132.9044         0.146236   
    105. A(H   7,N  15,H  10)           65.8855         0.146174   
    106. A(H   7,N  15,C  17)          116.2683         0.155349   
    107. A(H  10,N  15,C  17)          110.7090         0.335183   
    108. A(C  17,N  15,H  23)          109.8179         0.335452   
    109. A(H  10,N  15,H  23)          106.6292         0.301372   
    110. A(H  10,H  16,O  22)           43.9040         0.117716   
    111. A(H  19,C  17,C  27)          109.2755         0.323567   
    112. A(H  18,C  17,C  27)          109.1647         0.323546   
    113. A(N  15,C  17,C  27)          115.7940         0.368974   
    114. A(H  18,C  17,H  19)          106.0958         0.289518   
    115. A(N  15,C  17,H  19)          107.9821         0.328356   
    116. A(N  15,C  17,H  18)          108.0924         0.328335   
    117. A(H  14,H  19,H  25)           56.9414         0.094796   
    118. A(C  17,H  19,H  25)          118.2659         0.117500   
    119. A(H  14,H  19,C  17)          124.5776         0.129779   
    120. A(C   2,C  20,O  22)          111.4089         0.375596   
    121. A(C   2,C  20,H  21)          109.4540         0.326115   
    122. A(N   9,C  20,H  21)          107.8336         0.335201   
    123. A(N   9,C  20,O  22)          109.6363         0.386579   
    124. A(H  21,C  20,O  22)          108.0779         0.331168   
    125. A(C   2,C  20,N   9)          110.3340         0.380370   
    126. A(H  10,O  22,H  16)          118.4165         0.171309   
    127. A(H  10,O  22,C  20)          112.5951         0.181721   
    128. A(H  16,O  22,C  20)          108.6614         0.348836   
    129. A(H  26,C  24,C  30)          109.9388         0.324063   
    130. A(H  25,C  24,C  30)          109.0614         0.323933   
    131. A(C  11,C  24,C  30)          113.0136         0.365561   
    132. A(H  25,C  24,H  26)          106.5106         0.289477   
    133. A(C  11,C  24,H  26)          109.2236         0.324999   
    134. A(C  11,C  24,H  25)          108.8792         0.324869   
    135. A(H  29,H  25,H  35)           60.7280         0.095185   
    136. A(H  19,H  25,C  24)          138.3017         0.117488   
    137. A(C  24,H  25,H  29)          108.0722         0.120718   
    138. A(H  19,H  25,H  35)           60.4983         0.094555   
    139. A(C  24,H  25,H  35)          151.1966         0.128073   
    140. A(H  19,H  25,H  29)           55.8825         0.093510   
    141. A(H  29,C  27,C  33)          109.6250         0.323813   
    142. A(H  28,C  27,C  33)          109.4688         0.323614   
    143. A(C  17,C  27,C  33)          113.2305         0.363775   
    144. A(H  28,C  27,H  29)          106.4752         0.289198   
    145. A(C  17,C  27,H  29)          109.0526         0.323468   
    146. A(C  17,C  27,H  28)          108.7621         0.323270   
    147. A(H  25,H  29,H  31)           55.2963         0.093283   
    148. A(H  12,H  29,H  25)           60.6964         0.095002   
    149. A(H  25,H  29,C  27)          106.6802         0.120718   
    150. A(H  12,H  29,C  27)          152.9674         0.126918   
    151. A(C  27,H  29,H  31)          138.0115         0.116058   
    152. A(H  12,H  29,H  31)           57.3518         0.094121   
    153. A(H  31,C  30,H  32)          106.2733         0.289474   
    154. A(C  24,C  30,H  32)          109.4033         0.323936   
    155. A(C  24,C  30,H  31)          109.1767         0.324057   
    156. A(H  32,C  30,C  40)          109.5687         0.324084   
    157. A(H  31,C  30,C  40)          109.4667         0.324205   
    158. A(C  24,C  30,C  40)          112.7443         0.364637   
    159. A(C  30,H  31,H  39)          123.0084         0.125475   
    160. A(H  29,H  31,H  39)           59.3801         0.093923   
    161. A(H  29,H  31,C  30)          117.0695         0.116072   
    162. A(H  35,C  33,C  36)          109.5211         0.324161   
    163. A(H  34,C  33,C  36)          109.4571         0.324061   
    164. A(C  27,C  33,C  36)          113.0743         0.364471   
    165. A(H  34,C  33,H  35)          106.1597         0.289450   
    166. A(C  27,C  33,H  35)          109.2095         0.323911   
    167. A(C  27,C  33,H  34)          109.1841         0.323811   
    168. A(H  25,H  35,H  43)           60.3473         0.094536   
    169. A(C  33,H  35,H  43)          118.9066         0.117400   
    170. A(H  25,H  35,C  33)          123.1928         0.128089   
    171. A(H  37,C  36,H  38)          107.6798         0.290087   
    172. A(C  33,C  36,H  38)          110.9810         0.324394   
    173. A(C  33,C  36,H  37)          111.5880         0.324574   
    174. A(H  38,C  36,H  39)          107.5784         0.290068   
    175. A(H  37,C  36,H  39)          107.6751         0.290221   
    176. A(C  33,C  36,H  39)          111.1543         0.324551   
    177. A(C  36,H  39,H  43)          106.0311         0.119459   
    178. A(H  31,H  39,C  36)          147.5969         0.125532   
    179. A(H  31,H  39,H  43)           59.4714         0.094531   
    180. A(H  42,C  40,H  43)          107.5943         0.290055   
    181. A(H  41,C  40,H  43)          107.6892         0.290206   
    182. A(C  30,C  40,H  43)          111.0560         0.324540   
    183. A(H  41,C  40,H  42)          107.7439         0.290110   
    184. A(C  30,C  40,H  42)          111.0687         0.324428   
    185. A(C  30,C  40,H  41)          111.5102         0.324605   
    186. A(H  39,H  43,C  40)          107.8021         0.119456   
    187. A(H  35,H  43,C  40)          137.0347         0.117444   
    188. A(H  35,H  43,H  39)           56.1084         0.093307   
    189. D(C   2,C   1,C   0,C   5)      0.0858         0.026797   
    190. D(H   6,C   1,C   0,H  45)      0.3294         0.026797   
    191. D(C   2,C   1,C   0,H  45)   -179.7462         0.026797   
    192. D(H   6,C   1,C   0,C   5)   -179.8386         0.026797   
    193. D(C  20,C   2,C   1,C   0)   -177.9895         0.026323   
    194. D(C   3,C   2,C   1,H   6)   -179.8680         0.026323   
    195. D(C   3,C   2,C   1,C   0)      0.2072         0.026323   
    196. D(C  20,C   2,C   1,H   6)      1.9352         0.026323   
    197. D(C   4,C   3,C   2,C  20)    177.7585         0.025872   
    198. D(C   4,C   3,C   2,C   1)     -0.4279         0.025872   
    199. D(H   7,C   3,C   2,C   1)    179.5129         0.025872   
    200. D(H   7,C   3,C   2,C  20)     -2.3006         0.025872   
    201. D(C   5,C   4,C   3,C   2)      0.3575         0.026904   
    202. D(C   5,C   4,C   3,H   7)   -179.5832         0.026904   
    203. D(H  44,C   4,C   3,C   2)   -179.8001         0.026904   
    204. D(H  44,C   4,C   3,H   7)      0.2592         0.026904   
    205. D(C   4,C   5,C   0,H  45)    179.6720         0.026731   
    206. D(H   8,C   5,C   4,H  44)     -0.0848         0.026648   
    207. D(H   8,C   5,C   0,C   1)   -179.9780         0.026731   
    208. D(C   0,C   5,C   4,H  44)   -179.9031         0.026648   
    209. D(H   8,C   5,C   0,H  45)     -0.1463         0.026731   
    210. D(C   4,C   5,C   0,C   1)     -0.1597         0.026731   
    211. D(H   8,C   5,C   4,C   3)    179.7570         0.026648   
    212. D(C   0,C   5,C   4,C   3)     -0.0613         0.026648   
    213. D(N  15,H   7,C   3,C   2)     28.4328         0.130455   
    214. D(N  15,H   7,C   3,C   4)   -151.6262         0.130455   
    215. D(H  10,H   7,C   3,C   4)   -178.7036         0.130455   
    216. D(H  10,H   7,C   3,C   2)      1.3554         0.130455   
    217. D(H  14,H  10,H   7,N  15)   -112.3474         0.001505   
    218. D(N  15,H  10,H   7,C   3)    157.9922         0.001505   
    219. D(H  14,H  10,H   7,C   3)     45.6447         0.001505   
    220. D(H  16,H  10,H   7,C   3)    -43.7059         0.001505   
    221. D(H  16,H  10,H   7,N  15)    158.3019         0.001505   
    222. D(O  22,H  10,H   7,N  15)    176.6494         0.001505   
    223. D(O  22,H  10,H   7,C   3)    -25.3585         0.001505   
    224. D(H  12,C  11,N   9,C  20)    -58.6688         0.015343   
    225. D(C  24,C  11,N   9,H  14)    -55.4448         0.015343   
    226. D(C  24,C  11,N   9,C  20)    178.7924         0.015343   
    227. D(H  13,C  11,N   9,C  20)     58.5412         0.015343   
    228. D(H  13,C  11,N   9,H  14)   -175.6960         0.015343   
    229. D(H  12,C  11,N   9,H  14)     67.0940         0.015343   
    230. D(H  29,H  12,C  11,C  24)     41.5496         0.115025   
    231. D(H  29,H  12,C  11,H  13)    160.5005         0.115025   
    232. D(H  29,H  12,C  11,N   9)    -81.7292         0.115025   
    233. D(H  19,H  14,H  10,O  22)   -177.1149         0.001501   
    234. D(H  19,H  14,H  10,H   7)    103.2872         0.001501   
    235. D(N   9,H  14,H  10,O  22)    -22.3242         0.001501   
    236. D(N   9,H  14,H  10,H  16)    -33.2010         0.001501   
    237. D(N   9,H  14,H  10,H   7)   -101.9220         0.001501   
    238. D(N   9,H  14,H  10,N  15)    176.9503         0.001501   
    239. D(H  19,H  14,H  10,H  16)    172.0083         0.001501   
    240. D(H  10,H  14,N   9,C  11)    -77.7462         0.230260   
    241. D(H  10,H  14,N   9,C  20)     51.2150         0.230260   
    242. D(H  19,H  14,N   9,C  11)    -20.7202         0.230260   
    243. D(H  19,H  14,H  10,N  15)     22.1595         0.001501   
    244. D(H  19,H  14,N   9,C  20)    108.2411         0.230260   
    245. D(C  17,N  15,H  10,H   7)   -110.4360         0.285351   
    246. D(H  23,N  15,H   7,C   3)   -136.9106         0.001501   
    247. D(H  10,N  15,H   7,C   3)    -46.2218         0.001501   
    248. D(C  17,N  15,H   7,C   3)     55.9667         0.001501   
    249. D(C  17,N  15,H  10,H  14)    -46.8940         0.285351   
    250. D(C  17,N  15,H   7,H  10)    102.1884         0.001501   
    251. D(H  23,N  15,H   7,H  10)    -90.6888         0.001501   
    252. D(H   7,N  15,H  10,O  22)    -10.1835         0.285351   
    253. D(H  23,N  15,H  10,O  22)    119.9622         0.285351   
    254. D(H   7,N  15,H  10,H  14)     63.5420         0.285351   
    255. D(H  23,N  15,H  10,H  16)     88.6575         0.285351   
    256. D(H  23,N  15,H  10,H  14)   -166.3123         0.285351   
    257. D(H  23,N  15,H  10,H   7)    130.1457         0.285351   
    258. D(C  17,N  15,H  10,O  22)   -120.6195         0.285351   
    259. D(C  17,N  15,H  10,H  16)   -151.9242         0.285351   
    260. D(H   7,N  15,H  10,H  16)    -41.4882         0.285351   
    261. D(O  22,H  16,H  10,H  14)     34.3942         0.001500   
    262. D(O  22,H  16,H  10,H   7)    101.4161         0.001500   
    263. D(O  22,H  16,H  10,N  15)    147.6649         0.001500   
    264. D(C  27,C  17,N  15,H   7)   -133.6497         0.016400   
    265. D(C  27,C  17,N  15,H  23)     56.3430         0.016400   
    266. D(C  27,C  17,N  15,H  10)    -61.1373         0.016400   
    267. D(H  19,C  17,N  15,H   7)    -10.8070         0.016400   
    268. D(H  19,C  17,N  15,H  23)    179.1857         0.016400   
    269. D(H  19,C  17,N  15,H  10)     61.7053         0.016400   
    270. D(H  18,C  17,N  15,H   7)    103.5666         0.016400   
    271. D(H  18,C  17,N  15,H  23)    -66.4408         0.016400   
    272. D(H  18,C  17,N  15,H  10)    176.0789         0.016400   
    273. D(H  25,H  19,C  17,C  27)     16.9183         0.127950   
    274. D(H  25,H  19,C  17,H  18)    134.4916         0.127950   
    275. D(H  25,H  19,C  17,N  15)   -109.8200         0.127950   
    276. D(H  14,H  19,C  17,C  27)     84.4847         0.127950   
    277. D(H  14,H  19,C  17,H  18)   -157.9421         0.127950   
    278. D(H  14,H  19,C  17,N  15)    -42.2536         0.127950   
    279. D(H  25,H  19,H  14,H  10)    120.5883         0.001507   
    280. D(H  25,H  19,H  14,N   9)     52.2988         0.001507   
    281. D(C  17,H  19,H  14,H  10)     16.8414         0.001507   
    282. D(C  17,H  19,H  14,N   9)    -51.4481         0.001507   
    283. D(O  22,C  20,N   9,H  14)    -66.8908         0.019783   
    284. D(O  22,C  20,N   9,C  11)     59.2726         0.019783   
    285. D(H  21,C  20,N   9,H  14)    175.6649         0.019783   
    286. D(H  21,C  20,N   9,C  11)    -58.1717         0.019783   
    287. D(C   2,C  20,N   9,H  14)     56.1708         0.019783   
    288. D(C   2,C  20,N   9,C  11)   -177.6657         0.019783   
    289. D(O  22,C  20,C   2,C   3)     43.2212         0.011464   
    290. D(O  22,C  20,C   2,C   1)   -138.6075         0.011464   
    291. D(H  21,C  20,C   2,C   3)    162.6917         0.011464   
    292. D(H  21,C  20,C   2,C   1)    -19.1370         0.011464   
    293. D(N   9,C  20,C   2,C   3)    -78.8005         0.011464   
    294. D(N   9,C  20,C   2,C   1)     99.3708         0.011464   
    295. D(H  10,O  22,C  20,H  21)    160.0238         0.017046   
    296. D(H  10,O  22,C  20,C   2)    -79.6918         0.017046   
    297. D(H  16,O  22,C  20,N   9)    175.9361         0.017046   
    298. D(H  16,O  22,C  20,C   2)     53.5119         0.017046   
    299. D(C  20,O  22,H  16,H  10)   -130.0780         0.327755   
    300. D(H  16,O  22,C  20,H  21)    -66.7725         0.017046   
    301. D(C  20,O  22,H  10,H  16)    128.2598         0.001520   
    302. D(C  20,O  22,H  10,H  14)    -14.0507         0.001520   
    303. D(C  20,O  22,H  10,H   7)     56.3786         0.001520   
    304. D(C  20,O  22,H  10,N  15)     67.1518         0.001520   
    305. D(H  16,O  22,H  10,H  14)   -142.3105         0.001520   
    306. D(H  10,O  22,C  20,N   9)     42.7324         0.017046   
    307. D(H  16,O  22,H  10,H   7)    -71.8813         0.001520   
    308. D(H  16,O  22,H  10,N  15)    -61.1080         0.001520   
    309. D(H  26,C  24,C  11,H  13)     59.7977         0.011717   
    310. D(H  26,C  24,C  11,H  12)    176.8169         0.011717   
    311. D(C  30,C  24,C  11,N   9)    178.1228         0.011717   
    312. D(H  26,C  24,C  11,N   9)    -59.1599         0.011717   
    313. D(H  25,C  24,C  11,H  13)    175.7314         0.011717   
    314. D(H  25,C  24,C  11,H  12)    -67.2493         0.011717   
    315. D(H  25,C  24,C  11,N   9)     56.7739         0.011717   
    316. D(C  30,C  24,C  11,H  13)    -62.9197         0.011717   
    317. D(C  30,C  24,C  11,H  12)     54.0996         0.011717   
    318. D(H  35,H  25,C  24,C  30)    -10.3627         0.137321   
    319. D(H  35,H  25,C  24,C  11)    113.3691         0.137321   
    320. D(H  29,H  25,C  24,C  30)    -72.0668         0.137321   
    321. D(H  29,H  25,C  24,H  26)    169.3303         0.137321   
    322. D(H  29,H  25,C  24,C  11)     51.6650         0.137321   
    323. D(H  19,H  25,C  24,C  30)   -130.6897         0.137321   
    324. D(H  19,H  25,C  24,H  26)    110.7075         0.137321   
    325. D(H  19,H  25,C  24,C  11)     -6.9578         0.137321   
    326. D(H  35,H  25,H  19,H  14)   -179.1304         0.001500   
    327. D(H  35,H  25,H  19,C  17)    -64.3676         0.001500   
    328. D(H  29,H  25,H  19,H  14)   -106.3032         0.001500   
    329. D(H  29,H  25,H  19,C  17)      8.4596         0.001500   
    330. D(H  35,H  25,C  24,H  26)   -128.9655         0.137321   
    331. D(C  24,H  25,H  19,H  14)    -27.6740         0.001500   
    332. D(C  24,H  25,H  19,C  17)     87.0887         0.001500   
    333. D(C  33,C  27,C  17,H  19)     59.6106         0.011147   
    334. D(C  33,C  27,C  17,H  18)    -56.0147         0.011147   
    335. D(C  33,C  27,C  17,N  15)   -178.2311         0.011147   
    336. D(H  29,C  27,C  17,H  19)    -62.7275         0.011147   
    337. D(H  29,C  27,C  17,H  18)   -178.3528         0.011147   
    338. D(H  29,C  27,C  17,N  15)     59.4308         0.011147   
    339. D(H  28,C  27,C  17,H  19)   -178.4611         0.011147   
    340. D(H  28,C  27,C  17,H  18)     65.9136         0.011147   
    341. D(H  28,C  27,C  17,N  15)    -56.3028         0.011147   
    342. D(H  31,H  29,C  27,C  33)      3.0843         0.137330   
    343. D(H  31,H  29,C  27,H  28)   -115.2394         0.137330   
    344. D(H  31,H  29,C  27,C  17)    127.5679         0.137330   
    345. D(H  25,H  29,C  27,H  28)   -171.4934         0.137330   
    346. D(H  25,H  29,C  27,C  17)     71.3139         0.137330   
    347. D(H  12,H  29,C  27,C  33)   -110.6945         0.137330   
    348. D(H  12,H  29,C  27,C  17)     13.7891         0.137330   
    349. D(H  31,H  29,H  25,H  35)   -108.3167         0.001501   
    350. D(H  31,H  29,H  25,H  19)    179.2695         0.001501   
    351. D(H  31,H  29,H  25,C  24)     42.5833         0.001501   
    352. D(H  12,H  29,H  25,H  35)   -176.9816         0.001501   
    353. D(H  12,H  29,H  25,H  19)    110.6045         0.001501   
    354. D(H  12,H  29,C  27,H  28)    130.9818         0.137330   
    355. D(H  12,H  29,H  25,C  24)    -26.0817         0.001501   
    356. D(C  27,H  29,H  25,H  35)     29.1023         0.001501   
    357. D(C  27,H  29,H  25,H  19)    -43.3115         0.001501   
    358. D(H  25,H  29,C  27,C  33)    -53.1697         0.137330   
    359. D(C  27,H  29,H  25,C  24)   -179.9977         0.001501   
    360. D(H  31,H  29,H  12,C  11)    -79.4496         0.001504   
    361. D(H  25,H  29,H  12,C  11)    -14.0183         0.001504   
    362. D(C  27,H  29,H  12,C  11)     53.9091         0.001504   
    363. D(C  40,C  30,C  24,H  25)    -57.4689         0.011333   
    364. D(C  40,C  30,C  24,C  11)   -178.7148         0.011333   
    365. D(H  32,C  30,C  24,H  26)    -63.2214         0.011333   
    366. D(H  32,C  30,C  24,H  25)   -179.6573         0.011333   
    367. D(H  32,C  30,C  24,C  11)     59.0968         0.011333   
    368. D(H  31,C  30,C  24,H  26)   -179.1367         0.011333   
    369. D(H  31,C  30,C  24,H  25)     64.4274         0.011333   
    370. D(C  40,C  30,C  24,H  26)     58.9670         0.011333   
    371. D(H  31,C  30,C  24,C  11)    -56.8185         0.011333   
    372. D(H  39,H  31,C  30,C  40)     34.7794         0.128092   
    373. D(H  39,H  31,C  30,H  32)    153.0250         0.128092   
    374. D(H  39,H  31,C  30,C  24)    -89.0746         0.128092   
    375. D(H  29,H  31,C  30,C  40)    104.2855         0.128092   
    376. D(H  29,H  31,C  30,H  32)   -137.4689         0.128092   
    377. D(H  29,H  31,C  30,C  24)    -19.5685         0.128092   
    378. D(H  39,H  31,H  29,H  25)    107.8093         0.001500   
    379. D(H  39,H  31,H  29,H  12)   -177.4596         0.001500   
    380. D(H  39,H  31,H  29,C  27)     32.1416         0.001500   
    381. D(C  30,H  31,H  29,H  25)     -6.2968         0.001500   
    382. D(C  30,H  31,H  29,H  12)     68.4343         0.001500   
    383. D(C  30,H  31,H  29,C  27)    -81.9645         0.001500   
    384. D(C  36,C  33,C  27,H  29)    -58.7326         0.011284   
    385. D(C  36,C  33,C  27,H  28)     57.7163         0.011284   
    386. D(C  36,C  33,C  27,C  17)    179.2486         0.011284   
    387. D(H  35,C  33,C  27,H  29)     63.4796         0.011284   
    388. D(H  35,C  33,C  27,H  28)    179.9286         0.011284   
    389. D(H  35,C  33,C  27,C  17)    -58.5392         0.011284   
    390. D(H  34,C  33,C  27,H  29)    179.1555         0.011284   
    391. D(H  34,C  33,C  27,H  28)    -64.3956         0.011284   
    392. D(H  34,C  33,C  27,C  17)     57.1367         0.011284   
    393. D(H  43,H  35,C  33,C  36)     18.1500         0.127951   
    394. D(H  43,H  35,C  33,C  27)   -106.1740         0.127951   
    395. D(H  25,H  35,C  33,C  36)     89.8428         0.127951   
    396. D(H  25,H  35,C  33,H  34)   -152.0785         0.127951   
    397. D(H  25,H  35,C  33,C  27)    -34.4812         0.127951   
    398. D(H  43,H  35,H  25,H  29)    115.6125         0.001505   
    399. D(H  43,H  35,H  25,H  19)   -179.3252         0.001505   
    400. D(H  43,H  35,H  25,C  24)     41.9531         0.001505   
    401. D(C  33,H  35,H  25,H  29)      8.6201         0.001505   
    402. D(H  43,H  35,C  33,H  34)    136.2287         0.127951   
    403. D(C  33,H  35,H  25,H  19)     73.6824         0.001505   
    404. D(C  33,H  35,H  25,C  24)    -65.0393         0.001505   
    405. D(H  39,C  36,C  33,H  35)    -63.2125         0.011385   
    406. D(H  39,C  36,C  33,H  34)   -179.2157         0.011385   
    407. D(H  39,C  36,C  33,C  27)     58.8253         0.011385   
    408. D(H  38,C  36,C  33,H  35)    177.1032         0.011385   
    409. D(H  38,C  36,C  33,H  34)     61.1000         0.011385   
    410. D(H  38,C  36,C  33,C  27)    -60.8590         0.011385   
    411. D(H  37,C  36,C  33,H  35)     57.0014         0.011385   
    412. D(H  37,C  36,C  33,H  34)    -59.0018         0.011385   
    413. D(H  37,C  36,C  33,C  27)    179.0393         0.011385   
    414. D(H  43,H  39,C  36,H  37)    -53.6092         0.130251   
    415. D(H  43,H  39,C  36,C  33)     68.8956         0.130251   
    416. D(H  31,H  39,C  36,H  38)    132.8329         0.130251   
    417. D(H  31,H  39,C  36,H  37)   -111.3621         0.130251   
    418. D(H  31,H  39,C  36,C  33)     11.1427         0.130251   
    419. D(H  43,H  39,H  31,H  29)   -113.7624         0.001503   
    420. D(H  43,H  39,H  31,C  30)     -9.5155         0.001503   
    421. D(C  36,H  39,H  31,H  29)    -43.0830         0.001503   
    422. D(H  43,H  39,C  36,H  38)   -169.4142         0.130251   
    423. D(C  36,H  39,H  31,C  30)     61.1639         0.001503   
    424. D(H  43,C  40,C  30,H  32)   -178.9485         0.011393   
    425. D(H  43,C  40,C  30,H  31)    -62.7761         0.011393   
    426. D(H  43,C  40,C  30,C  24)     58.9563         0.011393   
    427. D(H  42,C  40,C  30,H  32)     61.3542         0.011393   
    428. D(H  42,C  40,C  30,H  31)    177.5266         0.011393   
    429. D(H  42,C  40,C  30,C  24)    -60.7410         0.011393   
    430. D(H  41,C  40,C  30,H  32)    -58.8361         0.011393   
    431. D(H  41,C  40,C  30,H  31)     57.3363         0.011393   
    432. D(H  41,C  40,C  30,C  24)    179.0687         0.011393   
    433. D(H  35,H  43,C  40,H  41)   -129.1869         0.130073   
    434. D(H  35,H  43,C  40,C  30)     -6.8304         0.130073   
    435. D(H  35,H  43,H  39,H  31)    107.6822         0.001501   
    436. D(H  35,H  43,H  39,C  36)    -40.5718         0.001501   
    437. D(C  40,H  43,H  39,H  31)    -27.5669         0.001501   
    438. D(C  40,H  43,H  39,C  36)   -175.8209         0.001501   
    439. D(H  39,H  43,H  35,H  25)   -107.3119         0.001500   
    440. D(H  39,H  43,H  35,C  33)      6.5956         0.001500   
    441. D(C  40,H  43,H  35,H  25)    -27.7315         0.001500   
    442. D(H  35,H  43,C  40,H  42)    114.9183         0.130073   
    443. D(C  40,H  43,H  35,C  33)     86.1760         0.001500   
    444. D(H  39,H  43,C  40,H  42)    173.9510         0.130073   
    445. D(H  39,H  43,C  40,H  41)    -70.1541         0.130073   
    446. D(H  39,H  43,C  40,C  30)     52.2024         0.130073   
    -----------------------------------------------------------------

Number of atoms                         .... 46
Number of degrees of freedom            .... 446

         *************************************************************
         *                GEOMETRY OPTIMIZATION CYCLE   1            *
         *************************************************************
      -----------------------------------------------------------      
     |                   =====================                   |     
     |                           x T B                           |     
     |                   =====================                   |     
     |                         S. Grimme                         |     
     |          Mulliken Center for Theoretical Chemistry        |     
     |                    University of Bonn                     |     
      -----------------------------------------------------------      

   * xtb version 6.3.0 (49875a8) compiled by 'schneider@apollo14' on 2020-05-23

   xtb is free software: you can redistribute it and/or modify it under
   the terms of the GNU Lesser General Public License as published by
   the Free Software Foundation, either version 3 of the License, or
   (at your option) any later version.
   
   xtb is distributed in the hope that it will be useful,
   but WITHOUT ANY WARRANTY; without even the implied warranty of
   MERCHANTABILITY or FITNESS FOR A PARTICULAR PURPOSE.  See the
   GNU Lesser General Public License for more details.
   
   Cite this work as:
   * S. Grimme, C. Bannwarth, P. Shushkov, J. Chem. Theory Comput., 2017,
     13, 1989-2009. DOI: 10.1021/acs.jctc.7b00118
   * C. Bannwarth, S. Ehlert and S. Grimme., J. Chem. Theory Comput., 2019,
     15, 1652-1671. DOI: 10.1021/acs.jctc.8b01176
   * P. Pracht, E. Caldeweyher, S. Ehlert, S. Grimme, ChemRxiv, 2019, preprint.
     DOI: 10.26434/chemrxiv.8326202.v1
   
   for GFN-FF:
   * S. Spicher and S. Grimme, Angew. Chem. Int. Ed., 2020,
     DOI: 10.1002/anie.202004239
   
   for DFT-D4:
   * E. Caldeweyher, C. Bannwarth and S. Grimme, J. Chem. Phys., 2017,
     147, 034112. DOI: 10.1063/1.4993215
   * E. Caldeweyher, S. Ehlert, A. Hansen, H. Neugebauer, S. Spicher,
     C. Bannwarth and S. Grimme, J. Chem. Phys., 2019, 150, 154122.
     DOI: 10.1063/1.5090222
   
   for sTDA-xTB:
   * S. Grimme and C. Bannwarth, J. Chem. Phys., 2016, 145, 054103.
     DOI: 10.1063/1.4959605
   
   in the mass-spec context:
   * V. Asgeirsson, C. Bauer and S. Grimme, Chem. Sci., 2017, 8, 4879.
     DOI: 10.1039/c7sc00601b
   * J. Koopman and S. Grimme, ACS Omega 2019, 4, 12, 15120-15133.
     DOI: 10.1021/acsomega.9b02011
   
   for metadynamics refer to:
   * S. Grimme, J. Chem. Theory Comput., 2019, 155, 2847-2862
     DOI: 10.1021/acs.jctc.9b00143
   
   with help from (in alphabetical order)
   C. Bannwarth, F. Bohle, G. Brandenburg, E. Caldeweyher, M. Checinski,
   S. Dohm, S. Ehlert, S. Ehrlich, F. März, H. Neugebauer, J. Pisarek,
   P. Pracht, P. Shushkov, and S. Spicher.
   
 * started run on 2020/06/19 at 17:37:16.065     

           -------------------------------------------------
          |                Calculation Setup                |
           -------------------------------------------------

          program call               : /opt/orca/otool_xtb opt+freq_XTB.xyz --grad -c 0 -u 0 -P 12 --namespace opt+freq --gbsa CH2Cl2
          calculation namespace      : opt+freq
          coordinate file            : opt+freq_XTB.xyz
          number of atoms            :                    46
          number of electrons        :                   104
          charge                     :                     0
          spin                       :                   0.0
          first test random number   :      0.47594966883834

   ID    Z sym.   atoms
    1    6 C      1-6, 12, 18, 21, 25, 28, 31, 34, 37, 41
    2    1 H      7-9, 11, 13-15, 17, 19, 20, 22, 24, 26, 27, 29, 30, 32, 33,
                  35, 36, 38-40, 42-46
    3    7 N      10, 16
    4    8 O      23

molecular fragmentation (1/2 indicates fragments):
1111111111211112122211121112221112222222111111
# atoms in fragment 1/2:    30    16
 fragment masses (1/2) :      179.26       73.14
CMA distance (Bohr)    :   8.710
constraining FC (au)   :  0.0500
########################################################################
[WARNING] Please study the warnings concerning your input carefully
-1- prog_main_parseArguments: Process number higher than OMP_NUM_THREADS, I hope you know what you are doing.
########################################################################
 Solvent             : CH2Cl2
 Using internal parameter file: .param_gbsa2_CH2Cl2
 Gsolv ref. state (COSMO-RS): gsolv [1 M gas/solution]
 temperature (mdtemp)       :    298.14999999999998     
 dielectric constant        :    8.9299999999999997     
 rho                        :    1.3300000000000003     
 mass                       :    84.930000000000007     
 surface tension            :    15.568945408385856     
 probe radius               :   0.71987590000000001     
 Gshift (Eh)                :    4.4408291734517593E-003
 c1                         :    1.4917377599999999     
 soset                      :    0.0000000000000000     
 HB correction              :  F

           -------------------------------------------------
          |                 G F N 2 - x T B                 |
           -------------------------------------------------

        Reference                      10.1021/acs.jctc.8b01176
      * Hamiltonian:
        H0-scaling (s, p, d)           1.850000    2.230000    2.230000
        zeta-weighting                 0.500000
      * Dispersion:
        s8                             2.700000
        a1                             0.520000
        a2                             5.000000
        s9                             5.000000
      * Repulsion:
        kExp                           1.500000    1.000000
        rExp                           1.000000
      * Coulomb:
        alpha                          2.000000
        third order                    shell-resolved
        anisotropic                    true
        a3                             3.000000
        a5                             4.000000
        cn-shift                       1.200000
        cn-exp                         4.000000
        max-rad                        5.000000


          ...................................................
          :                      SETUP                      :
          :.................................................:
          :  # basis functions                 100          :
          :  # atomic orbitals                 100          :
          :  # shells                           64          :
          :  # electrons                       104          :
          :  max. iterations                   250          :
          :  Hamiltonian                  GFN2-xTB          :
          :  restarted?                      false          :
          :  GBSA solvation                   true          :
          :  PC potential                    false          :
          :  electronic temp.          300.0000000     K    :
          :  accuracy                    1.0000000          :
          :  -> integral cutoff          0.2500000E+02      :
          :  -> integral neglect         0.1000000E-07      :
          :  -> SCF convergence          0.1000000E-05 Eh   :
          :  -> wf. convergence          0.1000000E-03 e    :
          :  Broyden damping             0.4000000          :
          ...................................................

 iter      E             dE          RMSdq      gap      omega  full diag
   1    -57.0246714 -0.570247E+02  0.326E+00    3.80       0.0  T
   2    -57.0919219 -0.672506E-01  0.185E+00    3.90       1.0  T
   3    -57.0933796 -0.145765E-02  0.654E-01    3.86       1.0  T
   4    -57.0938464 -0.466810E-03  0.210E-01    3.87       1.0  T
   5    -57.0956163 -0.176987E-02  0.663E-02    3.85       1.0  T
   6    -57.0956591 -0.427964E-04  0.262E-02    3.86       1.0  T
   7    -57.0956602 -0.114170E-05  0.792E-03    3.86       1.9  T
   8    -57.0956611 -0.926076E-06  0.246E-03    3.86       6.0  T
   9    -57.0956613 -0.118154E-06  0.122E-03    3.86      12.1  T
  10    -57.0956613 -0.390927E-08  0.414E-04    3.86      35.6  T
  11    -57.0956613 -0.291315E-08  0.157E-04    3.86      94.2  T

   *** convergence criteria satisfied after 11 iterations ***

         #    Occupation            Energy/Eh            Energy/eV
      -------------------------------------------------------------
         1        2.0000           -0.6973371             -18.9755
       ...           ...                  ...                  ...
        46        2.0000           -0.4229909             -11.5102
        47        2.0000           -0.4201957             -11.4341
        48        2.0000           -0.4157989             -11.3145
        49        2.0000           -0.4054671             -11.0333
        50        2.0000           -0.4031341             -10.9698
        51        2.0000           -0.3736145             -10.1666
        52        2.0000           -0.3721364             -10.1263 (HOMO)
        53                         -0.2303446              -6.2680 (LUMO)
        54                         -0.2267629              -6.1705
        55                         -0.1032933              -2.8108
        56                          0.0115088               0.3132
        57                          0.0214181               0.5828
       ...                                ...                  ...
       100                          0.6435452              17.5118
      -------------------------------------------------------------
                  HL-Gap            0.1417918 Eh            3.8584 eV
             Fermi-level           -0.3012405 Eh           -8.1972 eV

 SCC (total)                   0 d,  0 h,  0 min,  0.173 sec
 SCC setup                      ...        0 min,  0.002 sec (  1.236%)
 Dispersion                     ...        0 min,  0.001 sec (  0.490%)
 classical contributions        ...        0 min,  0.000 sec (  0.181%)
 integral evaluation            ...        0 min,  0.029 sec ( 16.677%)
 iterations                     ...        0 min,  0.087 sec ( 50.479%)
 molecular gradient             ...        0 min,  0.050 sec ( 28.742%)
 printout                       ...        0 min,  0.004 sec (  2.182%)

         :::::::::::::::::::::::::::::::::::::::::::::::::::::
         ::                     SUMMARY                     ::
         :::::::::::::::::::::::::::::::::::::::::::::::::::::
         :: total energy             -56.312505729314 Eh    ::
         :: total w/o Gsasa/hb       -56.290777712018 Eh    ::
         :: gradient norm              0.025682748098 Eh/a0 ::
         :: HOMO-LUMO gap              3.858350914363 eV    ::
         ::.................................................::
         :: SCC energy               -57.117389276795 Eh    ::
         :: -> isotropic ES            0.056242951656 Eh    ::
         :: -> anisotropic ES          0.008404394219 Eh    ::
         :: -> anisotropic XC          0.035552324777 Eh    ::
         :: -> dispersion             -0.039226750452 Eh    ::
         :: -> Gsolv                  -0.026129690580 Eh    ::
         ::    -> Gborn               -0.004401673284 Eh    ::
         ::    -> Gsasa               -0.026168846470 Eh    ::
         ::    -> Ghb                  0.000000000000 Eh    ::
         ::    -> Gshift               0.004440829173 Eh    ::
         :: repulsion energy           0.804293696814 Eh    ::
         :: add. restraining           0.000000000000 Eh    ::
         :::::::::::::::::::::::::::::::::::::::::::::::::::::

           -------------------------------------------------
          |                Property Printout                |
           -------------------------------------------------

    * Orbital Energies and Occupations

         #    Occupation            Energy/Eh            Energy/eV
      -------------------------------------------------------------
         1        2.0000           -0.6973371             -18.9755
       ...           ...                  ...                  ...
        40        2.0000           -0.4430598             -12.0563
        41        2.0000           -0.4398405             -11.9687
        42        2.0000           -0.4393174             -11.9544
        43        2.0000           -0.4352901             -11.8448
        44        2.0000           -0.4349219             -11.8348
        45        2.0000           -0.4291514             -11.6778
        46        2.0000           -0.4229909             -11.5102
        47        2.0000           -0.4201957             -11.4341
        48        2.0000           -0.4157989             -11.3145
        49        2.0000           -0.4054671             -11.0333
        50        2.0000           -0.4031341             -10.9698
        51        2.0000           -0.3736145             -10.1666
        52        2.0000           -0.3721364             -10.1263 (HOMO)
        53                         -0.2303446              -6.2680 (LUMO)
        54                         -0.2267629              -6.1705
        55                         -0.1032933              -2.8108
        56                          0.0115088               0.3132
        57                          0.0214181               0.5828
        58                          0.0306381               0.8337
        59                          0.0577140               1.5705
        60                          0.0753738               2.0510
        61                          0.0868252               2.3626
        62                          0.0938969               2.5551
        63                          0.1087450               2.9591
       ...                                ...                  ...
       100                          0.6435452              17.5118
      -------------------------------------------------------------
                  HL-Gap            0.1417918 Eh            3.8584 eV
             Fermi-level           -0.3012405 Eh           -8.1972 eV

     #   Z        covCN         q      C6AA      α(0)
     1   6 C      2.914    -0.029    28.731     8.790
     2   6 C      2.918    -0.037    28.910     8.817
     3   6 C      2.967    -0.016    28.403     8.742
     4   6 C      2.918    -0.036    28.892     8.814
     5   6 C      2.915    -0.030    28.750     8.793
     6   6 C      2.914    -0.030    28.754     8.793
     7   1 H      0.925     0.035     2.517     2.481
     8   1 H      0.925     0.052     2.290     2.367
     9   1 H      0.925     0.040     2.447     2.446
    10   7 N      2.682    -0.281    27.243     7.752
    11   1 H      0.860     0.162     1.321     1.800
    12   6 C      3.740     0.022    20.281     6.426
    13   1 H      0.924     0.015     2.815     2.624
    14   1 H      0.924     0.031     2.568     2.506
    15   1 H      0.860     0.157     1.355     1.824
    16   7 N      2.627    -0.378    29.777     8.104
    17   1 H      0.805     0.295     0.736     1.348
    18   6 C      3.731     0.020    20.322     6.435
    19   1 H      0.924     0.030     2.590     2.517
    20   1 H      0.924     0.023     2.691     2.565
    21   6 C      3.666     0.180    17.957     6.077
    22   1 H      0.924     0.018     2.764     2.600
    23   8 O      1.650    -0.495    22.792     6.445
    24   1 H      0.860     0.137     1.495     1.916
    25   6 C      3.802    -0.065    21.749     6.640
    26   1 H      0.924     0.038     2.479     2.462
    27   1 H      0.924     0.042     2.419     2.432
    28   6 C      3.800    -0.065    21.749     6.640
    29   1 H      0.924     0.025     2.658     2.549
    30   1 H      0.924     0.030     2.593     2.518
    31   6 C      3.800    -0.050    21.469     6.597
    32   1 H      0.924     0.028     2.610     2.527
    33   1 H      0.924     0.030     2.582     2.513
    34   6 C      3.799    -0.051    21.492     6.601
    35   1 H      0.924     0.029     2.608     2.525
    36   1 H      0.924     0.028     2.609     2.526
    37   6 C      3.749    -0.101    22.492     6.764
    38   1 H      0.924     0.035     2.511     2.478
    39   1 H      0.924     0.032     2.559     2.501
    40   1 H      0.924     0.039     2.457     2.451
    41   6 C      3.750    -0.103    22.532     6.770
    42   1 H      0.924     0.036     2.500     2.473
    43   1 H      0.924     0.035     2.513     2.479
    44   1 H      0.924     0.040     2.446     2.446
    45   1 H      0.925     0.041     2.442     2.444
    46   1 H      0.925     0.041     2.441     2.443

 Mol. C6AA /au·bohr⁶  :      17264.199797
 Mol. C8AA /au·bohr⁸  :     377217.045537
 Mol. α(0) /au        :        200.759174


Wiberg/Mayer (AO) data.
largest (>0.10) Wiberg bond orders for each atom
          total WBO             WBO to atom ...
     1  C   3.991        C    2 1.443    C    6 1.439    H   46 0.971    C    4 0.112
     2  C   3.990        C    1 1.443    C    3 1.416    H    7 0.969    C    5 0.112
     3  C   3.985        C    4 1.417    C    2 1.416    C   21 0.978    C    6 0.110
     4  C   3.990        C    5 1.442    C    3 1.417    H    8 0.964    C    1 0.112
     5  C   3.991        C    4 1.442    C    6 1.440    H   45 0.971    C    2 0.112
     6  C   3.991        C    5 1.440    C    1 1.439    H    9 0.971    C    3 0.110
     7  H   0.999        C    2 0.969
     8  H   0.997        C    4 0.964
     9  H   0.998        C    6 0.971
    10  N   3.092        C   21 1.032    C   12 0.997    H   15 0.942
    11  H   0.974        N   16 0.949
    12  C   3.980        C   25 1.005    N   10 0.997    H   14 0.974    H   13 0.967
    13  H   1.000        C   12 0.967
    14  H   0.999        C   12 0.974
    15  H   0.975        N   10 0.942
    16  N   2.998        C   18 1.024    H   24 0.968    H   11 0.949
    17  H   0.913        O   23 0.897
    18  C   3.985        N   16 1.024    C   28 0.996    H   19 0.975    H   20 0.972
    19  H   0.999        C   18 0.975
    20  H   0.999        C   18 0.972
    21  C   3.947        N   10 1.032    C    3 0.978    H   22 0.956    O   23 0.929
    22  H   0.999        C   21 0.956
    23  O   1.936        C   21 0.929    H   17 0.897
    24  H   0.981        N   16 0.968
    25  C   3.994        C   31 1.007    C   12 1.005    H   27 0.977    H   26 0.971
    26  H   0.999        C   25 0.971
    27  H   0.998        C   25 0.977
    28  C   3.997        C   34 1.007    C   18 0.996    H   29 0.977    H   30 0.973
    29  H   0.999        C   28 0.977
    30  H   0.999        C   28 0.973
    31  C   3.997        C   41 1.019    C   25 1.007    H   33 0.978    H   32 0.975
    32  H   0.999        C   31 0.975
    33  H   0.999        C   31 0.978
    34  C   3.997        C   37 1.019    C   28 1.007    H   35 0.978    H   36 0.974
    35  H   0.999        C   34 0.978
    36  H   0.999        C   34 0.974
    37  C   3.996        C   34 1.019    H   39 0.988    H   38 0.987    H   40 0.984
    38  H   0.998        C   37 0.987
    39  H   0.999        C   37 0.988
    40  H   0.998        C   37 0.984
    41  C   3.996        C   31 1.019    H   43 0.988    H   42 0.987    H   44 0.986
    42  H   0.998        C   41 0.987
    43  H   0.999        C   41 0.988
    44  H   0.998        C   41 0.986
    45  H   0.998        C    5 0.971
    46  H   0.998        C    1 0.971
Topologies differ in total number of bonds
Writing topology from bond orders to xtbtopo.mol

molecular dipole:
                 x           y           z       tot (Debye)
 q only:        0.068       0.316      -0.041
   full:       -0.043      -0.005       0.343       0.880
molecular quadrupole (traceless):
                xx          xy          yy          xz          yz          zz
 q only:        6.897       1.325      -4.241       3.135       0.453      -2.656
  q+dip:        2.898       5.513      -0.739       0.517       2.193      -2.159
   full:        3.992       4.646      -2.481       2.754       0.259      -1.511


           -------------------------------------------------
          | TOTAL ENERGY              -56.312505729314 Eh   |
          | GRADIENT NORM               0.025682748098 Eh/α |
          | HOMO-LUMO GAP               3.858350914363 eV   |
           -------------------------------------------------

------------------------------------------------------------------------
 * finished run on 2020/06/19 at 17:37:16.338     
------------------------------------------------------------------------
 total:
 * wall-time:     0 d,  0 h,  0 min,  0.273 sec
 *  cpu-time:     0 d,  0 h,  0 min,  2.693 sec
 * ratio c/w:     9.856 speedup
 SCF:
 * wall-time:     0 d,  0 h,  0 min,  0.176 sec
 *  cpu-time:     0 d,  0 h,  0 min,  1.775 sec
 * ratio c/w:    10.059 speedup


-------------------------   --------------------
FINAL SINGLE POINT ENERGY       -56.312505729310
-------------------------   --------------------

------------------------------------------------------------------------------
                         ORCA GEOMETRY RELAXATION STEP
------------------------------------------------------------------------------

Reading the OPT-File                    .... done
Getting information on internals        .... done
Copying old internal coords+grads       .... done
Making the new internal coordinates     .... (new redundants).... done
Validating the new internal coordinates .... (new redundants).... done
Calculating the B-matrix                .... done
Calculating the G,G- and P matrices     .... done
Transforming gradient to internals      .... done
Projecting the internal gradient        .... done
Number of atoms                         ....  46
Number of internal coordinates          .... 446
Current Energy                          ....   -56.312505729 Eh
Current gradient norm                   ....     0.025682748 Eh/bohr
Maximum allowed component of the step   ....  0.300
Current trust radius                    ....  0.300
Evaluating the initial hessian          ....  (Almloef) done
Projecting the Hessian                  .... done
Forming the augmented Hessian           .... done
Diagonalizing the augmented Hessian     .... done
Last element of RFO vector              ....  0.993091254
Lowest eigenvalues of augmented Hessian:
 -0.001964748  0.009135791  0.010517987  0.013447788  0.018527834
Length of the computed step             ....  0.118160970
The final length of the internal step   ....  0.118160970
Converting the step to cartesian space:
 Initial RMS(Int)=    0.0055950841
Transforming coordinates:
 Iter   0:  RMS(Cart)=    0.0207768209 RMS(Int)=    0.6649716060
 Iter   1:  RMS(Cart)=    0.0000473999 RMS(Int)=    0.0000222922
 Iter   2:  RMS(Cart)=    0.0000003107 RMS(Int)=    0.0000001739
 Iter   3:  RMS(Cart)=    0.0000000029 RMS(Int)=    0.0000000014
done
Storing new coordinates                 .... done

                                .--------------------.
          ----------------------|Geometry convergence|-------------------------
          Item                value                   Tolerance       Converged
          ---------------------------------------------------------------------
          RMS gradient        0.0011885306            0.0001000000      NO
          MAX gradient        0.0076169592            0.0003000000      NO
          RMS step            0.0055950841            0.0020000000      NO
          MAX step            0.0299669014            0.0040000000      NO
          ........................................................
          Max(Bonds)      0.0159      Max(Angles)    0.67
          Max(Dihed)        1.11      Max(Improp)    0.00
          ---------------------------------------------------------------------

The optimization has not yet converged - more geometry cycles are needed


    ---------------------------------------------------------------------------
                         Redundant Internal Coordinates
                            (Angstroem and degrees)

        Definition                    Value    dE/dq     Step     New-Value
    ----------------------------------------------------------------------------
     1. B(C   1,C   0)                1.3911  0.007617 -0.0065    1.3847   
     2. B(C   2,C   1)                1.3934  0.005521 -0.0048    1.3887   
     3. B(C   3,C   2)                1.3957  0.005044 -0.0052    1.3905   
     4. B(C   4,C   3)                1.3906  0.007116 -0.0060    1.3846   
     5. B(C   5,C   0)                1.3915  0.006680 -0.0057    1.3858   
     6. B(C   5,C   4)                1.3919  0.007258 -0.0061    1.3857   
     7. B(H   6,C   1)                1.0831  0.001808 -0.0026    1.0805   
     8. B(H   7,C   3)                1.0820  0.001183 -0.0013    1.0808   
     9. B(H   8,C   5)                1.0822  0.001691 -0.0024    1.0798   
    10. B(H  10,H   7)                2.3670  0.001221 -0.0095    2.3575   
    11. B(C  11,N   9)                1.4654  0.006747 -0.0096    1.4557   
    12. B(H  12,C  11)                1.0961 -0.002485  0.0045    1.1006   
    13. B(H  13,C  11)                1.0938 -0.000717  0.0011    1.0948   
    14. B(H  14,N   9)                1.0143  0.000546 -0.0002    1.0141   
    15. B(H  14,H  10)                2.6097  0.002189 -0.0086    2.6011   
    16. B(N  15,H  10)                1.0160 -0.001153  0.0014    1.0173   
    17. B(N  15,H   7)                2.5929 -0.000270 -0.0077    2.5852   
    18. B(H  16,H  10)                2.7966  0.000573 -0.0159    2.7807   
    19. B(C  17,N  15)                1.4657  0.007607 -0.0111    1.4546   
    20. B(H  18,C  17)                1.0940 -0.000905  0.0013    1.0953   
    21. B(H  19,H  14)                2.2906  0.000414 -0.0045    2.2861   
    22. B(H  19,C  17)                1.0939 -0.000533  0.0014    1.0953   
    23. B(C  20,N   9)                1.4313  0.002185 -0.0037    1.4275   
    24. B(C  20,C   2)                1.5164  0.002470 -0.0049    1.5115   
    25. B(H  21,C  20)                1.0944 -0.004428  0.0066    1.1010   
    26. B(O  22,C  20)                1.4511  0.003938 -0.0059    1.4453   
    27. B(O  22,H  16)                0.9656  0.001392 -0.0020    0.9636   
    28. B(O  22,H  10)                2.2049 -0.000334 -0.0130    2.1920   
    29. B(H  23,N  15)                1.0147 -0.000425  0.0005    1.0152   
    30. B(C  24,C  11)                1.5228  0.000202 -0.0005    1.5223   
    31. B(H  25,C  24)                1.0944  0.001202 -0.0012    1.0932   
    32. B(H  25,H  19)                2.7214  0.001367 -0.0067    2.7148   
    33. B(H  26,C  24)                1.0937  0.000899 -0.0013    1.0924   
    34. B(C  27,C  17)                1.5300 -0.000506  0.0009    1.5308   
    35. B(H  28,C  27)                1.0954 -0.000181  0.0003    1.0957   
    36. B(H  29,C  27)                1.0944  0.000540  0.0001    1.0945   
    37. B(H  29,H  25)                2.5923 -0.001449  0.0047    2.5970   
    38. B(H  29,H  12)                2.3776  0.000526 -0.0003    2.3773   
    39. B(C  30,C  24)                1.5276  0.001270 -0.0027    1.5249   
    40. B(H  31,C  30)                1.0938 -0.000384  0.0009    1.0947   
    41. B(H  31,H  29)                2.7834  0.001013 -0.0033    2.7801   
    42. B(H  32,C  30)                1.0944  0.000555 -0.0008    1.0936   
    43. B(C  33,C  27)                1.5282  0.001830 -0.0034    1.5248   
    44. B(H  34,C  33)                1.0944  0.000339 -0.0005    1.0939   
    45. B(H  35,H  25)                2.3415  0.000240 -0.0005    2.3410   
    46. B(H  35,C  33)                1.0939 -0.000415  0.0005    1.0944   
    47. B(C  36,C  33)                1.5269  0.002976 -0.0052    1.5217   
    48. B(H  37,C  36)                1.0918  0.002565 -0.0038    1.0880   
    49. B(H  38,C  36)                1.0927  0.002274 -0.0034    1.0893   
    50. B(H  39,H  31)                2.4248 -0.000209  0.0068    2.4317   
    51. B(H  39,C  36)                1.0919  0.001212 -0.0030    1.0889   
    52. B(C  40,C  30)                1.5268  0.003041 -0.0050    1.5218   
    53. B(H  41,C  40)                1.0917  0.002477 -0.0036    1.0881   
    54. B(H  42,C  40)                1.0926  0.002561 -0.0038    1.0889   
    55. B(H  43,H  39)                2.6435 -0.000544  0.0101    2.6536   
    56. B(H  43,H  35)                2.7257  0.000455  0.0019    2.7276   
    57. B(H  43,C  40)                1.0921  0.001562 -0.0029    1.0892   
    58. B(H  44,C   4)                1.0824  0.001811 -0.0026    1.0798   
    59. B(H  45,C   0)                1.0823  0.001732 -0.0025    1.0799   
    60. A(C   5,C   0,H  45)          120.07 -0.000082    0.03    120.10   
    61. A(C   1,C   0,C   5)          120.03 -0.000325    0.03    120.05   
    62. A(C   1,C   0,H  45)          119.90  0.000408   -0.05    119.85   
    63. A(C   2,C   1,H   6)          119.51 -0.000406    0.07    119.58   
    64. A(C   0,C   1,C   2)          120.52  0.000673   -0.12    120.40   
    65. A(C   0,C   1,H   6)          119.97 -0.000267    0.05    120.02   
    66. A(C   1,C   2,C  20)          120.08  0.001136   -0.02    120.06   
    67. A(C   3,C   2,C  20)          120.64 -0.000872   -0.09    120.55   
    68. A(C   1,C   2,C   3)          119.25 -0.000275    0.12    119.37   
    69. A(C   4,C   3,H   7)          119.99  0.000047    0.00    119.99   
    70. A(C   2,C   3,H   7)          119.77 -0.000591    0.08    119.86   
    71. A(C   2,C   3,C   4)          120.24  0.000544   -0.09    120.15   
    72. A(C   5,C   4,H  44)          120.04 -0.000330    0.06    120.10   
    73. A(C   3,C   4,C   5)          120.27  0.000000   -0.01    120.26   
    74. A(C   3,C   4,H  44)          119.69  0.000329   -0.05    119.64   
    75. A(C   4,C   5,H   8)          120.15  0.000321   -0.04    120.11   
    76. A(C   0,C   5,H   8)          120.16  0.000298   -0.04    120.12   
    77. A(C   0,C   5,C   4)          119.69 -0.000619    0.08    119.76   
    78. A(C   3,H   7,N  15)          161.18  0.000496   -0.03    161.16   
    79. A(H  10,H   7,N  15)           23.06 -0.000228    0.11     23.17   
    80. A(C   3,H   7,H  10)          141.58  0.000694   -0.08    141.50   
    81. A(C  11,N   9,C  20)          115.68  0.001872   -0.30    115.38   
    82. A(C  11,N   9,H  14)          110.66 -0.001077    0.08    110.74   
    83. A(H  14,N   9,C  20)          109.87  0.000464   -0.19    109.68   
    84. A(H   7,H  10,O  22)           71.03  0.000550   -0.07     70.96   
    85. A(H  14,H  10,O  22)           65.39  0.000585    0.01     65.39   
    86. A(N  15,H  10,O  22)          161.78  0.000036   -0.05    161.73   
    87. A(H   7,H  10,H  14)           64.95  0.000994   -0.11     64.84   
    88. A(H  14,H  10,H  16)           79.73  0.000852    0.03     79.75   
    89. A(H  16,H  10,O  22)           17.68  0.000224    0.10     17.77   
    90. A(H   7,H  10,H  16)           66.48  0.000403   -0.16     66.32   
    91. A(H  14,H  10,N  15)          110.62 -0.000374   -0.02    110.60   
    92. A(H   7,H  10,N  15)           91.05 -0.000526    0.03     91.08   
    93. A(N  15,H  10,H  16)          149.22 -0.000161   -0.19    149.04   
    94. A(N   9,C  11,H  13)          107.75  0.000650   -0.29    107.46   
    95. A(N   9,C  11,H  12)          112.03  0.000077   -0.15    111.88   
    96. A(H  12,C  11,H  13)          106.82 -0.000441    0.39    107.21   
    97. A(H  13,C  11,C  24)          109.91 -0.000729    0.12    110.03   
    98. A(H  12,C  11,C  24)          109.46 -0.000173    0.21    109.67   
    99. A(N   9,C  11,C  24)          110.77  0.000565   -0.26    110.51   
   100. A(C  11,H  12,H  29)          120.03  0.000080   -0.03    120.00   
   101. A(N   9,H  14,H  10)          110.05 -0.000643    0.26    110.31   
   102. A(N   9,H  14,H  19)          154.49 -0.000059    0.27    154.76   
   103. A(H  10,H  14,H  19)           58.02  0.001055   -0.06     57.97   
   104. A(H   7,N  15,H  23)          132.90 -0.000538    0.08    132.99   
   105. A(H   7,N  15,H  10)           65.89  0.000755   -0.13     65.75   
   106. A(H   7,N  15,C  17)          116.27 -0.000059    0.08    116.35   
   107. A(H  10,N  15,C  17)          110.71 -0.000141    0.19    110.89   
   108. A(C  17,N  15,H  23)          109.82  0.000529   -0.19    109.63   
   109. A(H  10,N  15,H  23)          106.63 -0.000521    0.14    106.77   
   110. A(H  10,H  16,O  22)           43.90 -0.000136    0.08     43.98   
   111. A(H  19,C  17,C  27)          109.28 -0.000064    0.19    109.46   
   112. A(H  18,C  17,C  27)          109.16 -0.001106    0.12    109.28   
   113. A(N  15,C  17,C  27)          115.79  0.001068   -0.31    115.48   
   114. A(H  18,C  17,H  19)          106.10 -0.000619    0.67    106.76   
   115. A(N  15,C  17,H  19)          107.98 -0.000162   -0.17    107.82   
   116. A(N  15,C  17,H  18)          108.09  0.000755   -0.41    107.68   
   117. A(H  14,H  19,H  25)           56.94  0.001007   -0.17     56.77   
   118. A(C  17,H  19,H  25)          118.27 -0.000609    0.16    118.43   
   119. A(H  14,H  19,C  17)          124.58 -0.000258    0.04    124.62   
   120. A(C   2,C  20,O  22)          111.41 -0.000259    0.09    111.50   
   121. A(C   2,C  20,H  21)          109.45 -0.000789    0.29    109.74   
   122. A(N   9,C  20,H  21)          107.83  0.000224   -0.02    107.81   
   123. A(N   9,C  20,O  22)          109.64 -0.001327    0.30    109.93   
   124. A(H  21,C  20,O  22)          108.08  0.000451   -0.03    108.05   
   125. A(C   2,C  20,N   9)          110.33  0.001687   -0.62    109.72   
   126. A(H  10,O  22,H  16)          118.42 -0.000088   -0.17    118.24   
   127. A(H  10,O  22,C  20)          112.60  0.000049    0.29    112.88   
   128. A(H  16,O  22,C  20)          108.66 -0.000012   -0.14    108.52   
   129. A(H  26,C  24,C  30)          109.94 -0.000174   -0.03    109.91   
   130. A(H  25,C  24,C  30)          109.06 -0.000322    0.18    109.24   
   131. A(C  11,C  24,C  30)          113.01  0.000903   -0.50    112.51   
   132. A(H  25,C  24,H  26)          106.51 -0.000502    0.43    106.94   
   133. A(C  11,C  24,H  26)          109.22  0.000023   -0.06    109.16   
   134. A(C  11,C  24,H  25)          108.88 -0.000012    0.05    108.93   
   135. A(H  29,H  25,H  35)           60.73  0.000514   -0.13     60.60   
   136. A(H  19,H  25,C  24)          138.30 -0.000314    0.11    138.41   
   137. A(C  24,H  25,H  29)          108.07 -0.000497    0.08    108.15   
   138. A(H  19,H  25,H  35)           60.50  0.000531   -0.12     60.38   
   139. A(C  24,H  25,H  35)          151.20 -0.000313    0.02    151.22   
   140. A(H  19,H  25,H  29)           55.88  0.000104    0.04     55.93   
   141. A(H  29,C  27,C  33)          109.62 -0.000419    0.16    109.78   
   142. A(H  28,C  27,C  33)          109.47  0.000027   -0.10    109.37   
   143. A(C  17,C  27,C  33)          113.23  0.001053   -0.50    112.73   
   144. A(H  28,C  27,H  29)          106.48 -0.000452    0.43    106.91   
   145. A(C  17,C  27,H  29)          109.05  0.000330   -0.07    108.98   
   146. A(C  17,C  27,H  28)          108.76 -0.000631    0.15    108.91   
   147. A(H  25,H  29,H  31)           55.30  0.000349   -0.06     55.24   
   148. A(H  12,H  29,H  25)           60.70  0.000064    0.01     60.71   
   149. A(H  25,H  29,C  27)          106.68 -0.000300    0.02    106.70   
   150. A(H  12,H  29,C  27)          152.97 -0.000408    0.13    153.10   
   151. A(C  27,H  29,H  31)          138.01 -0.000115    0.06    138.07   
   152. A(H  12,H  29,H  31)           57.35  0.000418   -0.19     57.17   
   153. A(H  31,C  30,H  32)          106.27 -0.000701    0.46    106.74   
   154. A(C  24,C  30,H  32)          109.40 -0.000201   -0.02    109.38   
   155. A(C  24,C  30,H  31)          109.18 -0.000099   -0.01    109.17   
   156. A(H  32,C  30,C  40)          109.57  0.000073   -0.13    109.44   
   157. A(H  31,C  30,C  40)          109.47 -0.000166    0.14    109.61   
   158. A(C  24,C  30,C  40)          112.74  0.000992   -0.39    112.35   
   159. A(C  30,H  31,H  39)          123.01 -0.000180    0.15    123.16   
   160. A(H  29,H  31,H  39)           59.38  0.000990   -0.32     59.06   
   161. A(H  29,H  31,C  30)          117.07 -0.000536    0.25    117.31   
   162. A(H  35,C  33,C  36)          109.52 -0.000055    0.15    109.67   
   163. A(H  34,C  33,C  36)          109.46 -0.000071   -0.14    109.32   
   164. A(C  27,C  33,C  36)          113.07  0.001039   -0.44    112.64   
   165. A(H  34,C  33,H  35)          106.16 -0.000743    0.49    106.65   
   166. A(C  27,C  33,H  35)          109.21 -0.000241    0.05    109.26   
   167. A(C  27,C  33,H  34)          109.18 -0.000043   -0.05    109.13   
   168. A(H  25,H  35,H  43)           60.35  0.001033   -0.29     60.05   
   169. A(C  33,H  35,H  43)          118.91 -0.000396    0.23    119.13   
   170. A(H  25,H  35,C  33)          123.19 -0.000517    0.25    123.44   
   171. A(H  37,C  36,H  38)          107.68 -0.000807    0.12    107.80   
   172. A(C  33,C  36,H  38)          110.98  0.000752   -0.15    110.83   
   173. A(C  33,C  36,H  37)          111.59  0.001923   -0.49    111.10   
   174. A(H  38,C  36,H  39)          107.58 -0.000732    0.26    107.84   
   175. A(H  37,C  36,H  39)          107.68 -0.000900    0.30    107.98   
   176. A(C  33,C  36,H  39)          111.15 -0.000385   -0.00    111.15   
   177. A(C  36,H  39,H  43)          106.03 -0.000974    0.30    106.33   
   178. A(H  31,H  39,C  36)          147.60 -0.000409    0.09    147.69   
   179. A(H  31,H  39,H  43)           59.47  0.000818   -0.34     59.13   
   180. A(H  42,C  40,H  43)          107.59 -0.000737    0.26    107.85   
   181. A(H  41,C  40,H  43)          107.69 -0.000901    0.28    107.97   
   182. A(C  30,C  40,H  43)          111.06 -0.000359    0.05    111.10   
   183. A(H  41,C  40,H  42)          107.74 -0.000831    0.12    107.87   
   184. A(C  30,C  40,H  42)          111.07  0.000933   -0.23    110.84   
   185. A(C  30,C  40,H  41)          111.51  0.001747   -0.44    111.07   
   186. A(H  39,H  43,C  40)          107.80 -0.000802    0.27    108.08   
   187. A(H  35,H  43,C  40)          137.03 -0.000420    0.11    137.15   
   188. A(H  35,H  43,H  39)           56.11  0.000673   -0.28     55.83   
   189. D(C   2,C   1,C   0,C   5)      0.09  0.000067   -0.04      0.05   
   190. D(H   6,C   1,C   0,H  45)      0.33  0.000074   -0.07      0.26   
   191. D(C   2,C   1,C   0,H  45)   -179.75  0.000079   -0.17   -179.92   
   192. D(H   6,C   1,C   0,C   5)   -179.84  0.000062    0.07   -179.77   
   193. D(C  20,C   2,C   1,C   0)   -177.99  0.000463   -0.53   -178.52   
   194. D(C   3,C   2,C   1,H   6)   -179.87  0.000068   -0.18   -180.05   
   195. D(C   3,C   2,C   1,C   0)      0.21  0.000062   -0.08      0.13   
   196. D(C  20,C   2,C   1,H   6)      1.94  0.000469   -0.63      1.30   
   197. D(C   4,C   3,C   2,C  20)    177.76 -0.000575    0.66    178.42   
   198. D(C   4,C   3,C   2,C   1)     -0.43 -0.000209    0.20     -0.23   
   199. D(H   7,C   3,C   2,C   1)    179.51  0.000041    0.01    179.53   
   200. D(H   7,C   3,C   2,C  20)     -2.30 -0.000325    0.47     -1.83   
   201. D(C   5,C   4,C   3,C   2)      0.36  0.000228   -0.21      0.15   
   202. D(C   5,C   4,C   3,H   7)   -179.58 -0.000022   -0.02   -179.60   
   203. D(H  44,C   4,C   3,C   2)   -179.80  0.000114   -0.07   -179.87   
   204. D(H  44,C   4,C   3,H   7)      0.26 -0.000137    0.12      0.38   
   205. D(C   4,C   5,C   0,H  45)    179.67 -0.000061    0.16    179.84   
   206. D(H   8,C   5,C   4,H  44)     -0.08 -0.000054    0.12      0.04   
   207. D(H   8,C   5,C   0,C   1)   -179.98  0.000025   -0.14   -180.12   
   208. D(C   0,C   5,C   4,H  44)   -179.90  0.000020   -0.05   -179.95   
   209. D(H   8,C   5,C   0,H  45)     -0.15  0.000014   -0.00     -0.15   
   210. D(C   4,C   5,C   0,C   1)     -0.16 -0.000049    0.03     -0.13   
[...]
  13:        66.08    0.000000  (  0.000000   0.000000   0.000000)
  14:        75.83    0.000000  (  0.000000   0.000000   0.000000)
  15:        95.72    0.000000  (  0.000000   0.000000   0.000000)
  16:       114.26    0.000000  (  0.000000   0.000000   0.000000)
  17:       125.51    0.000000  (  0.000000   0.000000   0.000000)
  18:       129.58    0.000000  (  0.000000   0.000000   0.000000)
  19:       134.20    0.000000  (  0.000000   0.000000   0.000000)
  20:       137.99    0.000000  (  0.000000   0.000000   0.000000)
  21:       190.74    0.000000  (  0.000000   0.000000   0.000000)
  22:       198.74    0.000000  (  0.000000   0.000000   0.000000)
  23:       226.93    0.000000  (  0.000000   0.000000   0.000000)
  24:       231.28    0.000000  (  0.000000   0.000000   0.000000)
  25:       236.95    0.000000  (  0.000000   0.000000   0.000000)
  26:       241.03    0.000000  (  0.000000   0.000000   0.000000)
  27:       264.07    0.000000  (  0.000000   0.000000   0.000000)
  28:       340.81    0.000000  (  0.000000   0.000000   0.000000)
  29:       370.92    0.000000  (  0.000000   0.000000   0.000000)
  30:       376.62    0.000000  (  0.000000   0.000000   0.000000)
  31:       394.45    0.000000  (  0.000000   0.000000   0.000000)
  32:       395.10    0.000000  (  0.000000   0.000000   0.000000)
  33:       429.34    0.000000  (  0.000000   0.000000   0.000000)
  34:       440.07    0.000000  (  0.000000   0.000000   0.000000)
  35:       519.22    0.000000  (  0.000000   0.000000   0.000000)
  36:       543.93    0.000000  (  0.000000   0.000000   0.000000)
  37:       589.58    0.000000  (  0.000000   0.000000   0.000000)
  38:       615.94    0.000000  (  0.000000   0.000000   0.000000)
  39:       673.03    0.000000  (  0.000000   0.000000   0.000000)
  40:       763.60    0.000000  (  0.000000   0.000000   0.000000)
  41:       771.80    0.000000  (  0.000000   0.000000   0.000000)
  42:       778.69    0.000000  (  0.000000   0.000000   0.000000)
  43:       788.38    0.000000  (  0.000000   0.000000   0.000000)
  44:       823.56    0.000000  (  0.000000   0.000000   0.000000)
  45:       830.50    0.000000  (  0.000000   0.000000   0.000000)
  46:       851.43    0.000000  (  0.000000   0.000000   0.000000)
  47:       882.41    0.000000  (  0.000000   0.000000   0.000000)
  48:       909.86    0.000000  (  0.000000   0.000000   0.000000)
  49:       927.60    0.000000  (  0.000000   0.000000   0.000000)
  50:       931.54    0.000000  (  0.000000   0.000000   0.000000)
  51:       935.62    0.000000  (  0.000000   0.000000   0.000000)
  52:       941.15    0.000000  (  0.000000   0.000000   0.000000)
  53:       942.03    0.000000  (  0.000000   0.000000   0.000000)
  54:       948.54    0.000000  (  0.000000   0.000000   0.000000)
  55:       955.90    0.000000  (  0.000000   0.000000   0.000000)
  56:       987.95    0.000000  (  0.000000   0.000000   0.000000)
  57:       992.36    0.000000  (  0.000000   0.000000   0.000000)
  58:      1021.01    0.000000  (  0.000000   0.000000   0.000000)
  59:      1047.69    0.000000  (  0.000000   0.000000   0.000000)
  60:      1059.47    0.000000  (  0.000000   0.000000   0.000000)
  61:      1069.32    0.000000  (  0.000000   0.000000   0.000000)
  62:      1084.55    0.000000  (  0.000000   0.000000   0.000000)
  63:      1092.27    0.000000  (  0.000000   0.000000   0.000000)
  64:      1104.48    0.000000  (  0.000000   0.000000   0.000000)
  65:      1113.97    0.000000  (  0.000000   0.000000   0.000000)
  66:      1117.88    0.000000  (  0.000000   0.000000   0.000000)
  67:      1128.02    0.000000  (  0.000000   0.000000   0.000000)
  68:      1131.54    0.000000  (  0.000000   0.000000   0.000000)
  69:      1138.99    0.000000  (  0.000000   0.000000   0.000000)
  70:      1141.07    0.000000  (  0.000000   0.000000   0.000000)
  71:      1181.09    0.000000  (  0.000000   0.000000   0.000000)
  72:      1192.96    0.000000  (  0.000000   0.000000   0.000000)
  73:      1201.11    0.000000  (  0.000000   0.000000   0.000000)
  74:      1209.67    0.000000  (  0.000000   0.000000   0.000000)
  75:      1211.77    0.000000  (  0.000000   0.000000   0.000000)
  76:      1230.63    0.000000  (  0.000000   0.000000   0.000000)
  77:      1254.93    0.000000  (  0.000000   0.000000   0.000000)
  78:      1263.63    0.000000  (  0.000000   0.000000   0.000000)
  79:      1270.50    0.000000  (  0.000000   0.000000   0.000000)
  80:      1272.66    0.000000  (  0.000000   0.000000   0.000000)
  81:      1274.50    0.000000  (  0.000000   0.000000   0.000000)
  82:      1278.54    0.000000  (  0.000000   0.000000   0.000000)
  83:      1280.95    0.000000  (  0.000000   0.000000   0.000000)
  84:      1294.19    0.000000  (  0.000000   0.000000   0.000000)
  85:      1302.78    0.000000  (  0.000000   0.000000   0.000000)
  86:      1320.94    0.000000  (  0.000000   0.000000   0.000000)
  87:      1327.63    0.000000  (  0.000000   0.000000   0.000000)
  88:      1334.33    0.000000  (  0.000000   0.000000   0.000000)
  89:      1347.34    0.000000  (  0.000000   0.000000   0.000000)
  90:      1368.21    0.000000  (  0.000000   0.000000   0.000000)
  91:      1371.34    0.000000  (  0.000000   0.000000   0.000000)
  92:      1400.22    0.000000  (  0.000000   0.000000   0.000000)
  93:      1412.89    0.000000  (  0.000000   0.000000   0.000000)
  94:      1413.70    0.000000  (  0.000000   0.000000   0.000000)
  95:      1438.60    0.000000  (  0.000000   0.000000   0.000000)
  96:      1474.46    0.000000  (  0.000000   0.000000   0.000000)
  97:      1486.97    0.000000  (  0.000000   0.000000   0.000000)
  98:      1488.30    0.000000  (  0.000000   0.000000   0.000000)
  99:      1490.85    0.000000  (  0.000000   0.000000   0.000000)
 100:      1494.88    0.000000  (  0.000000   0.000000   0.000000)
 101:      1495.94    0.000000  (  0.000000   0.000000   0.000000)
 102:      1499.24    0.000000  (  0.000000   0.000000   0.000000)
 103:      1499.75    0.000000  (  0.000000   0.000000   0.000000)
 104:      1500.92    0.000000  (  0.000000   0.000000   0.000000)
 105:      1502.76    0.000000  (  0.000000   0.000000   0.000000)
 106:      1505.25    0.000000  (  0.000000   0.000000   0.000000)
 107:      1574.41    0.000000  (  0.000000   0.000000   0.000000)
 108:      1591.85    0.000000  (  0.000000   0.000000   0.000000)
 109:      1600.64    0.000000  (  0.000000   0.000000   0.000000)
 110:      2837.50    0.000000  (  0.000000   0.000000   0.000000)
 111:      2839.05    0.000000  (  0.000000   0.000000   0.000000)
 112:      2931.23    0.000000  (  0.000000   0.000000   0.000000)
 113:      2941.19    0.000000  (  0.000000   0.000000   0.000000)
 114:      2945.64    0.000000  (  0.000000   0.000000   0.000000)
 115:      2950.76    0.000000  (  0.000000   0.000000   0.000000)
 116:      2958.76    0.000000  (  0.000000   0.000000   0.000000)
 117:      2961.71    0.000000  (  0.000000   0.000000   0.000000)
 118:      2964.33    0.000000  (  0.000000   0.000000   0.000000)
 119:      2970.04    0.000000  (  0.000000   0.000000   0.000000)
 120:      2978.36    0.000000  (  0.000000   0.000000   0.000000)
 121:      2978.62    0.000000  (  0.000000   0.000000   0.000000)
 122:      2988.41    0.000000  (  0.000000   0.000000   0.000000)
 123:      3023.47    0.000000  (  0.000000   0.000000   0.000000)
 124:      3028.78    0.000000  (  0.000000   0.000000   0.000000)
 125:      3029.22    0.000000  (  0.000000   0.000000   0.000000)
 126:      3029.60    0.000000  (  0.000000   0.000000   0.000000)
 127:      3035.33    0.000000  (  0.000000   0.000000   0.000000)
 128:      3036.33    0.000000  (  0.000000   0.000000   0.000000)
 129:      3070.49    0.000000  (  0.000000   0.000000   0.000000)
 130:      3073.91    0.000000  (  0.000000   0.000000   0.000000)
 131:      3078.90    0.000000  (  0.000000   0.000000   0.000000)
 132:      3084.87    0.000000  (  0.000000   0.000000   0.000000)
 133:      3091.37    0.000000  (  0.000000   0.000000   0.000000)
 134:      3349.23    0.000000  (  0.000000   0.000000   0.000000)
 135:      3377.48    0.000000  (  0.000000   0.000000   0.000000)
 136:      3394.69    0.000000  (  0.000000   0.000000   0.000000)
 137:      3545.12    0.000000  (  0.000000   0.000000   0.000000)

The first frequency considered to be a vibration is 6
The total number of vibrations considered is 132


--------------------------
THERMOCHEMISTRY AT 298.15K
--------------------------

Temperature         ... 298.15 K
Pressure            ... 1.00 atm
Total Mass          ... 252.40 AMU

Throughout the following assumptions are being made:
  (1) The electronic state is orbitally nondegenerate
  (2) There are no thermally accessible electronically excited states
  (3) Hindered rotations indicated by low frequency modes are not
      treated as such but are treated as vibrations and this may
      cause some error
  (4) All equations used are the standard statistical mechanics
      equations for an ideal gas
  (5) All vibrations are strictly harmonic

freq.      13.39  E(vib)   ...       0.57 
freq.      26.92  E(vib)   ...       0.55 
freq.      35.10  E(vib)   ...       0.54 
freq.      36.76  E(vib)   ...       0.54 
freq.      46.66  E(vib)   ...       0.53 
freq.      50.58  E(vib)   ...       0.52 
freq.      61.53  E(vib)   ...       0.51 
freq.      66.08  E(vib)   ...       0.50 
freq.      75.83  E(vib)   ...       0.49 
freq.      95.72  E(vib)   ...       0.47 
freq.     114.26  E(vib)   ...       0.44 
freq.     125.51  E(vib)   ...       0.43 
freq.     129.58  E(vib)   ...       0.43 
freq.     134.20  E(vib)   ...       0.42 
freq.     137.99  E(vib)   ...       0.42 
freq.     190.74  E(vib)   ...       0.36 
freq.     198.74  E(vib)   ...       0.35 
freq.     226.93  E(vib)   ...       0.33 
freq.     231.28  E(vib)   ...       0.32 
freq.     236.95  E(vib)   ...       0.32 
freq.     241.03  E(vib)   ...       0.31 
freq.     264.07  E(vib)   ...       0.29 
freq.     340.81  E(vib)   ...       0.23 
freq.     370.92  E(vib)   ...       0.21 
freq.     376.62  E(vib)   ...       0.21 
freq.     394.45  E(vib)   ...       0.20 
freq.     395.10  E(vib)   ...       0.20 
freq.     429.34  E(vib)   ...       0.18 
freq.     440.07  E(vib)   ...       0.17 
freq.     519.22  E(vib)   ...       0.13 
freq.     543.93  E(vib)   ...       0.12 
freq.     589.58  E(vib)   ...       0.10 
freq.     615.94  E(vib)   ...       0.10 
freq.     673.03  E(vib)   ...       0.08 
freq.     763.60  E(vib)   ...       0.06 
freq.     771.80  E(vib)   ...       0.05 
freq.     778.69  E(vib)   ...       0.05 
freq.     788.38  E(vib)   ...       0.05 
freq.     823.56  E(vib)   ...       0.05 
freq.     830.50  E(vib)   ...       0.04 
freq.     851.43  E(vib)   ...       0.04 
freq.     882.41  E(vib)   ...       0.04 
freq.     909.86  E(vib)   ...       0.03 
freq.     927.60  E(vib)   ...       0.03 
freq.     931.54  E(vib)   ...       0.03 
freq.     935.62  E(vib)   ...       0.03 
freq.     941.15  E(vib)   ...       0.03 
freq.     942.03  E(vib)   ...       0.03 
freq.     948.54  E(vib)   ...       0.03 
freq.     955.90  E(vib)   ...       0.03 
freq.     987.95  E(vib)   ...       0.02 
freq.     992.36  E(vib)   ...       0.02 
freq.    1021.01  E(vib)   ...       0.02 
freq.    1047.69  E(vib)   ...       0.02 
freq.    1059.47  E(vib)   ...       0.02 
freq.    1069.32  E(vib)   ...       0.02 
freq.    1084.55  E(vib)   ...       0.02 
freq.    1092.27  E(vib)   ...       0.02 
freq.    1104.48  E(vib)   ...       0.02 
freq.    1113.97  E(vib)   ...       0.01 
freq.    1117.88  E(vib)   ...       0.01 
freq.    1128.02  E(vib)   ...       0.01 
freq.    1131.54  E(vib)   ...       0.01 
freq.    1138.99  E(vib)   ...       0.01 
freq.    1141.07  E(vib)   ...       0.01 
freq.    1181.09  E(vib)   ...       0.01 
freq.    1192.96  E(vib)   ...       0.01 
freq.    1201.11  E(vib)   ...       0.01 
freq.    1209.67  E(vib)   ...       0.01 
freq.    1211.77  E(vib)   ...       0.01 
freq.    1230.63  E(vib)   ...       0.01 
freq.    1254.93  E(vib)   ...       0.01 
freq.    1263.63  E(vib)   ...       0.01 
freq.    1270.50  E(vib)   ...       0.01 
freq.    1272.66  E(vib)   ...       0.01 
freq.    1274.50  E(vib)   ...       0.01 
freq.    1278.54  E(vib)   ...       0.01 
freq.    1280.95  E(vib)   ...       0.01 
freq.    1294.19  E(vib)   ...       0.01 
freq.    1302.78  E(vib)   ...       0.01 
freq.    1320.94  E(vib)   ...       0.01 
freq.    1327.63  E(vib)   ...       0.01 
freq.    1334.33  E(vib)   ...       0.01 
freq.    1347.34  E(vib)   ...       0.01 
freq.    1368.21  E(vib)   ...       0.01 
freq.    1371.34  E(vib)   ...       0.01 
freq.    1400.22  E(vib)   ...       0.00 
freq.    1412.89  E(vib)   ...       0.00 
freq.    1413.70  E(vib)   ...       0.00 
freq.    1438.60  E(vib)   ...       0.00 
freq.    1474.46  E(vib)   ...       0.00 
freq.    1486.97  E(vib)   ...       0.00 
freq.    1488.30  E(vib)   ...       0.00 
freq.    1490.85  E(vib)   ...       0.00 
freq.    1494.88  E(vib)   ...       0.00 
freq.    1495.94  E(vib)   ...       0.00 
freq.    1499.24  E(vib)   ...       0.00 
freq.    1499.75  E(vib)   ...       0.00 
freq.    1500.92  E(vib)   ...       0.00 
freq.    1502.76  E(vib)   ...       0.00 
freq.    1505.25  E(vib)   ...       0.00 
freq.    1574.41  E(vib)   ...       0.00 
freq.    1591.85  E(vib)   ...       0.00 
freq.    1600.64  E(vib)   ...       0.00 
freq.    2837.50  E(vib)   ...       0.00 
freq.    2839.05  E(vib)   ...       0.00 
freq.    2931.23  E(vib)   ...       0.00 
freq.    2941.19  E(vib)   ...       0.00 
freq.    2945.64  E(vib)   ...       0.00 
freq.    2950.76  E(vib)   ...       0.00 
freq.    2958.76  E(vib)   ...       0.00 
freq.    2961.71  E(vib)   ...       0.00 
freq.    2964.33  E(vib)   ...       0.00 
freq.    2970.04  E(vib)   ...       0.00 
freq.    2978.36  E(vib)   ...       0.00 
freq.    2978.62  E(vib)   ...       0.00 
freq.    2988.41  E(vib)   ...       0.00 
freq.    3023.47  E(vib)   ...       0.00 
freq.    3028.78  E(vib)   ...       0.00 
freq.    3029.22  E(vib)   ...       0.00 
freq.    3029.60  E(vib)   ...       0.00 
freq.    3035.33  E(vib)   ...       0.00 
freq.    3036.33  E(vib)   ...       0.00 
freq.    3070.49  E(vib)   ...       0.00 
freq.    3073.91  E(vib)   ...       0.00 
freq.    3078.90  E(vib)   ...       0.00 
freq.    3084.87  E(vib)   ...       0.00 
freq.    3091.37  E(vib)   ...       0.00 
freq.    3349.23  E(vib)   ...       0.00 
freq.    3377.48  E(vib)   ...       0.00 
freq.    3394.69  E(vib)   ...       0.00 
freq.    3545.12  E(vib)   ...       0.00 

------------
INNER ENERGY
------------

The inner energy is: U= E(el) + E(ZPE) + E(vib) + E(rot) + E(trans)
    E(el)   - is the total energy from the electronic structure calculation
              = E(kin-el) + E(nuc-el) + E(el-el) + E(nuc-nuc)
    E(ZPE)  - the the zero temperature vibrational energy from the frequency calculation
    E(vib)  - the the finite temperature correction to E(ZPE) due to population
              of excited vibrational states
    E(rot)  - is the rotational thermal energy
    E(trans)- is the translational thermal energy

Summary of contributions to the inner energy U:
Electronic energy                ...    -56.31539250 Eh
Zero point energy                ...      0.40505327 Eh     254.17 kcal/mol
Thermal vibrational correction   ...      0.02021720 Eh      12.69 kcal/mol
Thermal rotational correction    ...      0.00141627 Eh       0.89 kcal/mol
Thermal translational correction ...      0.00141627 Eh       0.89 kcal/mol
-----------------------------------------------------------------------
Total thermal energy                    -55.88728950 Eh


Summary of corrections to the electronic energy:
(perhaps to be used in another calculation)
Total thermal correction                  0.02304974 Eh      14.46 kcal/mol
Non-thermal (ZPE) correction              0.40505327 Eh     254.17 kcal/mol
-----------------------------------------------------------------------
Total correction                          0.42810300 Eh     268.64 kcal/mol


--------
ENTHALPY
--------

The enthalpy is H = U + kB*T
                kB is Boltzmann's constant
Total free energy                 ...    -55.88728950 Eh 
Thermal Enthalpy correction       ...      0.00094421 Eh       0.59 kcal/mol
-----------------------------------------------------------------------
Total Enthalpy                    ...    -55.88634529 Eh


Note: Only C1 symmetry has been detected, increase convergence thresholds 
      if your molecule has a higher symmetry. Symmetry factor of 1.0 is   
      used for the rotational entropy correction. 
 

Note: Rotational entropy computed according to Herzberg 
Infrared and Raman Spectra, Chapter V,1, Van Nostrand Reinhold, 1945 
Point Group:  C1, Symmetry Number:   1  
Rotational constants in cm-1:     0.016377     0.006492     0.005158 

Vibrational entropy computed according to the QRRHO of S. Grimme
Chem.Eur.J. 2012 18 9955


-------
ENTROPY
-------

The entropy contributions are T*S = T*(S(el)+S(vib)+S(rot)+S(trans))
     S(el)   - electronic entropy
     S(vib)  - vibrational entropy
     S(rot)  - rotational entropy
     S(trans)- translational entropy
The entropies will be listed as mutliplied by the temperature to get
units of energy

Electronic entropy                ...      0.00000000 Eh      0.00 kcal/mol
Vibrational entropy               ...      0.03763162 Eh     23.61 kcal/mol
Rotational entropy                ...      0.01631658 Eh     10.24 kcal/mol
Translational entropy             ...      0.02018250 Eh     12.66 kcal/mol
-----------------------------------------------------------------------
Final entropy term                ...      0.07413069 Eh     46.52 kcal/mol

In case the symmetry of your molecule has not been determined correctly
or in case you have a reason to use a different symmetry number we print 
out the resulting rotational entropy values for sn=1,12 :
 --------------------------------------------------------
|  sn= 1 | S(rot)=       0.01631658 Eh     10.24 kcal/mol|
|  sn= 2 | S(rot)=       0.01566212 Eh      9.83 kcal/mol|
|  sn= 3 | S(rot)=       0.01527929 Eh      9.59 kcal/mol|
|  sn= 4 | S(rot)=       0.01500766 Eh      9.42 kcal/mol|
|  sn= 5 | S(rot)=       0.01479698 Eh      9.29 kcal/mol|
|  sn= 6 | S(rot)=       0.01462483 Eh      9.18 kcal/mol|
|  sn= 7 | S(rot)=       0.01447929 Eh      9.09 kcal/mol|
|  sn= 8 | S(rot)=       0.01435321 Eh      9.01 kcal/mol|
|  sn= 9 | S(rot)=       0.01424200 Eh      8.94 kcal/mol|
|  sn=10 | S(rot)=       0.01414252 Eh      8.87 kcal/mol|
|  sn=11 | S(rot)=       0.01405253 Eh      8.82 kcal/mol|
|  sn=12 | S(rot)=       0.01397038 Eh      8.77 kcal/mol|
 --------------------------------------------------------


-------------------
GIBBS FREE ENERGY
-------------------

The Gibbs free energy is G = H - T*S

Total enthalpy                    ...    -55.88634529 Eh 
Total entropy correction          ...     -0.07413069 Eh    -46.52 kcal/mol
-----------------------------------------------------------------------
Final Gibbs free energy         ...    -55.96047598 Eh

For completeness - the Gibbs free energy minus the electronic energy
G-E(el)                           ...      0.35491652 Eh    222.71 kcal/mol


Total Time for Numerical Frequencies  :       162.462 sec

Timings for individual modules:

Sum of individual times         ...       45.996 sec (=   0.767 min)
Geometry relaxation             ...       32.965 sec (=   0.549 min)  71.7 %
XTB module                      ...       13.030 sec (=   0.217 min)  28.3 %
                             ****ORCA TERMINATED NORMALLY****
TOTAL RUN TIME: 0 days 0 hours 3 minutes 49 seconds 215 msec
