
                                 *****************
                                 * O   R   C   A *
                                 *****************

           --- An Ab Initio, DFT and Semiempirical electronic structure package ---

                  #######################################################
                  #                        -***-                        #
                  #          Department of theory and spectroscopy      #
                  #               Directorship: Frank Neese             #
                  #        Max Planck Institute fuer Kohlenforschung    #
                  #                Kaiser Wilhelm Platz 1               #
                  #                 D-45470 Muelheim/Ruhr               #
                  #                      Germany                        #
                  #                                                     #
                  #                  All rights reserved                #
                  #                        -***-                        #
                  #######################################################


                         Program Version 4.2.1 -  RELEASE  -


 With contributions from (in alphabetic order):
   Daniel Aravena         : Magnetic Suceptibility
   Michael Atanasov       : Ab Initio Ligand Field Theory (pilot matlab implementation)
   Alexander A. Auer      : GIAO ZORA, VPT2
   Ute Becker             : Parallelization
   Giovanni Bistoni       : ED, misc. LED, open-shell LED, HFLD
   Martin Brehm           : Molecular dynamics
   Dmytro Bykov           : SCF Hessian
   Vijay G. Chilkuri      : MRCI spin determinant printing, contributions to CSF-ICE
   Dipayan Datta          : RHF DLPNO-CCSD density
   Achintya Kumar Dutta   : EOM-CC, STEOM-CC
   Dmitry Ganyushin       : Spin-Orbit,Spin-Spin,Magnetic field MRCI
   Miquel Garcia          : C-PCM Hessian, Gaussian charge scheme
   Yang Guo               : DLPNO-NEVPT2, CIM, IAO-localization
   Andreas Hansen         : Spin unrestricted coupled pair/coupled cluster methods
   Benjamin Helmich-Paris : CASSCF linear response (MC-RPA)
   Lee Huntington         : MR-EOM, pCC
   Robert Izsak           : Overlap fitted RIJCOSX, COSX-SCS-MP3, EOM
   Christian Kollmar      : KDIIS, OOCD, Brueckner-CCSD(T), CCSD density
   Simone Kossmann        : Meta GGA functionals, TD-DFT gradient, OOMP2, MP2 Hessian
   Martin Krupicka        : AUTO-CI
   Lucas Lang             : DCDCAS
   Dagmar Lenk            : GEPOL surface, SMD
   Dimitrios Liakos       : Extrapolation schemes; Compound Job, initial MDCI parallelization
   Dimitrios Manganas     : Further ROCIS development; embedding schemes
   Dimitrios Pantazis     : SARC Basis sets
   Taras Petrenko         : DFT Hessian,TD-DFT gradient, ASA, ECA, R-Raman, ABS, FL, XAS/XES, NRVS
   Peter Pinski           : DLPNO-MP2, DLPNO-MP2 Gradient
   Christoph Reimann      : Effective Core Potentials
   Marius Retegan         : Local ZFS, SOC
   Christoph Riplinger    : Optimizer, TS searches, QM/MM, DLPNO-CCSD(T), (RO)-DLPNO pert. Triples
   Tobias Risthaus        : Range-separated hybrids, TD-DFT gradient, RPA, STAB
   Michael Roemelt        : Original ROCIS implementation
   Masaaki Saitow         : Open-shell DLPNO-CCSD energy and density
   Barbara Sandhoefer     : DKH picture change effects
   Avijit Sen             : IP-ROCIS
   Kantharuban Sivalingam : CASSCF convergence, NEVPT2, FIC-MRCI
   Bernardo de Souza      : ESD, SOC TD-DFT
   Georgi Stoychev        : AutoAux, RI-MP2 NMR
   Willem Van den Heuvel  : Paramagnetic NMR
   Boris Wezisla          : Elementary symmetry handling
   Frank Wennmohs         : Technical directorship


 We gratefully acknowledge several colleagues who have allowed us to
 interface, adapt or use parts of their codes:
   Stefan Grimme, W. Hujo, H. Kruse,             : VdW corrections, initial TS optimization,
                  C. Bannwarth                     DFT functionals, gCP, sTDA/sTD-DF
   Ed Valeev, F. Pavosevic, A. Kumar             : LibInt (2-el integral package), F12 methods
   Garnet Chan, S. Sharma, J. Yang, R. Olivares  : DMRG
   Ulf Ekstrom                                   : XCFun DFT Library
   Mihaly Kallay                                 : mrcc  (arbitrary order and MRCC methods)
   Andreas Klamt, Michael Diedenhofen            : otool_cosmo (COSMO solvation model)
   Jiri Pittner, Ondrej Demel                    : Mk-CCSD
   Frank Weinhold                                : gennbo (NPA and NBO analysis)
   Christopher J. Cramer and Donald G. Truhlar   : smd solvation model
   Lars Goerigk                                  : TD-DFT with DH, B97 family of functionals
   V. Asgeirsson, H. Jonsson                     : NEB implementation
   FAccTs GmbH                                   : IRC, NEB, NEB-TS, Multilevel, MM, QM/MM, CI optimization
   S Lehtola, MJT Oliveira, MAL Marques          : LibXC Library


 Your calculation uses the libint2 library for the computation of 2-el integrals
 For citations please refer to: http://libint.valeyev.net

 Your ORCA version has been built with support for libXC version: 4.2.3
 For citations please refer to: https://tddft.org/programs/libxc/

 This ORCA versions uses:
   CBLAS   interface :  Fast vector & matrix operations
   LAPACKE interface :  Fast linear algebra routines
   SCALAPACK package :  Parallel linear algebra routines




***************************************
The coordinates will be read from file: init.xyz
***************************************


Your calculation utilizes the SMD solvation module
Please cite in your paper:
A.V. Marenich, C.J. Cramer, D.G. Truhlar J. Phys. Chem. B, 113, (2009), 6378 

Your calculation utilizes the semiempirical GFN2-xTB method
Please cite in your paper:
C. Bannwarth, Ehlert S., S. Grimme,  J. Chem. Theory Comput., 15, (2019), 1652.
   

----- Orbital basis set information -----
Your calculation utilizes the basis: def2-SVP
   F. Weigend and R. Ahlrichs, Phys. Chem. Chem. Phys. 7, 3297 (2005).

================================================================================
                                        WARNINGS
                       Please study these warnings very carefully!
================================================================================


WARNING: The environment variable RSH_COMMAND is not set!
  ===> : All Displacements for the Numerical Hessian calculation
         will be started on localhost

WARNING: Geometry Optimization
  ===> : Switching off AutoStart
         For restart on a previous wavefunction, please use MOREAD

WARNING: Found dipole moment calculation with XTB calculation
  ===> : Switching off dipole moment calculation


INFO   : the flag for use of LIBINT has been found!

================================================================================
                                       INPUT FILE
================================================================================
NAME = opt+freq.inp
|  1> ! XTB2 Opt NumFreq
|  2> 
|  3> %cpcm
|  4>  smd true
|  5>  smdsolvent "ch2cl2"
|  6> end
|  7> 
|  8> %pal
|  9>  nprocs 12
| 10> end
| 11> 
| 12> *xyzfile 0 1 init.xyz
| 13> 
| 14> 
| 15>                          ****END OF INPUT****
================================================================================

                       *****************************
                       * Geometry Optimization Run *
                       *****************************

Geometry optimization settings:
Update method            Update   .... BFGS
Choice of coordinates    CoordSys .... Z-matrix Internals
Initial Hessian          InHess   .... Almoef's Model

Convergence Tolerances:
Energy Change            TolE     ....  5.0000e-06 Eh
Max. Gradient            TolMAXG  ....  3.0000e-04 Eh/bohr
RMS Gradient             TolRMSG  ....  1.0000e-04 Eh/bohr
Max. Displacement        TolMAXD  ....  4.0000e-03 bohr
RMS Displacement         TolRMSD  ....  2.0000e-03 bohr
Strict Convergence                ....  False
------------------------------------------------------------------------------
                        ORCA OPTIMIZATION COORDINATE SETUP
------------------------------------------------------------------------------

The optimization will be done in new redundant internal coordinates
Making redundant internal coordinates   ...  (new redundants) done
Evaluating the initial hessian          ...  (Almloef) done
Evaluating the coordinates              ...  done
Calculating the B-matrix                .... done
Calculating the G-matrix                .... done
Diagonalizing the G-matrix              .... done
Small eigenvalue found = 2.667e-02
The first mode is                       ....   33
The number of degrees of freedom        ....   42

    -----------------------------------------------------------------
                    Redundant Internal Coordinates


    -----------------------------------------------------------------
         Definition                    Initial Value    Approx d2E/dq
    -----------------------------------------------------------------
      1. B(H   1,C   0)                  1.0945         0.354233   
      2. B(H   2,C   0)                  1.0944         0.354322   
      3. B(C   3,C   0)                  1.5280         0.376267   
      4. B(H   4,C   3)                  1.0960         0.352266   
      5. B(H   5,C   3)                  1.0942         0.354604   
      6. B(C   6,C   3)                  1.5240         0.381914   
      7. B(H   7,C   6)                  1.0992         0.348175   
      8. B(H   8,C   6)                  1.0933         0.355732   
      9. B(N   9,C   6)                  1.4706         0.416237   
     10. B(H  10,N   9)                  1.0144         0.425789   
     11. B(H  11,N   9)                  1.0152         0.424472   
     12. B(C  12,C   0)                  1.5271         0.377522   
     13. B(H  13,C  12)                  1.0928         0.356397   
     14. B(H  14,C  12)                  1.0918         0.357675   
     15. B(H  15,C  12)                  1.0926         0.356625   
     16. A(H   1,C   0,C  12)          109.4694         0.324004   
     17. A(H   2,C   0,C  12)          109.4558         0.324017   
     18. A(H   2,C   0,C   3)          109.3371         0.323840   
     19. A(H   1,C   0,C   3)          109.1840         0.323827   
     20. A(H   1,C   0,H   2)          106.3008         0.289356   
     21. A(C   3,C   0,C  12)          112.8799         0.364452   
     22. A(C   0,C   3,C   6)          113.2411         0.365174   
     23. A(H   4,C   3,H   5)          106.4647         0.289139   
     24. A(C   0,C   3,H   5)          109.7950         0.323883   
     25. A(H   5,C   3,C   6)          108.8551         0.324676   
     26. A(C   0,C   3,H   4)          109.2843         0.323531   
     27. A(H   4,C   3,C   6)          108.9732         0.324323   
     28. A(H   8,C   6,N   9)          107.8878         0.327505   
     29. A(H   7,C   6,N   9)          113.0232         0.326349   
     30. A(H   7,C   6,H   8)          106.6445         0.288754   
     31. A(C   3,C   6,H   8)          109.2595         0.324845   
     32. A(C   3,C   6,H   7)          108.9276         0.323702   
     33. A(C   3,C   6,N   9)          110.9513         0.369233   
     34. A(H  10,N   9,H  11)          105.7522         0.301550   
     35. A(C   6,N   9,H  11)          109.3276         0.334343   
     36. A(C   6,N   9,H  10)          109.8436         0.334515   
     37. A(H  13,C  12,H  15)          107.5482         0.289926   
     38. A(C   0,C  12,H  15)          111.0874         0.324362   
     39. A(H  13,C  12,H  14)          107.7216         0.290060   
     40. A(C   0,C  12,H  14)          111.5058         0.324519   
     41. A(H  14,C  12,H  15)          107.7144         0.290089   
     42. A(C   0,C  12,H  13)          111.0822         0.324328   
     43. D(C   6,C   3,C   0,H   1)     58.2218         0.011296   
     44. D(C   6,C   3,C   0,H   2)    -57.6936         0.011296   
     45. D(H   4,C   3,C   0,H   1)    179.8988         0.011296   
     46. D(H   4,C   3,C   0,H   2)     63.9834         0.011296   
     47. D(H   4,C   3,C   0,C  12)    -58.1051         0.011296   
     48. D(H   5,C   3,C   0,H   1)    -63.6739         0.011296   
     49. D(H   5,C   3,C   0,H   2)   -179.5893         0.011296   
     50. D(C   6,C   3,C   0,C  12)   -179.7821         0.011296   
     51. D(H   5,C   3,C   0,C  12)     58.3222         0.011296   
     52. D(H   8,C   6,C   3,H   4)    178.3044         0.011619   
     53. D(H   8,C   6,C   3,C   0)    -59.8443         0.011619   
     54. D(H   7,C   6,C   3,H   5)    178.7161         0.011619   
     55. D(H   8,C   6,C   3,H   5)     62.5757         0.011619   
     56. D(H   7,C   6,C   3,H   4)    -65.5552         0.011619   
     57. D(H   7,C   6,C   3,C   0)     56.2961         0.011619   
     58. D(N   9,C   6,C   3,H   5)    -56.2522         0.011619   
     59. D(N   9,C   6,C   3,H   4)     59.4765         0.011619   
     60. D(N   9,C   6,C   3,C   0)   -178.6722         0.011619   
     61. D(H  11,N   9,C   6,H   8)    175.1394         0.014775   
     62. D(H  11,N   9,C   6,H   7)     57.4817         0.014775   
     63. D(H  11,N   9,C   6,C   3)    -65.2093         0.014775   
     64. D(H  10,N   9,C   6,H   8)     59.5177         0.014775   
     65. D(H  10,N   9,C   6,H   7)    -58.1399         0.014775   
     66. D(H  10,N   9,C   6,C   3)    179.1690         0.014775   
     67. D(H  14,C  12,C   0,C   3)    179.9667         0.011367   
     68. D(H  14,C  12,C   0,H   2)     57.9450         0.011367   
     69. D(H  14,C  12,C   0,H   1)    -58.1979         0.011367   
     70. D(H  13,C  12,C   0,C   3)     59.7984         0.011367   
     71. D(H  13,C  12,C   0,H   2)    -62.2233         0.011367   
     72. D(H  15,C  12,C   0,H   1)     61.9648         0.011367   
     73. D(H  13,C  12,C   0,H   1)   -178.3662         0.011367   
     74. D(H  15,C  12,C   0,C   3)    -59.8706         0.011367   
     75. D(H  15,C  12,C   0,H   2)    178.1077         0.011367   
    -----------------------------------------------------------------

Number of atoms                         .... 16
Number of degrees of freedom            .... 75

         *************************************************************
         *                GEOMETRY OPTIMIZATION CYCLE   1            *
         *************************************************************
      -----------------------------------------------------------      
     |                   =====================                   |     
     |                           x T B                           |     
     |                   =====================                   |     
     |                         S. Grimme                         |     
     |          Mulliken Center for Theoretical Chemistry        |     
     |                    University of Bonn                     |     
      -----------------------------------------------------------      

   * xtb version 6.3.0 (49875a8) compiled by 'schneider@apollo14' on 2020-05-23

   xtb is free software: you can redistribute it and/or modify it under
   the terms of the GNU Lesser General Public License as published by
   the Free Software Foundation, either version 3 of the License, or
   (at your option) any later version.
   
   xtb is distributed in the hope that it will be useful,
   but WITHOUT ANY WARRANTY; without even the implied warranty of
   MERCHANTABILITY or FITNESS FOR A PARTICULAR PURPOSE.  See the
   GNU Lesser General Public License for more details.
   
   Cite this work as:
   * S. Grimme, C. Bannwarth, P. Shushkov, J. Chem. Theory Comput., 2017,
     13, 1989-2009. DOI: 10.1021/acs.jctc.7b00118
   * C. Bannwarth, S. Ehlert and S. Grimme., J. Chem. Theory Comput., 2019,
     15, 1652-1671. DOI: 10.1021/acs.jctc.8b01176
   * P. Pracht, E. Caldeweyher, S. Ehlert, S. Grimme, ChemRxiv, 2019, preprint.
     DOI: 10.26434/chemrxiv.8326202.v1
   
   for GFN-FF:
   * S. Spicher and S. Grimme, Angew. Chem. Int. Ed., 2020,
     DOI: 10.1002/anie.202004239
   
   for DFT-D4:
   * E. Caldeweyher, C. Bannwarth and S. Grimme, J. Chem. Phys., 2017,
     147, 034112. DOI: 10.1063/1.4993215
   * E. Caldeweyher, S. Ehlert, A. Hansen, H. Neugebauer, S. Spicher,
     C. Bannwarth and S. Grimme, J. Chem. Phys., 2019, 150, 154122.
     DOI: 10.1063/1.5090222
   
   for sTDA-xTB:
   * S. Grimme and C. Bannwarth, J. Chem. Phys., 2016, 145, 054103.
     DOI: 10.1063/1.4959605
   
   in the mass-spec context:
   * V. Asgeirsson, C. Bauer and S. Grimme, Chem. Sci., 2017, 8, 4879.
     DOI: 10.1039/c7sc00601b
   * J. Koopman and S. Grimme, ACS Omega 2019, 4, 12, 15120-15133.
     DOI: 10.1021/acsomega.9b02011
   
   for metadynamics refer to:
   * S. Grimme, J. Chem. Theory Comput., 2019, 155, 2847-2862
     DOI: 10.1021/acs.jctc.9b00143
   
   with help from (in alphabetical order)
   C. Bannwarth, F. Bohle, G. Brandenburg, E. Caldeweyher, M. Checinski,
   S. Dohm, S. Ehlert, S. Ehrlich, F. März, H. Neugebauer, J. Pisarek,
   P. Pracht, P. Shushkov, and S. Spicher.
   
 * started run on 2020/06/19 at 15:34:54.602     

           -------------------------------------------------
          |                Calculation Setup                |
           -------------------------------------------------

          program call               : /opt/orca/otool_xtb opt+freq_XTB.xyz --grad -c 0 -u 0 -P 12 --namespace opt+freq --gbsa CH2Cl2
          calculation namespace      : opt+freq
          coordinate file            : opt+freq_XTB.xyz
          number of atoms            :                    16
          number of electrons        :                    32
          charge                     :                     0
          spin                       :                   0.0
          first test random number   :      0.82363980089656

   ID    Z sym.   atoms
    1    6 C      1, 4, 7, 13
    2    1 H      2, 3, 5, 6, 8, 9, 11, 12, 14-16
    3    7 N      10
########################################################################
[WARNING] Please study the warnings concerning your input carefully
-1- prog_main_parseArguments: Process number higher than OMP_NUM_THREADS, I hope you know what you are doing.
########################################################################
 Solvent             : CH2Cl2
 Using internal parameter file: .param_gbsa2_CH2Cl2
 Gsolv ref. state (COSMO-RS): gsolv [1 M gas/solution]
 temperature (mdtemp)       :    298.14999999999998     
 dielectric constant        :    8.9299999999999997     
 rho                        :    1.3300000000000003     
 mass                       :    84.930000000000007     
 surface tension            :    15.568945408385856     
 probe radius               :   0.71987590000000001     
 Gshift (Eh)                :    4.4408291734517593E-003
 c1                         :    1.4917377599999999     
 soset                      :    0.0000000000000000     
 HB correction              :  F

           -------------------------------------------------
          |                 G F N 2 - x T B                 |
           -------------------------------------------------

        Reference                      10.1021/acs.jctc.8b01176
      * Hamiltonian:
        H0-scaling (s, p, d)           1.850000    2.230000    2.230000
        zeta-weighting                 0.500000
      * Dispersion:
        s8                             2.700000
        a1                             0.520000
        a2                             5.000000
        s9                             5.000000
      * Repulsion:
        kExp                           1.500000    1.000000
        rExp                           1.000000
      * Coulomb:
        alpha                          2.000000
        third order                    shell-resolved
        anisotropic                    true
        a3                             3.000000
        a5                             4.000000
        cn-shift                       1.200000
        cn-exp                         4.000000
        max-rad                        5.000000


          ...................................................
          :                      SETUP                      :
          :.................................................:
          :  # basis functions                  31          :
          :  # atomic orbitals                  31          :
          :  # shells                           21          :
          :  # electrons                        32          :
          :  max. iterations                   250          :
          :  Hamiltonian                  GFN2-xTB          :
          :  restarted?                      false          :
          :  GBSA solvation                   true          :
          :  PC potential                    false          :
          :  electronic temp.          300.0000000     K    :
          :  accuracy                    1.0000000          :
          :  -> integral cutoff          0.2500000E+02      :
          :  -> integral neglect         0.1000000E-07      :
          :  -> SCF convergence          0.1000000E-05 Eh   :
          :  -> wf. convergence          0.1000000E-03 e    :
          :  Broyden damping             0.4000000          :
          ...................................................

 iter      E             dE          RMSdq      gap      omega  full diag
   1    -17.2843490 -0.172843E+02  0.273E+00   10.76       0.0  T
   2    -17.3151576 -0.308086E-01  0.148E+00   10.76       1.0  T
   3    -17.3161059 -0.948284E-03  0.664E-01   10.86       1.0  T
   4    -17.3161990 -0.930750E-04  0.105E-01   10.86       1.0  T
   5    -17.3162113 -0.123039E-04  0.439E-02   10.84       1.0  T
   6    -17.3162124 -0.115309E-05  0.164E-02   10.84       1.5  T
   7    -17.3162126 -0.191809E-06  0.178E-03   10.84      14.0  T
   8    -17.3162126 -0.337305E-08  0.980E-04   10.84      25.5  T
   9    -17.3162126 -0.805173E-09  0.193E-04   10.84     129.2  T

   *** convergence criteria satisfied after 9 iterations ***

         #    Occupation            Energy/Eh            Energy/eV
      -------------------------------------------------------------
         1        2.0000           -0.6316996             -17.1894
       ...           ...                  ...                  ...
        10        2.0000           -0.4786145             -13.0238
        11        2.0000           -0.4648145             -12.6482
        12        2.0000           -0.4469340             -12.1617
        13        2.0000           -0.4370195             -11.8919
        14        2.0000           -0.4351314             -11.8405
        15        2.0000           -0.4226947             -11.5021
        16        2.0000           -0.3739123             -10.1747 (HOMO)
        17                          0.0244459               0.6652 (LUMO)
        18                          0.0911848               2.4813
        19                          0.1090989               2.9687
        20                          0.1264032               3.4396
        21                          0.1341130               3.6494
       ...                                ...                  ...
        31                          0.2991700               8.1408
      -------------------------------------------------------------
                  HL-Gap            0.3983582 Eh           10.8399 eV
             Fermi-level           -0.1747332 Eh           -4.7547 eV

 SCC (total)                   0 d,  0 h,  0 min,  0.017 sec
 SCC setup                      ...        0 min,  0.000 sec (  2.977%)
 Dispersion                     ...        0 min,  0.000 sec (  0.650%)
 classical contributions        ...        0 min,  0.000 sec (  0.225%)
 integral evaluation            ...        0 min,  0.003 sec ( 17.236%)
 iterations                     ...        0 min,  0.007 sec ( 39.354%)
 molecular gradient             ...        0 min,  0.005 sec ( 31.829%)
 printout                       ...        0 min,  0.001 sec (  7.631%)

         :::::::::::::::::::::::::::::::::::::::::::::::::::::
         ::                     SUMMARY                     ::
         :::::::::::::::::::::::::::::::::::::::::::::::::::::
         :: total energy             -17.089225650920 Eh    ::
         :: total w/o Gsasa/hb       -17.081967379036 Eh    ::
         :: gradient norm              0.015115197372 Eh/a0 ::
         :: HOMO-LUMO gap             10.839878290940 eV    ::
         ::.................................................::
         :: SCC energy               -17.323470877324 Eh    ::
         :: -> isotropic ES            0.014199185001 Eh    ::
         :: -> anisotropic ES          0.006129236674 Eh    ::
         :: -> anisotropic XC          0.013239480406 Eh    ::
         :: -> dispersion             -0.007611651066 Eh    ::
         :: -> Gsolv                  -0.008370799602 Eh    ::
         ::    -> Gborn               -0.001112527717 Eh    ::
         ::    -> Gsasa               -0.011699101058 Eh    ::
         ::    -> Ghb                  0.000000000000 Eh    ::
         ::    -> Gshift               0.004440829173 Eh    ::
         :: repulsion energy           0.234245039026 Eh    ::
         :: add. restraining           0.000000000000 Eh    ::
         :::::::::::::::::::::::::::::::::::::::::::::::::::::

           -------------------------------------------------
          |                Property Printout                |
           -------------------------------------------------

    * Orbital Energies and Occupations

         #    Occupation            Energy/Eh            Energy/eV
      -------------------------------------------------------------
         1        2.0000           -0.6316996             -17.1894
       ...           ...                  ...                  ...
         4        2.0000           -0.5680814             -15.4583
         5        2.0000           -0.5592300             -15.2174
         6        2.0000           -0.5275154             -14.3544
         7        2.0000           -0.5187563             -14.1161
         8        2.0000           -0.5060932             -13.7715
         9        2.0000           -0.4906163             -13.3503
        10        2.0000           -0.4786145             -13.0238
        11        2.0000           -0.4648145             -12.6482
        12        2.0000           -0.4469340             -12.1617
        13        2.0000           -0.4370195             -11.8919
        14        2.0000           -0.4351314             -11.8405
        15        2.0000           -0.4226947             -11.5021
        16        2.0000           -0.3739123             -10.1747 (HOMO)
        17                          0.0244459               0.6652 (LUMO)
        18                          0.0911848               2.4813
        19                          0.1090989               2.9687
        20                          0.1264032               3.4396
        21                          0.1341130               3.6494
        22                          0.1530472               4.1646
        23                          0.1603237               4.3626
        24                          0.1711034               4.6560
        25                          0.1826993               4.9715
        26                          0.2025361               5.5113
        27                          0.2322312               6.3193
       ...                                ...                  ...
        31                          0.2991700               8.1408
      -------------------------------------------------------------
                  HL-Gap            0.3983582 Eh           10.8399 eV
             Fermi-level           -0.1747332 Eh           -4.7547 eV

     #   Z        covCN         q      C6AA      α(0)
     1   6 C      3.799    -0.053    21.527     6.606
     2   1 H      0.924     0.031     2.574     2.509
     3   1 H      0.924     0.029     2.597     2.520
     4   6 C      3.802    -0.065    21.738     6.638
     5   1 H      0.924     0.033     2.545     2.495
     6   1 H      0.924     0.043     2.406     2.425
     7   6 C      3.731     0.022    20.292     6.430
     8   1 H      0.923     0.005     2.972     2.696
     9   1 H      0.924     0.032     2.564     2.504
    10   7 N      2.628    -0.362    29.351     8.046
    11   1 H      0.860     0.140     1.472     1.900
    12   1 H      0.860     0.140     1.468     1.898
    13   6 C      3.749    -0.102    22.507     6.766
    14   1 H      0.924     0.034     2.524     2.484
    15   1 H      0.924     0.036     2.505     2.475
    16   1 H      0.924     0.036     2.506     2.476

 Mol. C6AA /au·bohr⁶  :       1662.186407
 Mol. C8AA /au·bohr⁸  :      33704.921078
 Mol. α(0) /au        :         60.869286


Wiberg/Mayer (AO) data.
largest (>0.10) Wiberg bond orders for each atom
          total WBO             WBO to atom ...
     1  C   3.997        C   13 1.019    C    4 1.007    H    2 0.978    H    3 0.978
     2  H   0.999        C    1 0.978
     3  H   0.999        C    1 0.978
     4  C   3.996        C    1 1.007    C    7 1.006    H    6 0.976    H    5 0.976
     5  H   0.999        C    4 0.976
     6  H   0.998        C    4 0.976
     7  C   3.985        N   10 1.017    C    4 1.006    H    9 0.976    H    8 0.971
     8  H   1.000        C    7 0.971
     9  H   0.999        C    7 0.976
    10  N   2.989        C    7 1.017    H   11 0.968    H   12 0.968
    11  H   0.980        N   10 0.968
    12  H   0.980        N   10 0.968
    13  C   3.996        C    1 1.019    H   14 0.988    H   16 0.988    H   15 0.987
    14  H   0.999        C   13 0.988
    15  H   0.998        C   13 0.987
    16  H   0.999        C   13 0.988
Topologies differ in total number of bonds
Writing topology from bond orders to xtbtopo.mol

molecular dipole:
                 x           y           z       tot (Debye)
 q only:       -0.021       0.068      -0.207
   full:        0.206       0.256      -0.471       1.460
molecular quadrupole (traceless):
                xx          xy          yy          xz          yz          zz
 q only:        2.199       0.223       0.606       1.551       1.105      -2.805
  q+dip:        1.691      -0.554       3.513       3.073       1.619      -5.205
   full:        2.166      -0.545       3.154       3.521       2.099      -5.319


           -------------------------------------------------
          | TOTAL ENERGY              -17.089225650920 Eh   |
          | GRADIENT NORM               0.015115197372 Eh/α |
          | HOMO-LUMO GAP              10.839878290940 eV   |
           -------------------------------------------------

------------------------------------------------------------------------
 * finished run on 2020/06/19 at 15:34:54.646     
------------------------------------------------------------------------
 total:
 * wall-time:     0 d,  0 h,  0 min,  0.043 sec
 *  cpu-time:     0 d,  0 h,  0 min,  0.387 sec
 * ratio c/w:     8.912 speedup
 SCF:
 * wall-time:     0 d,  0 h,  0 min,  0.017 sec
 *  cpu-time:     0 d,  0 h,  0 min,  0.149 sec
 * ratio c/w:     8.925 speedup


-------------------------   --------------------
FINAL SINGLE POINT ENERGY       -17.089225650920
-------------------------   --------------------

------------------------------------------------------------------------------
                         ORCA GEOMETRY RELAXATION STEP
------------------------------------------------------------------------------

Reading the OPT-File                    .... done
Getting information on internals        .... done
Copying old internal coords+grads       .... done
Making the new internal coordinates     .... (new redundants).... done
Validating the new internal coordinates .... (new redundants).... done
Calculating the B-matrix                .... done
Calculating the G,G- and P matrices     .... done
Transforming gradient to internals      .... done
Projecting the internal gradient        .... done
Number of atoms                         ....  16
Number of internal coordinates          ....  75
Current Energy                          ....   -17.089225651 Eh
Current gradient norm                   ....     0.015115197 Eh/bohr
Maximum allowed component of the step   ....  0.300
Current trust radius                    ....  0.300
Evaluating the initial hessian          ....  (Almloef) done
Projecting the Hessian                  .... done
Forming the augmented Hessian           .... done
Diagonalizing the augmented Hessian     .... done
Last element of RFO vector              ....  0.997729559
Lowest eigenvalues of augmented Hessian:
 -0.000734516  0.011295652  0.011366992  0.011622710  0.014779320
Length of the computed step             ....  0.067501064
The final length of the internal step   ....  0.067501064
Converting the step to cartesian space:
 Initial RMS(Int)=    0.0077943515
Transforming coordinates:
 Iter   0:  RMS(Cart)=    0.0170025557 RMS(Int)=    0.7253450943
 Iter   1:  RMS(Cart)=    0.0000702132 RMS(Int)=    0.0000462464
 Iter   2:  RMS(Cart)=    0.0000007774 RMS(Int)=    0.0000006241
 Iter   3:  RMS(Cart)=    0.0000000110 RMS(Int)=    0.0000000099
done
Storing new coordinates                 .... done

                                .--------------------.
          ----------------------|Geometry convergence|-------------------------
          Item                value                   Tolerance       Converged
          ---------------------------------------------------------------------
          RMS gradient        0.0016315034            0.0001000000      NO
          MAX gradient        0.0081117948            0.0003000000      NO
          RMS step            0.0077943515            0.0020000000      NO
          MAX step            0.0194540592            0.0040000000      NO
          ........................................................
          Max(Bonds)      0.0103      Max(Angles)    0.78
          Max(Dihed)        1.11      Max(Improp)    0.00
          ---------------------------------------------------------------------

The optimization has not yet converged - more geometry cycles are needed


    ---------------------------------------------------------------------------
                         Redundant Internal Coordinates
                            (Angstroem and degrees)

        Definition                    Value    dE/dq     Step     New-Value
    ----------------------------------------------------------------------------
     1. B(H   1,C   0)                1.0945  0.000543 -0.0008    1.0937   
     2. B(H   2,C   0)                1.0944  0.000259 -0.0004    1.0940   
     3. B(C   3,C   0)                1.5280  0.002481 -0.0035    1.5246   
     4. B(H   4,C   3)                1.0960  0.000858 -0.0013    1.0947   
     5. B(H   5,C   3)                1.0942  0.001113 -0.0017    1.0925   
     6. B(C   6,C   3)                1.5240 -0.000054  0.0001    1.5241   
     7. B(H   7,C   6)                1.0992 -0.002662  0.0040    1.1032   
     8. B(H   8,C   6)                1.0933 -0.000823  0.0012    1.0945   
     9. B(N   9,C   6)                1.4706  0.008112 -0.0103    1.4603   
    10. B(H  10,N   9)                1.0144 -0.001007  0.0012    1.0156   
    11. B(H  11,N   9)                1.0152 -0.001131  0.0014    1.0166   
    12. B(C  12,C   0)                1.5271  0.004407 -0.0062    1.5210   
    13. B(H  13,C  12)                1.0928  0.002487 -0.0037    1.0891   
    14. B(H  14,C  12)                1.0918  0.002536 -0.0037    1.0881   
    15. B(H  15,C  12)                1.0926  0.002542 -0.0038    1.0889   
    16. A(H   1,C   0,C  12)          109.47 -0.000485   -0.01    109.46   
    17. A(H   2,C   0,C  12)          109.46 -0.000519   -0.01    109.44   
    18. A(H   2,C   0,C   3)          109.34 -0.000732    0.06    109.40   
    19. A(H   1,C   0,C   3)          109.18 -0.000813    0.09    109.28   
    20. A(H   1,C   0,H   2)          106.30 -0.000468    0.63    106.93   
    21. A(C   3,C   0,C  12)          112.88  0.002819   -0.67    112.21   
    22. A(C   0,C   3,C   6)          113.24  0.003069   -0.68    112.56   
    23. A(H   4,C   3,H   5)          106.46 -0.000179    0.48    106.95   
    24. A(C   0,C   3,H   5)          109.80 -0.000907    0.07    109.86   
    25. A(H   5,C   3,C   6)          108.86 -0.000491   -0.05    108.80   
    26. A(C   0,C   3,H   4)          109.28 -0.000800    0.13    109.41   
    27. A(H   4,C   3,C   6)          108.97 -0.000884    0.12    109.09   
    28. A(H   8,C   6,N   9)          107.89  0.000452   -0.33    107.56   
    29. A(H   7,C   6,N   9)          113.02 -0.000193   -0.12    112.90   
    30. A(H   7,C   6,H   8)          106.64 -0.000559    0.61    107.26   
    31. A(C   3,C   6,H   8)          109.26 -0.001402    0.27    109.53   
    32. A(C   3,C   6,H   7)          108.93 -0.001213    0.27    109.19   
    33. A(C   3,C   6,N   9)          110.95  0.002738   -0.65    110.31   
    34. A(H  10,N   9,H  11)          105.75 -0.002002    0.78    106.53   
    35. A(C   6,N   9,H  11)          109.33  0.000497    0.09    109.41   
    36. A(C   6,N   9,H  10)          109.84  0.001214   -0.04    109.81   
    37. A(H  13,C  12,H  15)          107.55 -0.001495    0.34    107.88   
    38. A(C   0,C  12,H  15)          111.09  0.001339   -0.24    110.85   
    39. A(H  13,C  12,H  14)          107.72 -0.001829    0.32    108.04   
    40. A(C   0,C  12,H  14)          111.51  0.002512   -0.49    111.02   
    41. A(H  14,C  12,H  15)          107.71 -0.001938    0.33    108.05   
    42. A(C   0,C  12,H  13)          111.08  0.001099   -0.20    110.89   
    43. D(C   6,C   3,C   0,H   1)     58.22 -0.000554    0.32     58.54   
    44. D(C   6,C   3,C   0,H   2)    -57.69  0.000869   -0.52    -58.21   
    45. D(H   4,C   3,C   0,H   1)    179.90 -0.000188    0.11    180.01   
    46. D(H   4,C   3,C   0,H   2)     63.98  0.001236   -0.73     63.26   
    47. D(H   4,C   3,C   0,C  12)    -58.11  0.000512   -0.29    -58.40   
    48. D(H   5,C   3,C   0,H   1)    -63.67 -0.001381    0.81    -62.87   
    49. D(H   5,C   3,C   0,H   2)   -179.59  0.000042   -0.03   -179.62   
    50. D(C   6,C   3,C   0,C  12)   -179.78  0.000145   -0.08   -179.86   
    51. D(H   5,C   3,C   0,C  12)     58.32 -0.000681    0.41     58.73   
    52. D(H   8,C   6,C   3,H   4)    178.30  0.000627    0.06    178.36   
    53. D(H   8,C   6,C   3,C   0)    -59.84  0.001029   -0.15    -59.99   
    54. D(H   7,C   6,C   3,H   5)    178.72 -0.000531    0.48    179.19   
    55. D(H   8,C   6,C   3,H   5)     62.58  0.001589   -0.56     62.02   
    56. D(H   7,C   6,C   3,H   4)    -65.56 -0.001493    1.09    -64.47   
    57. D(H   7,C   6,C   3,C   0)     56.30 -0.001090    0.89     57.18   
    58. D(N   9,C   6,C   3,H   5)    -56.25  0.000246    0.07    -56.19   
    59. D(N   9,C   6,C   3,H   4)     59.48 -0.000716    0.68     60.15   
    60. D(N   9,C   6,C   3,C   0)   -178.67 -0.000313    0.48   -178.20   
    61. D(H  11,N   9,C   6,H   8)    175.14 -0.001055    1.11    176.25   
    62. D(H  11,N   9,C   6,H   7)     57.48 -0.000545    0.63     58.12   
    63. D(H  11,N   9,C   6,C   3)    -65.21 -0.000874    0.86    -64.35   
    64. D(H  10,N   9,C   6,H   8)     59.52  0.000387    0.14     59.66   
    65. D(H  10,N   9,C   6,H   7)    -58.14  0.000897   -0.34    -58.48   
    66. D(H  10,N   9,C   6,C   3)    179.17  0.000568   -0.11    179.06   
    67. D(H  14,C  12,C   0,C   3)    179.97  0.000023   -0.03    179.94   
    68. D(H  14,C  12,C   0,H   2)     57.94 -0.000585    0.37     58.31   
    69. D(H  14,C  12,C   0,H   1)    -58.20  0.000547   -0.37    -58.57   
    70. D(H  13,C  12,C   0,C   3)     59.80 -0.000098    0.03     59.83   
    71. D(H  13,C  12,C   0,H   2)    -62.22 -0.000706    0.43    -61.80   
    72. D(H  15,C  12,C   0,H   1)     61.96  0.000693   -0.45     61.52   
    73. D(H  13,C  12,C   0,H   1)   -178.37  0.000426   -0.31   -178.68   
    74. D(H  15,C  12,C   0,C   3)    -59.87  0.000169   -0.10    -59.97   
    75. D(H  15,C  12,C   0,H   2)    178.11 -0.000439    0.29    178.40   
    ----------------------------------------------------------------------------

         *************************************************************
         *                GEOMETRY OPTIMIZATION CYCLE   2            *
         *************************************************************
      -----------------------------------------------------------      
     |                   =====================                   |     
     |                           x T B                           |     
     |                   =====================                   |     
     |                         S. Grimme                         |     
     |          Mulliken Center for Theoretical Chemistry        |     
     |                    University of Bonn                     |     
      -----------------------------------------------------------      

   * xtb version 6.3.0 (49875a8) compiled by 'schneider@apollo14' on 2020-05-23

   xtb is free software: you can redistribute it and/or modify it under
   the terms of the GNU Lesser General Public License as published by
   the Free Software Foundation, either version 3 of the License, or
   (at your option) any later version.
   
   xtb is distributed in the hope that it will be useful,
   but WITHOUT ANY WARRANTY; without even the implied warranty of
   MERCHANTABILITY or FITNESS FOR A PARTICULAR PURPOSE.  See the
   GNU Lesser General Public License for more details.
   
   Cite this work as:
   * S. Grimme, C. Bannwarth, P. Shushkov, J. Chem. Theory Comput., 2017,
     13, 1989-2009. DOI: 10.1021/acs.jctc.7b00118
   * C. Bannwarth, S. Ehlert and S. Grimme., J. Chem. Theory Comput., 2019,
     15, 1652-1671. DOI: 10.1021/acs.jctc.8b01176
   * P. Pracht, E. Caldeweyher, S. Ehlert, S. Grimme, ChemRxiv, 2019, preprint.
     DOI: 10.26434/chemrxiv.8326202.v1
   
   for GFN-FF:
   * S. Spicher and S. Grimme, Angew. Chem. Int. Ed., 2020,
     DOI: 10.1002/anie.202004239
   
   for DFT-D4:
   * E. Caldeweyher, C. Bannwarth and S. Grimme, J. Chem. Phys., 2017,
     147, 034112. DOI: 10.1063/1.4993215
   * E. Caldeweyher, S. Ehlert, A. Hansen, H. Neugebauer, S. Spicher,
     C. Bannwarth and S. Grimme, J. Chem. Phys., 2019, 150, 154122.
     DOI: 10.1063/1.5090222
   
   for sTDA-xTB:
   * S. Grimme and C. Bannwarth, J. Chem. Phys., 2016, 145, 054103.
     DOI: 10.1063/1.4959605
   
   in the mass-spec context:
   * V. Asgeirsson, C. Bauer and S. Grimme, Chem. Sci., 2017, 8, 4879.
     DOI: 10.1039/c7sc00601b
   * J. Koopman and S. Grimme, ACS Omega 2019, 4, 12, 15120-15133.
     DOI: 10.1021/acsomega.9b02011
   
   for metadynamics refer to:
   * S. Grimme, J. Chem. Theory Comput., 2019, 155, 2847-2862
     DOI: 10.1021/acs.jctc.9b00143
   
   with help from (in alphabetical order)
   C. Bannwarth, F. Bohle, G. Brandenburg, E. Caldeweyher, M. Checinski,
   S. Dohm, S. Ehlert, S. Ehrlich, F. März, H. Neugebauer, J. Pisarek,
   P. Pracht, P. Shushkov, and S. Spicher.
   
 * started run on 2020/06/19 at 15:34:54.791     

           -------------------------------------------------
          |                Calculation Setup                |
           -------------------------------------------------

          program call               : /opt/orca/otool_xtb opt+freq_XTB.xyz --grad -c 0 -u 0 -P 12 --namespace opt+freq --gbsa CH2Cl2
          calculation namespace      : opt+freq
          coordinate file            : opt+freq_XTB.xyz
          number of atoms            :                    16
          number of electrons        :                    32
          charge                     :                     0
          spin                       :                   0.0
          first test random number   :      0.86792703052804

   ID    Z sym.   atoms
    1    6 C      1, 4, 7, 13
    2    1 H      2, 3, 5, 6, 8, 9, 11, 12, 14-16
    3    7 N      10
########################################################################
[WARNING] Please study the warnings concerning your input carefully
-1- prog_main_parseArguments: Process number higher than OMP_NUM_THREADS, I hope you know what you are doing.
########################################################################
 Solvent             : CH2Cl2
 Using internal parameter file: .param_gbsa2_CH2Cl2
 Gsolv ref. state (COSMO-RS): gsolv [1 M gas/solution]
 temperature (mdtemp)       :    298.14999999999998     
 dielectric constant        :    8.9299999999999997     
 rho                        :    1.3300000000000003     
 mass                       :    84.930000000000007     
 surface tension            :    15.568945408385856     
 probe radius               :   0.71987590000000001     
 Gshift (Eh)                :    4.4408291734517593E-003
 c1                         :    1.4917377599999999     
 soset                      :    0.0000000000000000     
 HB correction              :  F

           -------------------------------------------------
          |                 G F N 2 - x T B                 |
           -------------------------------------------------

        Reference                      10.1021/acs.jctc.8b01176
      * Hamiltonian:
        H0-scaling (s, p, d)           1.850000    2.230000    2.230000
        zeta-weighting                 0.500000
      * Dispersion:
        s8                             2.700000
        a1                             0.520000
        a2                             5.000000
        s9                             5.000000
      * Repulsion:
        kExp                           1.500000    1.000000
        rExp                           1.000000
      * Coulomb:
        alpha                          2.000000
        third order                    shell-resolved
        anisotropic                    true
        a3                             3.000000
        a5                             4.000000
        cn-shift                       1.200000
        cn-exp                         4.000000
        max-rad                        5.000000


          ...................................................
          :                      SETUP                      :
          :.................................................:
          :  # basis functions                  31          :
          :  # atomic orbitals                  31          :
          :  # shells                           21          :
          :  # electrons                        32          :
          :  max. iterations                   250          :
          :  Hamiltonian                  GFN2-xTB          :
          :  restarted?                      false          :
          :  GBSA solvation                   true          :
          :  PC potential                    false          :
          :  electronic temp.          300.0000000     K    :
          :  accuracy                    1.0000000          :
          :  -> integral cutoff          0.2500000E+02      :
          :  -> integral neglect         0.1000000E-07      :
          :  -> SCF convergence          0.1000000E-05 Eh   :
          :  -> wf. convergence          0.1000000E-03 e    :
          :  Broyden damping             0.4000000          :
          ...................................................

 iter      E             dE          RMSdq      gap      omega  full diag
   1    -17.2870473 -0.172870E+02  0.276E+00   10.96       0.0  T
   2    -17.3182032 -0.311559E-01  0.151E+00   10.97       1.0  T
   3    -17.3191593 -0.956126E-03  0.670E-01   11.07       1.0  T
   4    -17.3192530 -0.937510E-04  0.105E-01   11.05       1.0  T
   5    -17.3192654 -0.123165E-04  0.440E-02   11.04       1.0  T
   6    -17.3192664 -0.109207E-05  0.162E-02   11.04       1.5  T
   7    -17.3192666 -0.184320E-06  0.180E-03   11.04      13.9  T
   8    -17.3192666 -0.408160E-08  0.101E-03   11.04      24.8  T
   9    -17.3192666 -0.770676E-09  0.193E-04   11.04     129.6  T
  10    -17.3192666 -0.291678E-10  0.861E-05   11.04     290.5  T

   *** convergence criteria satisfied after 10 iterations ***

         #    Occupation            Energy/Eh            Energy/eV
      -------------------------------------------------------------
         1        2.0000           -0.6327215             -17.2172
       ...           ...                  ...                  ...
        10        2.0000           -0.4789679             -13.0334
        11        2.0000           -0.4646093             -12.6427
        12        2.0000           -0.4469616             -12.1624
        13        2.0000           -0.4369333             -11.8896
        14        2.0000           -0.4342497             -11.8165
        15        2.0000           -0.4231699             -11.5150
        16        2.0000           -0.3729601             -10.1488 (HOMO)
        17                          0.0326591               0.8887 (LUMO)
        18                          0.0930877               2.5330
        19                          0.1107152               3.0127
        20                          0.1283476               3.4925
        21                          0.1352009               3.6790
       ...                                ...                  ...
        31                          0.3044562               8.2847
      -------------------------------------------------------------
                  HL-Gap            0.4056192 Eh           11.0375 eV
             Fermi-level           -0.1701505 Eh           -4.6300 eV

 SCC (total)                   0 d,  0 h,  0 min,  0.023 sec
 SCC setup                      ...        0 min,  0.001 sec (  2.282%)
 Dispersion                     ...        0 min,  0.000 sec (  0.501%)
 classical contributions        ...        0 min,  0.000 sec (  0.166%)
 integral evaluation            ...        0 min,  0.003 sec ( 13.711%)
 iterations                     ...        0 min,  0.013 sec ( 58.658%)
 molecular gradient             ...        0 min,  0.005 sec ( 24.036%)
 printout                       ...        0 min,  0.000 sec (  0.580%)

         :::::::::::::::::::::::::::::::::::::::::::::::::::::
         ::                     SUMMARY                     ::
         :::::::::::::::::::::::::::::::::::::::::::::::::::::
         :: total energy             -17.089680356227 Eh    ::
         :: total w/o Gsasa/hb       -17.082473910072 Eh    ::
         :: gradient norm              0.007728689182 Eh/a0 ::
         :: HOMO-LUMO gap             11.037460993569 eV    ::
         ::.................................................::
         :: SCC energy               -17.326473084533 Eh    ::
         :: -> isotropic ES            0.014173951044 Eh    ::
         :: -> anisotropic ES          0.005958869282 Eh    ::
         :: -> anisotropic XC          0.013350567529 Eh    ::
         :: -> dispersion             -0.007641464435 Eh    ::
         :: -> Gsolv                  -0.008300130525 Eh    ::
         ::    -> Gborn               -0.001093684371 Eh    ::
         ::    -> Gsasa               -0.011647275328 Eh    ::
         ::    -> Ghb                  0.000000000000 Eh    ::
         ::    -> Gshift               0.004440829173 Eh    ::
         :: repulsion energy           0.236792046004 Eh    ::
         :: add. restraining           0.000000000000 Eh    ::
         :::::::::::::::::::::::::::::::::::::::::::::::::::::

           -------------------------------------------------
          |                Property Printout                |
           -------------------------------------------------

    * Orbital Energies and Occupations

         #    Occupation            Energy/Eh            Energy/eV
      -------------------------------------------------------------
         1        2.0000           -0.6327215             -17.2172
       ...           ...                  ...                  ...
         4        2.0000           -0.5677843             -15.4502
         5        2.0000           -0.5594542             -15.2235
         6        2.0000           -0.5283406             -14.3769
         7        2.0000           -0.5194047             -14.1337
         8        2.0000           -0.5064234             -13.7805
         9        2.0000           -0.4909285             -13.3588
        10        2.0000           -0.4789679             -13.0334
        11        2.0000           -0.4646093             -12.6427
        12        2.0000           -0.4469616             -12.1624
        13        2.0000           -0.4369333             -11.8896
        14        2.0000           -0.4342497             -11.8165
        15        2.0000           -0.4231699             -11.5150
        16        2.0000           -0.3729601             -10.1488 (HOMO)
        17                          0.0326591               0.8887 (LUMO)
        18                          0.0930877               2.5330
        19                          0.1107152               3.0127
        20                          0.1283476               3.4925
        21                          0.1352009               3.6790
        22                          0.1533897               4.1739
        23                          0.1633952               4.4462
        24                          0.1728183               4.7026
        25                          0.1859021               5.0587
        26                          0.2059633               5.6045
        27                          0.2331367               6.3440
       ...                                ...                  ...
        31                          0.3044562               8.2847
      -------------------------------------------------------------
                  HL-Gap            0.4056192 Eh           11.0375 eV
             Fermi-level           -0.1701505 Eh           -4.6300 eV

     #   Z        covCN         q      C6AA      α(0)
     1   6 C      3.801    -0.053    21.531     6.606
     2   1 H      0.924     0.031     2.573     2.508
     3   1 H      0.924     0.029     2.598     2.521
     4   6 C      3.804    -0.065    21.747     6.639
     5   1 H      0.924     0.033     2.542     2.493
     6   1 H      0.924     0.044     2.397     2.421
     7   6 C      3.731     0.024    20.266     6.426
     8   1 H      0.923     0.003     3.010     2.713
     9   1 H      0.924     0.031     2.569     2.506
    10   7 N      2.629    -0.361    29.318     8.042
    11   1 H      0.860     0.139     1.475     1.902
    12   1 H      0.860     0.140     1.469     1.898
    13   6 C      3.752    -0.103    22.526     6.768
    14   1 H      0.925     0.035     2.515     2.480
    15   1 H      0.925     0.036     2.501     2.473
    16   1 H      0.925     0.036     2.496     2.471

 Mol. C6AA /au·bohr⁶  :       1662.250296
 Mol. C8AA /au·bohr⁸  :      33704.901760
 Mol. α(0) /au        :         60.869277


Wiberg/Mayer (AO) data.
largest (>0.10) Wiberg bond orders for each atom
          total WBO             WBO to atom ...
     1  C   3.998        C   13 1.020    C    4 1.008    H    2 0.978    H    3 0.978
     2  H   0.999        C    1 0.978
     3  H   0.999        C    1 0.978
     4  C   3.996        C    1 1.008    C    7 1.006    H    6 0.976    H    5 0.976
     5  H   0.999        C    4 0.976
     6  H   0.998        C    4 0.976
     7  C   3.985        N   10 1.019    C    4 1.006    H    9 0.976    H    8 0.970
     8  H   1.000        C    7 0.970
     9  H   0.999        C    7 0.976
    10  N   2.992        C    7 1.019    H   11 0.968    H   12 0.967
    11  H   0.980        N   10 0.968
    12  H   0.980        N   10 0.967
    13  C   3.996        C    1 1.020    H   14 0.988    H   16 0.988    H   15 0.987
    14  H   0.999        C   13 0.988
    15  H   0.998        C   13 0.987
    16  H   0.999        C   13 0.988
Topologies differ in total number of bonds
Writing topology from bond orders to xtbtopo.mol

molecular dipole:
                 x           y           z       tot (Debye)
 q only:       -0.027       0.069      -0.195
   full:        0.201       0.260      -0.451       1.419
molecular quadrupole (traceless):
                xx          xy          yy          xz          yz          zz
 q only:        2.193       0.198       0.543       1.468       1.103      -2.735
  q+dip:        1.531      -0.644       3.514       2.905       1.559      -5.046
   full:        2.041      -0.619       3.115       3.385       2.074      -5.156


           -------------------------------------------------
          | TOTAL ENERGY              -17.089680356227 Eh   |
          | GRADIENT NORM               0.007728689182 Eh/α |
          | HOMO-LUMO GAP              11.037460993569 eV   |
           -------------------------------------------------

------------------------------------------------------------------------
 * finished run on 2020/06/19 at 15:34:54.839     
------------------------------------------------------------------------
 total:
 * wall-time:     0 d,  0 h,  0 min,  0.047 sec
 *  cpu-time:     0 d,  0 h,  0 min,  0.501 sec
 * ratio c/w:    10.566 speedup
 SCF:
 * wall-time:     0 d,  0 h,  0 min,  0.023 sec
 *  cpu-time:     0 d,  0 h,  0 min,  0.242 sec
 * ratio c/w:    10.688 speedup


-------------------------   --------------------
FINAL SINGLE POINT ENERGY       -17.089680356230
-------------------------   --------------------

------------------------------------------------------------------------------
                         ORCA GEOMETRY RELAXATION STEP
------------------------------------------------------------------------------

Reading the OPT-File                    .... done
Getting information on internals        .... done
Copying old internal coords+grads       .... done
Making the new internal coordinates     .... (new redundants).... done
Validating the new internal coordinates .... (new redundants).... done
Calculating the B-matrix                .... done
Calculating the G,G- and P matrices     .... done
Transforming gradient to internals      .... done
Projecting the internal gradient        .... done
Number of atoms                         ....  16
Number of internal coordinates          ....  75
Current Energy                          ....   -17.089680356 Eh
Current gradient norm                   ....     0.007728689 Eh/bohr
Maximum allowed component of the step   ....  0.300
Current trust radius                    ....  0.300
Updating the Hessian (BFGS)             .... done
Forming the augmented Hessian           .... done
Diagonalizing the augmented Hessian     .... done
Last element of RFO vector              ....  0.998722264
Lowest eigenvalues of augmented Hessian:
 -0.000134110  0.011295652  0.011366949  0.011491039  0.014617311
Length of the computed step             ....  0.050600174
The final length of the internal step   ....  0.050600174
Converting the step to cartesian space:
 Initial RMS(Int)=    0.0058428048
Transforming coordinates:
 Iter   0:  RMS(Cart)=    0.0090399566 RMS(Int)=    0.0058389155
 Iter   1:  RMS(Cart)=    0.0000612082 RMS(Int)=    0.0000473369
 Iter   2:  RMS(Cart)=    0.0000009052 RMS(Int)=    0.0000007695
 Iter   3:  RMS(Cart)=    0.0000000168 RMS(Int)=    0.0000000151
done
Storing new coordinates                 .... done

                                .--------------------.
          ----------------------|Geometry convergence|-------------------------
          Item                value                   Tolerance       Converged
          ---------------------------------------------------------------------
          Energy change      -0.0004547053            0.0000050000      NO
          RMS gradient        0.0004404777            0.0001000000      NO
          MAX gradient        0.0011282367            0.0003000000      NO
          RMS step            0.0058428048            0.0020000000      NO
          MAX step            0.0196008419            0.0040000000      NO
          ........................................................
          Max(Bonds)      0.0027      Max(Angles)    0.61
          Max(Dihed)        1.12      Max(Improp)    0.00
          ---------------------------------------------------------------------

The optimization has not yet converged - more geometry cycles are needed


    ---------------------------------------------------------------------------
                         Redundant Internal Coordinates
                            (Angstroem and degrees)

        Definition                    Value    dE/dq     Step     New-Value
    ----------------------------------------------------------------------------
     1. B(H   1,C   0)                1.0937  0.000265 -0.0006    1.0931   
     2. B(H   2,C   0)                1.0940  0.000172 -0.0004    1.0936   
     3. B(C   3,C   0)                1.5246 -0.000754  0.0010    1.5256   
     4. B(H   4,C   3)                1.0947  0.000416 -0.0010    1.0937   
     5. B(H   5,C   3)                1.0925  0.000372 -0.0009    1.0916   
     6. B(C   6,C   3)                1.5241 -0.001128  0.0020    1.5261   
     7. B(H   7,C   6)                1.1032 -0.000603  0.0016    1.1048   
     8. B(H   8,C   6)                1.0945  0.000010  0.0001    1.0947   
     9. B(N   9,C   6)                1.4603  0.000949 -0.0027    1.4576   
    10. B(H  10,N   9)                1.0156  0.000137 -0.0001    1.0156   
    11. B(H  11,N   9)                1.0166  0.000286 -0.0003    1.0163   
    12. B(C  12,C   0)                1.5210 -0.000903  0.0010    1.5219   
    13. B(H  13,C  12)                1.0891  0.000265 -0.0009    1.0882   
    14. B(H  14,C  12)                1.0881 -0.000016 -0.0004    1.0877   
    15. B(H  15,C  12)                1.0889  0.000253 -0.0009    1.0880   
    16. A(H   1,C   0,C  12)          109.46 -0.000105   -0.01    109.45   
    17. A(H   2,C   0,C  12)          109.44 -0.000126   -0.01    109.43   
    18. A(H   2,C   0,C   3)          109.39 -0.000072   -0.02    109.37   
    19. A(H   1,C   0,C   3)          109.27 -0.000109   -0.00    109.27   
    20. A(H   1,C   0,H   2)          106.93 -0.000312    0.42    107.34   
    21. A(C   3,C   0,C  12)          112.20  0.000676   -0.33    111.88   
    22. A(C   0,C   3,C   6)          112.56  0.000567   -0.30    112.26   
    23. A(H   4,C   3,H   5)          106.95 -0.000322    0.40    107.34   
    24. A(C   0,C   3,H   5)          109.86 -0.000285    0.04    109.91   
    25. A(H   5,C   3,C   6)          108.80  0.000225   -0.17    108.63   
    26. A(C   0,C   3,H   4)          109.41 -0.000173    0.08    109.49   
    27. A(H   4,C   3,C   6)          109.09 -0.000055   -0.01    109.09   
    28. A(H   8,C   6,N   9)          107.56  0.000330   -0.23    107.34   
    29. A(H   7,C   6,N   9)          112.90 -0.000141   -0.00    112.90   
    30. A(H   7,C   6,H   8)          107.26 -0.000289    0.33    107.59   
    31. A(C   3,C   6,H   8)          109.53 -0.000309    0.09    109.62   
    32. A(C   3,C   6,H   7)          109.19 -0.000079    0.07    109.26   
    33. A(C   3,C   6,N   9)          110.30  0.000460   -0.25    110.06   
    34. A(H  10,N   9,H  11)          106.53 -0.000585    0.61    107.15   
    35. A(C   6,N   9,H  11)          109.41 -0.000289    0.24    109.65   
    36. A(C   6,N   9,H  10)          109.81 -0.000276    0.22    110.02   
    37. A(H  13,C  12,H  15)          107.88 -0.000758    0.25    108.13   
    38. A(C   0,C  12,H  15)          110.85  0.000731   -0.20    110.65   
    39. A(H  13,C  12,H  14)          108.04 -0.000807    0.22    108.26   
    40. A(C   0,C  12,H  14)          111.02  0.001014   -0.31    110.71   
    41. A(H  14,C  12,H  15)          108.04 -0.000880    0.24    108.28   
    42. A(C   0,C  12,H  13)          110.89  0.000579   -0.16    110.73   
    43. D(C   6,C   3,C   0,H   1)     58.54 -0.000145    0.16     58.70   
    44. D(C   6,C   3,C   0,H   2)    -58.21  0.000333   -0.32    -58.53   
    45. D(H   4,C   3,C   0,H   1)   -179.99  0.000042    0.01   -179.99   
    46. D(H   4,C   3,C   0,H   2)     63.26  0.000520   -0.48     62.78   
    47. D(H   4,C   3,C   0,C  12)    -58.40  0.000281   -0.23    -58.62   
    48. D(H   5,C   3,C   0,H   1)    -62.87 -0.000615    0.56    -62.31   
    49. D(H   5,C   3,C   0,H   2)   -179.62 -0.000136    0.07   -179.55   
    50. D(C   6,C   3,C   0,C  12)   -179.86  0.000094   -0.07   -179.93   
    51. D(H   5,C   3,C   0,C  12)     58.73 -0.000376    0.32     59.05   
    52. D(H   8,C   6,C   3,H   4)    178.36  0.000153    0.32    178.68   
    53. D(H   8,C   6,C   3,C   0)    -59.99  0.000271    0.21    -59.78   
    54. D(H   7,C   6,C   3,H   5)    179.20 -0.000129    0.44    179.63   
    55. D(H   8,C   6,C   3,H   5)     62.02  0.000442   -0.06     61.96   
    56. D(H   7,C   6,C   3,H   4)    -64.46 -0.000418    0.81    -63.65   
    57. D(H   7,C   6,C   3,C   0)     57.18 -0.000300    0.70     57.89   
    58. D(N   9,C   6,C   3,H   5)    -56.19 -0.000049    0.32    -55.87   
    59. D(N   9,C   6,C   3,H   4)     60.15 -0.000339    0.69     60.85   
    60. D(N   9,C   6,C   3,C   0)   -178.20 -0.000221    0.59   -177.61   
    61. D(H  11,N   9,C   6,H   8)    176.25 -0.000709    1.12    177.37   
    62. D(H  11,N   9,C   6,H   7)     58.12 -0.000484    0.86     58.97   
    63. D(H  11,N   9,C   6,C   3)    -64.35 -0.000621    0.95    -63.40   
    64. D(H  10,N   9,C   6,H   8)     59.65  0.000324    0.13     59.78   
    65. D(H  10,N   9,C   6,H   7)    -58.47  0.000549   -0.14    -58.61   
    66. D(H  10,N   9,C   6,C   3)    179.06  0.000412   -0.05    179.01   
    67. D(H  14,C  12,C   0,C   3)    179.94  0.000008   -0.01    179.93   
    68. D(H  14,C  12,C   0,H   2)     58.31 -0.000263    0.25     58.56   
    69. D(H  14,C  12,C   0,H   1)    -58.57  0.000246   -0.24    -58.81   
    70. D(H  13,C  12,C   0,C   3)     59.83 -0.000033    0.03     59.86   
    71. D(H  13,C  12,C   0,H   2)    -61.80 -0.000304    0.29    -61.51   
    72. D(H  15,C  12,C   0,H   1)     61.52  0.000296   -0.28     61.24   
    73. D(H  13,C  12,C   0,H   1)   -178.68  0.000205   -0.21   -178.88   
    74. D(H  15,C  12,C   0,C   3)    -59.97  0.000058   -0.05    -60.02   
    75. D(H  15,C  12,C   0,H   2)    178.40 -0.000213    0.21    178.61   
    ----------------------------------------------------------------------------

         *************************************************************
         *                GEOMETRY OPTIMIZATION CYCLE   3            *
         *************************************************************
      -----------------------------------------------------------      
     |                   =====================                   |     
     |                           x T B                           |     
     |                   =====================                   |     
     |                         S. Grimme                         |     
     |          Mulliken Center for Theoretical Chemistry        |     
     |                    University of Bonn                     |     
      -----------------------------------------------------------      

   * xtb version 6.3.0 (49875a8) compiled by 'schneider@apollo14' on 2020-05-23

   xtb is free software: you can redistribute it and/or modify it under
   the terms of the GNU Lesser General Public License as published by
   the Free Software Foundation, either version 3 of the License, or
   (at your option) any later version.
   
   xtb is distributed in the hope that it will be useful,
   but WITHOUT ANY WARRANTY; without even the implied warranty of
   MERCHANTABILITY or FITNESS FOR A PARTICULAR PURPOSE.  See the
   GNU Lesser General Public License for more details.
   
   Cite this work as:
   * S. Grimme, C. Bannwarth, P. Shushkov, J. Chem. Theory Comput., 2017,
     13, 1989-2009. DOI: 10.1021/acs.jctc.7b00118
   * C. Bannwarth, S. Ehlert and S. Grimme., J. Chem. Theory Comput., 2019,
     15, 1652-1671. DOI: 10.1021/acs.jctc.8b01176
   * P. Pracht, E. Caldeweyher, S. Ehlert, S. Grimme, ChemRxiv, 2019, preprint.
     DOI: 10.26434/chemrxiv.8326202.v1
   
   for GFN-FF:
   * S. Spicher and S. Grimme, Angew. Chem. Int. Ed., 2020,
     DOI: 10.1002/anie.202004239
   
   for DFT-D4:
   * E. Caldeweyher, C. Bannwarth and S. Grimme, J. Chem. Phys., 2017,
     147, 034112. DOI: 10.1063/1.4993215
   * E. Caldeweyher, S. Ehlert, A. Hansen, H. Neugebauer, S. Spicher,
     C. Bannwarth and S. Grimme, J. Chem. Phys., 2019, 150, 154122.
     DOI: 10.1063/1.5090222
   
   for sTDA-xTB:
   * S. Grimme and C. Bannwarth, J. Chem. Phys., 2016, 145, 054103.
     DOI: 10.1063/1.4959605
   
   in the mass-spec context:
   * V. Asgeirsson, C. Bauer and S. Grimme, Chem. Sci., 2017, 8, 4879.
     DOI: 10.1039/c7sc00601b
   * J. Koopman and S. Grimme, ACS Omega 2019, 4, 12, 15120-15133.
     DOI: 10.1021/acsomega.9b02011
   
   for metadynamics refer to:
   * S. Grimme, J. Chem. Theory Comput., 2019, 155, 2847-2862
     DOI: 10.1021/acs.jctc.9b00143
   
   with help from (in alphabetical order)
   C. Bannwarth, F. Bohle, G. Brandenburg, E. Caldeweyher, M. Checinski,
   S. Dohm, S. Ehlert, S. Ehrlich, F. März, H. Neugebauer, J. Pisarek,
   P. Pracht, P. Shushkov, and S. Spicher.
   
 * started run on 2020/06/19 at 15:34:54.942     

           -------------------------------------------------
          |                Calculation Setup                |
           -------------------------------------------------

          program call               : /opt/orca/otool_xtb opt+freq_XTB.xyz --grad -c 0 -u 0 -P 12 --namespace opt+freq --gbsa CH2Cl2
          calculation namespace      : opt+freq
          coordinate file            : opt+freq_XTB.xyz
          number of atoms            :                    16
          number of electrons        :                    32
          charge                     :                     0
          spin                       :                   0.0
          first test random number   :      0.99613206724148

   ID    Z sym.   atoms
    1    6 C      1, 4, 7, 13
    2    1 H      2, 3, 5, 6, 8, 9, 11, 12, 14-16
    3    7 N      10
########################################################################
[WARNING] Please study the warnings concerning your input carefully
-1- prog_main_parseArguments: Process number higher than OMP_NUM_THREADS, I hope you know what you are doing.
########################################################################
 Solvent             : CH2Cl2
 Using internal parameter file: .param_gbsa2_CH2Cl2
 Gsolv ref. state (COSMO-RS): gsolv [1 M gas/solution]
 temperature (mdtemp)       :    298.14999999999998     
 dielectric constant        :    8.9299999999999997     
 rho                        :    1.3300000000000003     
 mass                       :    84.930000000000007     
 surface tension            :    15.568945408385856     
 probe radius               :   0.71987590000000001     
 Gshift (Eh)                :    4.4408291734517593E-003
 c1                         :    1.4917377599999999     
 soset                      :    0.0000000000000000     
 HB correction              :  F

           -------------------------------------------------
          |                 G F N 2 - x T B                 |
           -------------------------------------------------

        Reference                      10.1021/acs.jctc.8b01176
      * Hamiltonian:
        H0-scaling (s, p, d)           1.850000    2.230000    2.230000
        zeta-weighting                 0.500000
      * Dispersion:
        s8                             2.700000
        a1                             0.520000
        a2                             5.000000
        s9                             5.000000
      * Repulsion:
        kExp                           1.500000    1.000000
        rExp                           1.000000
      * Coulomb:
        alpha                          2.000000
        third order                    shell-resolved
        anisotropic                    true
        a3                             3.000000
        a5                             4.000000
        cn-shift                       1.200000
        cn-exp                         4.000000
        max-rad                        5.000000


          ...................................................
          :                      SETUP                      :
          :.................................................:
          :  # basis functions                  31          :
          :  # atomic orbitals                  31          :
          :  # shells                           21          :
          :  # electrons                        32          :
          :  max. iterations                   250          :
          :  Hamiltonian                  GFN2-xTB          :
          :  restarted?                      false          :
          :  GBSA solvation                   true          :
          :  PC potential                    false          :
          :  electronic temp.          300.0000000     K    :
          :  accuracy                    1.0000000          :
          :  -> integral cutoff          0.2500000E+02      :
          :  -> integral neglect         0.1000000E-07      :
          :  -> SCF convergence          0.1000000E-05 Eh   :
          :  -> wf. convergence          0.1000000E-03 e    :
          :  Broyden damping             0.4000000          :
          ...................................................

 iter      E             dE          RMSdq      gap      omega  full diag
   1    -17.2873940 -0.172874E+02  0.278E+00   10.96       0.0  T
   2    -17.3186083 -0.312143E-01  0.151E+00   10.98       1.0  T
   3    -17.3195703 -0.961979E-03  0.671E-01   11.08       1.0  T
   4    -17.3196643 -0.939617E-04  0.105E-01   11.06       1.0  T
   5    -17.3196767 -0.123966E-04  0.440E-02   11.05       1.0  T
   6    -17.3196778 -0.111978E-05  0.163E-02   11.05       1.5  T
   7    -17.3196780 -0.187950E-06  0.181E-03   11.05      13.8  T
   8    -17.3196780 -0.443955E-08  0.102E-03   11.05      24.5  T
   9    -17.3196780 -0.775724E-09  0.194E-04   11.05     128.9  T
  10    -17.3196780 -0.314699E-10  0.881E-05   11.05     283.7  T

   *** convergence criteria satisfied after 10 iterations ***

         #    Occupation            Energy/Eh            Energy/eV
      -------------------------------------------------------------
         1        2.0000           -0.6326746             -17.2160
       ...           ...                  ...                  ...
        10        2.0000           -0.4791248             -13.0377
        11        2.0000           -0.4642912             -12.6340
        12        2.0000           -0.4470216             -12.1641
        13        2.0000           -0.4368688             -11.8878
        14        2.0000           -0.4337834             -11.8038
        15        2.0000           -0.4236114             -11.5271
        16        2.0000           -0.3721130             -10.1257 (HOMO)
        17                          0.0338466               0.9210 (LUMO)
        18                          0.0925882               2.5195
        19                          0.1110885               3.0229
        20                          0.1285459               3.4979
        21                          0.1352454               3.6802
       ...                                ...                  ...
        31                          0.3067222               8.3463
      -------------------------------------------------------------
                  HL-Gap            0.4059596 Eh           11.0467 eV
             Fermi-level           -0.1691332 Eh           -4.6023 eV

 SCC (total)                   0 d,  0 h,  0 min,  0.025 sec
 SCC setup                      ...        0 min,  0.000 sec (  1.873%)
 Dispersion                     ...        0 min,  0.000 sec (  0.419%)
 classical contributions        ...        0 min,  0.000 sec (  0.145%)
 integral evaluation            ...        0 min,  0.003 sec ( 10.681%)
 iterations                     ...        0 min,  0.016 sec ( 64.721%)
 molecular gradient             ...        0 min,  0.005 sec ( 21.496%)
 printout                       ...        0 min,  0.000 sec (  0.603%)

         :::::::::::::::::::::::::::::::::::::::::::::::::::::
         ::                     SUMMARY                     ::
         :::::::::::::::::::::::::::::::::::::::::::::::::::::
         :: total energy             -17.089767026698 Eh    ::
         :: total w/o Gsasa/hb       -17.082575493871 Eh    ::
         :: gradient norm              0.003407820875 Eh/a0 ::
         :: HOMO-LUMO gap             11.046722786857 eV    ::
         ::.................................................::
         :: SCC energy               -17.326869512493 Eh    ::
         :: -> isotropic ES            0.014203662976 Eh    ::
         :: -> anisotropic ES          0.005918014380 Eh    ::
         :: -> anisotropic XC          0.013424292956 Eh    ::
         :: -> dispersion             -0.007646061059 Eh    ::
         :: -> Gsolv                  -0.008277694032 Eh    ::
         ::    -> Gborn               -0.001086161206 Eh    ::
         ::    -> Gsasa               -0.011632362000 Eh    ::
         ::    -> Ghb                  0.000000000000 Eh    ::
         ::    -> Gshift               0.004440829173 Eh    ::
         :: repulsion energy           0.237101650397 Eh    ::
         :: add. restraining           0.000000000000 Eh    ::
         :::::::::::::::::::::::::::::::::::::::::::::::::::::

           -------------------------------------------------
          |                Property Printout                |
           -------------------------------------------------

    * Orbital Energies and Occupations

         #    Occupation            Energy/Eh            Energy/eV
      -------------------------------------------------------------
         1        2.0000           -0.6326746             -17.2160
       ...           ...                  ...                  ...
         4        2.0000           -0.5675279             -15.4432
         5        2.0000           -0.5593140             -15.2197
         6        2.0000           -0.5283651             -14.3775
         7        2.0000           -0.5194644             -14.1353
         8        2.0000           -0.5062881             -13.7768
         9        2.0000           -0.4908128             -13.3557
        10        2.0000           -0.4791248             -13.0377
        11        2.0000           -0.4642912             -12.6340
        12        2.0000           -0.4470216             -12.1641
        13        2.0000           -0.4368688             -11.8878
        14        2.0000           -0.4337834             -11.8038
        15        2.0000           -0.4236114             -11.5271
        16        2.0000           -0.3721130             -10.1257 (HOMO)
        17                          0.0338466               0.9210 (LUMO)
        18                          0.0925882               2.5195
        19                          0.1110885               3.0229
        20                          0.1285459               3.4979
[...]
     27      -0.001037  -0.002047  -0.001881  -0.001890   0.000288  -0.000151
     28       0.000659  -0.005801  -0.000005  -0.001752   0.000179  -0.000293
     29       0.000877  -0.011919  -0.000133  -0.003728   0.000390  -0.000444
     30      -0.000851   0.004300  -0.000835   0.000508   0.000078   0.000154
     31      -0.004444   0.047401  -0.002361   0.011327  -0.000562   0.000891
     32      -0.006739   0.020101  -0.009042   0.001124   0.000463  -0.000637
     33      -0.000336   0.045391   0.002467   0.014006  -0.001147   0.001118
     34       0.000722   0.006078   0.000724   0.001885  -0.000053  -0.000010
     35       0.000615   0.019900  -0.002342   0.003259  -0.000460  -0.001358
     36       0.138209   0.002433   0.006729  -0.008519  -0.005637  -0.001424
     37      -0.008601  -0.002540  -0.009944  -0.004208  -0.052107   0.033998
     38       0.014263  -0.003646  -0.012718   0.008347   0.034179   0.050341
     39      -0.536039  -0.029420  -0.083969   0.020161  -0.281093   0.203634
     40      -0.158830  -0.005076  -0.016037  -0.002469  -0.104662   0.032108
     41      -0.057095   0.053186   0.181179  -0.118296  -0.377942  -0.584979
     42      -0.512719   0.016559   0.084540   0.012336   0.068012  -0.300258
     43       0.163764  -0.005399  -0.016679   0.084680   0.612794   0.081105
     44       0.159566  -0.003921  -0.028789  -0.057282  -0.381515   0.104233
     45      -0.504807  -0.022846  -0.051924   0.091074   0.290164   0.114951
     46       0.111401   0.054556   0.189590  -0.041634   0.230207  -0.584390
     47      -0.226937   0.014815   0.063393   0.029322   0.280759  -0.219559
                 36         37         38         39         40         41    
      0       0.002291  -0.000756   0.004031  -0.009908  -0.015745  -0.028486
      1      -0.001065  -0.000398   0.008043  -0.053997  -0.032928   0.048745
      2       0.000281   0.001152  -0.009987   0.039336   0.039116   0.025066
      3      -0.005579   0.000961   0.014678  -0.122031  -0.047133   0.184699
      4      -0.002604  -0.003489  -0.055525   0.463382   0.149550  -0.823551
      5      -0.006781  -0.000309  -0.004830  -0.001020   0.010361   0.053282
      6      -0.002225   0.007862  -0.064455   0.245635   0.247079   0.175088
      7      -0.001383   0.006450  -0.059750   0.221532   0.239278   0.215077
      8      -0.001842  -0.009609   0.129965  -0.493776  -0.502285  -0.376430
      9      -0.004424   0.001078   0.003098  -0.003230   0.010407   0.001565
     10       0.000240  -0.000566  -0.034154   0.039847  -0.057758   0.016598
     11       0.001058   0.000017   0.008640  -0.012301   0.008353  -0.008927
     12       0.018106  -0.005802  -0.102582   0.109938  -0.168174   0.033527
     13       0.008708   0.014384   0.418062  -0.451295   0.706025  -0.127942
     14       0.015028   0.000888  -0.011955   0.011985  -0.027824   0.003676
     15      -0.005999   0.015319   0.050295  -0.076203   0.033997  -0.059964
     16       0.004348   0.008746   0.029389  -0.054265   0.001983  -0.054840
     17       0.001911  -0.025550  -0.097272   0.154234  -0.056103   0.125685
     18       0.013324   0.029647  -0.018432  -0.008372   0.005170  -0.002409
     19       0.010588   0.040894   0.059899   0.029266  -0.019703   0.008081
     20      -0.019575  -0.057358   0.001461  -0.000401   0.000986  -0.000191
     21      -0.039672  -0.403551   0.025341   0.010629   0.002187   0.005520
     22       0.017033  -0.407331   0.074267   0.029204  -0.010724   0.010799
     23      -0.034751   0.809081  -0.077580  -0.028080   0.004439  -0.011243
     24      -0.002682   0.046053   0.203553   0.089235  -0.056220   0.027023
     25       0.011929  -0.077399  -0.844357  -0.383231   0.240186  -0.109642
     26       0.095682  -0.033382   0.038189   0.018221  -0.011297   0.006832
     27       0.043956  -0.000861   0.000231   0.000325  -0.000408   0.000130
     28       0.046816  -0.000883   0.001306   0.000321   0.000077  -0.000029
     29       0.041411  -0.005854   0.001540   0.000660  -0.000410   0.000178
     30      -0.053390   0.000343   0.001188  -0.001182   0.002711  -0.000466
     31      -0.662686  -0.005284  -0.000391  -0.000115  -0.000130  -0.000004
     32      -0.190359   0.003974   0.001652   0.000262   0.000565   0.000081
     33      -0.651115  -0.004871   0.001019  -0.001292   0.002263  -0.000972
     34      -0.143371   0.000327   0.013934   0.007512  -0.005584   0.002666
     35      -0.239877   0.004997   0.002189   0.000238   0.000348  -0.000200
     36      -0.000318  -0.000030  -0.000169   0.000433  -0.000257  -0.001020
     37      -0.000047   0.000024   0.000183   0.002722   0.004427  -0.006174
     38       0.000055   0.000175   0.000766  -0.003005  -0.002716  -0.003711
     39      -0.000417  -0.000193  -0.000474   0.013185   0.012586  -0.020071
     40       0.000079   0.000539  -0.001591  -0.038104  -0.049923   0.068693
     41       0.001752  -0.000206   0.000613  -0.000238  -0.000606  -0.005862
     42       0.002632  -0.000408  -0.001420   0.003467   0.003015   0.021132
     43      -0.000326  -0.000600  -0.001906   0.006923   0.007769   0.026027
     44      -0.000804  -0.000973  -0.002424   0.004714   0.005772   0.049994
     45      -0.000029  -0.000507   0.006351  -0.024745  -0.021581  -0.005688
     46       0.001958  -0.000147   0.004924  -0.018552  -0.016897  -0.008211
     47       0.001234  -0.000105  -0.010427   0.042732   0.037318   0.005903
                 42         43         44         45         46         47    
      0      -0.006124   0.000949  -0.003355  -0.001911   0.000026   0.000097
      1      -0.001558  -0.010789  -0.000275  -0.000948  -0.000008  -0.000064
      2       0.011122   0.002554   0.007559   0.000866  -0.000032  -0.000040
      3       0.008276  -0.020211   0.004950  -0.002713  -0.000234   0.000134
      4      -0.046846   0.097408  -0.026930   0.004691  -0.000420   0.000932
      5       0.008044  -0.004654   0.003409   0.000387  -0.000169   0.000193
      6       0.061243   0.011992   0.031108   0.003316   0.000031  -0.000068
      7       0.065566   0.010086   0.035442   0.005742   0.000100  -0.000152
      8      -0.124985  -0.025517  -0.069019  -0.010359  -0.000280   0.000394
      9      -0.032194   0.000404  -0.001829  -0.000976  -0.000160   0.000048
     10      -0.013846  -0.002222  -0.000344   0.000245   0.000028   0.000096
     11       0.060236   0.000140   0.003407   0.001770   0.000043   0.000150
     12       0.034770  -0.005728   0.003192   0.002166   0.000540  -0.003000
     13      -0.222653   0.030881  -0.022955  -0.013280   0.000204   0.005127
     14       0.038510  -0.000498   0.002893   0.001600   0.000280  -0.001239
     15       0.369319   0.000077   0.021047   0.009575  -0.001039  -0.002003
     16       0.390991  -0.002045   0.024385   0.011213  -0.000132  -0.002288
     17      -0.787498   0.000120  -0.049796  -0.022269   0.001047   0.002954
     18      -0.002143   0.000085  -0.000235   0.000126   0.001085   0.001713
     19      -0.001073  -0.000449   0.000132  -0.000156   0.002541  -0.001701
     20       0.003040   0.000036   0.000317  -0.000028  -0.000914  -0.000467
     21       0.008343   0.000283   0.001872  -0.000083  -0.002715  -0.001223
     22       0.012224  -0.000224   0.001961  -0.000097  -0.003753  -0.000203
     23      -0.020258  -0.000072  -0.002697   0.000530  -0.002422   0.000770
     24      -0.000219  -0.001745   0.000780  -0.000314   0.003023  -0.002922
     25      -0.001963   0.005197  -0.003164   0.001786  -0.010011   0.006835
     26       0.000878  -0.000626   0.000489   0.000103   0.003341  -0.003167
     27       0.000538  -0.000075   0.000145  -0.000001   0.025231   0.064939
     28      -0.000192   0.000083  -0.000069   0.000014   0.047486  -0.046077
     29      -0.000084  -0.000014  -0.000014  -0.000028   0.005613   0.003784
     30      -0.004462   0.000535  -0.000895  -0.000274  -0.574605  -0.805532
     31       0.000445  -0.000142   0.000154  -0.000054   0.103258   0.081249
     32      -0.001102   0.000126  -0.000063  -0.000033  -0.049411  -0.055262
     33      -0.001507   0.000387  -0.000474  -0.000041   0.213137  -0.109810
     34       0.001496  -0.000506   0.000564  -0.000109  -0.779631   0.568224
     35       0.000516   0.000057   0.000023   0.000195  -0.019789   0.006386
     36       0.001476  -0.001470  -0.002891  -0.043448   0.000010  -0.000002
     37      -0.001113  -0.086276   0.009951  -0.010091   0.000006  -0.000014
     38      -0.006651   0.009877   0.087218  -0.000578   0.000016  -0.000001
     39      -0.005414  -0.223778   0.013407   0.087909  -0.000039  -0.000277
     40       0.023701   0.861510  -0.055164  -0.429888  -0.000000   0.000501
     41      -0.003721  -0.039407   0.048171   0.021090   0.000001  -0.000120
     42       0.014368   0.088798  -0.263868   0.200639  -0.000048   0.000418
     43       0.018014   0.079276  -0.355067   0.292623  -0.000041   0.000299
     44       0.028486   0.220397  -0.578438   0.516329  -0.000118   0.000570
     45      -0.027659   0.150813   0.285903   0.250451  -0.000105  -0.000214
     46      -0.028708   0.105840   0.288955   0.257644  -0.000028  -0.000197
     47       0.055059  -0.299950  -0.528484  -0.531372   0.000101   0.000197


-----------
IR SPECTRUM  
-----------

 Mode    freq (cm**-1)   T**2         TX         TY         TZ
-------------------------------------------------------------------
   6:        97.00    0.000000  (  0.000000   0.000000   0.000000)
   7:       103.05    0.000000  (  0.000000   0.000000   0.000000)
   8:       185.20    0.000000  (  0.000000   0.000000   0.000000)
   9:       228.74    0.000000  (  0.000000   0.000000   0.000000)
  10:       271.55    0.000000  (  0.000000   0.000000   0.000000)
  11:       396.15    0.000000  (  0.000000   0.000000   0.000000)
  12:       415.99    0.000000  (  0.000000   0.000000   0.000000)
  13:       780.37    0.000000  (  0.000000   0.000000   0.000000)
  14:       830.67    0.000000  (  0.000000   0.000000   0.000000)
  15:       912.96    0.000000  (  0.000000   0.000000   0.000000)
  16:       931.33    0.000000  (  0.000000   0.000000   0.000000)
  17:       969.38    0.000000  (  0.000000   0.000000   0.000000)
  18:      1006.21    0.000000  (  0.000000   0.000000   0.000000)
  19:      1071.68    0.000000  (  0.000000   0.000000   0.000000)
  20:      1108.51    0.000000  (  0.000000   0.000000   0.000000)
  21:      1122.49    0.000000  (  0.000000   0.000000   0.000000)
  22:      1147.33    0.000000  (  0.000000   0.000000   0.000000)
  23:      1203.76    0.000000  (  0.000000   0.000000   0.000000)
  24:      1235.87    0.000000  (  0.000000   0.000000   0.000000)
  25:      1273.35    0.000000  (  0.000000   0.000000   0.000000)
  26:      1281.69    0.000000  (  0.000000   0.000000   0.000000)
  27:      1291.85    0.000000  (  0.000000   0.000000   0.000000)
  28:      1353.03    0.000000  (  0.000000   0.000000   0.000000)
  29:      1377.46    0.000000  (  0.000000   0.000000   0.000000)
  30:      1413.30    0.000000  (  0.000000   0.000000   0.000000)
  31:      1489.07    0.000000  (  0.000000   0.000000   0.000000)
  32:      1493.53    0.000000  (  0.000000   0.000000   0.000000)
  33:      1498.30    0.000000  (  0.000000   0.000000   0.000000)
  34:      1499.81    0.000000  (  0.000000   0.000000   0.000000)
  35:      1502.83    0.000000  (  0.000000   0.000000   0.000000)
  36:      1560.73    0.000000  (  0.000000   0.000000   0.000000)
  37:      2808.46    0.000000  (  0.000000   0.000000   0.000000)
  38:      2950.33    0.000000  (  0.000000   0.000000   0.000000)
  39:      2957.13    0.000000  (  0.000000   0.000000   0.000000)
  40:      2964.52    0.000000  (  0.000000   0.000000   0.000000)
  41:      2977.12    0.000000  (  0.000000   0.000000   0.000000)
  42:      2989.80    0.000000  (  0.000000   0.000000   0.000000)
  43:      3025.10    0.000000  (  0.000000   0.000000   0.000000)
  44:      3028.12    0.000000  (  0.000000   0.000000   0.000000)
  45:      3033.93    0.000000  (  0.000000   0.000000   0.000000)
  46:      3380.37    0.000000  (  0.000000   0.000000   0.000000)
  47:      3412.32    0.000000  (  0.000000   0.000000   0.000000)

The first frequency considered to be a vibration is 6
The total number of vibrations considered is 42


--------------------------
THERMOCHEMISTRY AT 298.15K
--------------------------

Temperature         ... 298.15 K
Pressure            ... 1.00 atm
Total Mass          ... 73.14 AMU

Throughout the following assumptions are being made:
  (1) The electronic state is orbitally nondegenerate
  (2) There are no thermally accessible electronically excited states
  (3) Hindered rotations indicated by low frequency modes are not
      treated as such but are treated as vibrations and this may
      cause some error
  (4) All equations used are the standard statistical mechanics
      equations for an ideal gas
  (5) All vibrations are strictly harmonic

freq.      97.00  E(vib)   ...       0.46 
freq.     103.05  E(vib)   ...       0.46 
freq.     185.20  E(vib)   ...       0.37 
freq.     228.74  E(vib)   ...       0.32 
freq.     271.55  E(vib)   ...       0.29 
freq.     396.15  E(vib)   ...       0.20 
freq.     415.99  E(vib)   ...       0.18 
freq.     780.37  E(vib)   ...       0.05 
freq.     830.67  E(vib)   ...       0.04 
freq.     912.96  E(vib)   ...       0.03 
freq.     931.33  E(vib)   ...       0.03 
freq.     969.38  E(vib)   ...       0.03 
freq.    1006.21  E(vib)   ...       0.02 
freq.    1071.68  E(vib)   ...       0.02 
freq.    1108.51  E(vib)   ...       0.02 
freq.    1122.49  E(vib)   ...       0.01 
freq.    1147.33  E(vib)   ...       0.01 
freq.    1203.76  E(vib)   ...       0.01 
freq.    1235.87  E(vib)   ...       0.01 
freq.    1273.35  E(vib)   ...       0.01 
freq.    1281.69  E(vib)   ...       0.01 
freq.    1291.85  E(vib)   ...       0.01 
freq.    1353.03  E(vib)   ...       0.01 
freq.    1377.46  E(vib)   ...       0.01 
freq.    1413.30  E(vib)   ...       0.00 
freq.    1489.07  E(vib)   ...       0.00 
freq.    1493.53  E(vib)   ...       0.00 
freq.    1498.30  E(vib)   ...       0.00 
freq.    1499.81  E(vib)   ...       0.00 
freq.    1502.83  E(vib)   ...       0.00 
freq.    1560.73  E(vib)   ...       0.00 
freq.    2808.46  E(vib)   ...       0.00 
freq.    2950.33  E(vib)   ...       0.00 
freq.    2957.13  E(vib)   ...       0.00 
freq.    2964.52  E(vib)   ...       0.00 
freq.    2977.12  E(vib)   ...       0.00 
freq.    2989.80  E(vib)   ...       0.00 
freq.    3025.10  E(vib)   ...       0.00 
freq.    3028.12  E(vib)   ...       0.00 
freq.    3033.93  E(vib)   ...       0.00 
freq.    3380.37  E(vib)   ...       0.00 
freq.    3412.32  E(vib)   ...       0.00 

------------
INNER ENERGY
------------

The inner energy is: U= E(el) + E(ZPE) + E(vib) + E(rot) + E(trans)
    E(el)   - is the total energy from the electronic structure calculation
              = E(kin-el) + E(nuc-el) + E(el-el) + E(nuc-nuc)
    E(ZPE)  - the the zero temperature vibrational energy from the frequency calculation
    E(vib)  - the the finite temperature correction to E(ZPE) due to population
              of excited vibrational states
    E(rot)  - is the rotational thermal energy
    E(trans)- is the translational thermal energy

Summary of contributions to the inner energy U:
Electronic energy                ...    -17.08979460 Eh
Zero point energy                ...      0.14712491 Eh      92.32 kcal/mol
Thermal vibrational correction   ...      0.00418155 Eh       2.62 kcal/mol
Thermal rotational correction    ...      0.00141627 Eh       0.89 kcal/mol
Thermal translational correction ...      0.00141627 Eh       0.89 kcal/mol
-----------------------------------------------------------------------
Total thermal energy                    -16.93565560 Eh


Summary of corrections to the electronic energy:
(perhaps to be used in another calculation)
Total thermal correction                  0.00701409 Eh       4.40 kcal/mol
Non-thermal (ZPE) correction              0.14712491 Eh      92.32 kcal/mol
-----------------------------------------------------------------------
Total correction                          0.15413900 Eh      96.72 kcal/mol


--------
ENTHALPY
--------

The enthalpy is H = U + kB*T
                kB is Boltzmann's constant
Total free energy                 ...    -16.93565560 Eh 
Thermal Enthalpy correction       ...      0.00094421 Eh       0.59 kcal/mol
-----------------------------------------------------------------------
Total Enthalpy                    ...    -16.93471139 Eh


Note: Only C1 symmetry has been detected, increase convergence thresholds 
      if your molecule has a higher symmetry. Symmetry factor of 1.0 is   
      used for the rotational entropy correction. 
 

Note: Rotational entropy computed according to Herzberg 
Infrared and Raman Spectra, Chapter V,1, Van Nostrand Reinhold, 1945 
Point Group:  C1, Symmetry Number:   1  
Rotational constants in cm-1:     0.600966     0.066215     0.062713 

Vibrational entropy computed according to the QRRHO of S. Grimme
Chem.Eur.J. 2012 18 9955


-------
ENTROPY
-------

The entropy contributions are T*S = T*(S(el)+S(vib)+S(rot)+S(trans))
     S(el)   - electronic entropy
     S(vib)  - vibrational entropy
     S(rot)  - rotational entropy
     S(trans)- translational entropy
The entropies will be listed as mutliplied by the temperature to get
units of energy

Electronic entropy                ...      0.00000000 Eh      0.00 kcal/mol
Vibrational entropy               ...      0.00729076 Eh      4.58 kcal/mol
Rotational entropy                ...      0.01234017 Eh      7.74 kcal/mol
Translational entropy             ...      0.01842822 Eh     11.56 kcal/mol
-----------------------------------------------------------------------
Final entropy term                ...      0.03805915 Eh     23.88 kcal/mol

In case the symmetry of your molecule has not been determined correctly
or in case you have a reason to use a different symmetry number we print 
out the resulting rotational entropy values for sn=1,12 :
 --------------------------------------------------------
|  sn= 1 | S(rot)=       0.01234017 Eh      7.74 kcal/mol|
|  sn= 2 | S(rot)=       0.01168572 Eh      7.33 kcal/mol|
|  sn= 3 | S(rot)=       0.01130288 Eh      7.09 kcal/mol|
|  sn= 4 | S(rot)=       0.01103126 Eh      6.92 kcal/mol|
|  sn= 5 | S(rot)=       0.01082057 Eh      6.79 kcal/mol|
|  sn= 6 | S(rot)=       0.01064843 Eh      6.68 kcal/mol|
|  sn= 7 | S(rot)=       0.01050288 Eh      6.59 kcal/mol|
|  sn= 8 | S(rot)=       0.01037680 Eh      6.51 kcal/mol|
|  sn= 9 | S(rot)=       0.01026559 Eh      6.44 kcal/mol|
|  sn=10 | S(rot)=       0.01016612 Eh      6.38 kcal/mol|
|  sn=11 | S(rot)=       0.01007613 Eh      6.32 kcal/mol|
|  sn=12 | S(rot)=       0.00999397 Eh      6.27 kcal/mol|
 --------------------------------------------------------


-------------------
GIBBS FREE ENERGY
-------------------

The Gibbs free energy is G = H - T*S

Total enthalpy                    ...    -16.93471139 Eh 
Total entropy correction          ...     -0.03805915 Eh    -23.88 kcal/mol
-----------------------------------------------------------------------
Final Gibbs free energy         ...    -16.97277054 Eh

For completeness - the Gibbs free energy minus the electronic energy
G-E(el)                           ...      0.11702406 Eh     73.43 kcal/mol


Total Time for Numerical Frequencies  :        25.703 sec

Timings for individual modules:

Sum of individual times         ...        0.652 sec (=   0.011 min)
Geometry relaxation             ...        0.303 sec (=   0.005 min)  46.5 %
XTB module                      ...        0.349 sec (=   0.006 min)  53.5 %
                             ****ORCA TERMINATED NORMALLY****
TOTAL RUN TIME: 0 days 0 hours 0 minutes 27 seconds 266 msec
