
                                 *****************
                                 * O   R   C   A *
                                 *****************

           --- An Ab Initio, DFT and Semiempirical electronic structure package ---

                  #######################################################
                  #                        -***-                        #
                  #          Department of theory and spectroscopy      #
                  #               Directorship: Frank Neese             #
                  #        Max Planck Institute fuer Kohlenforschung    #
                  #                Kaiser Wilhelm Platz 1               #
                  #                 D-45470 Muelheim/Ruhr               #
                  #                      Germany                        #
                  #                                                     #
                  #                  All rights reserved                #
                  #                        -***-                        #
                  #######################################################


                         Program Version 4.2.1 -  RELEASE  -


 With contributions from (in alphabetic order):
   Daniel Aravena         : Magnetic Suceptibility
   Michael Atanasov       : Ab Initio Ligand Field Theory (pilot matlab implementation)
   Alexander A. Auer      : GIAO ZORA, VPT2
   Ute Becker             : Parallelization
   Giovanni Bistoni       : ED, misc. LED, open-shell LED, HFLD
   Martin Brehm           : Molecular dynamics
   Dmytro Bykov           : SCF Hessian
   Vijay G. Chilkuri      : MRCI spin determinant printing, contributions to CSF-ICE
   Dipayan Datta          : RHF DLPNO-CCSD density
   Achintya Kumar Dutta   : EOM-CC, STEOM-CC
   Dmitry Ganyushin       : Spin-Orbit,Spin-Spin,Magnetic field MRCI
   Miquel Garcia          : C-PCM Hessian, Gaussian charge scheme
   Yang Guo               : DLPNO-NEVPT2, CIM, IAO-localization
   Andreas Hansen         : Spin unrestricted coupled pair/coupled cluster methods
   Benjamin Helmich-Paris : CASSCF linear response (MC-RPA)
   Lee Huntington         : MR-EOM, pCC
   Robert Izsak           : Overlap fitted RIJCOSX, COSX-SCS-MP3, EOM
   Christian Kollmar      : KDIIS, OOCD, Brueckner-CCSD(T), CCSD density
   Simone Kossmann        : Meta GGA functionals, TD-DFT gradient, OOMP2, MP2 Hessian
   Martin Krupicka        : AUTO-CI
   Lucas Lang             : DCDCAS
   Dagmar Lenk            : GEPOL surface, SMD
   Dimitrios Liakos       : Extrapolation schemes; Compound Job, initial MDCI parallelization
   Dimitrios Manganas     : Further ROCIS development; embedding schemes
   Dimitrios Pantazis     : SARC Basis sets
   Taras Petrenko         : DFT Hessian,TD-DFT gradient, ASA, ECA, R-Raman, ABS, FL, XAS/XES, NRVS
   Peter Pinski           : DLPNO-MP2, DLPNO-MP2 Gradient
   Christoph Reimann      : Effective Core Potentials
   Marius Retegan         : Local ZFS, SOC
   Christoph Riplinger    : Optimizer, TS searches, QM/MM, DLPNO-CCSD(T), (RO)-DLPNO pert. Triples
   Tobias Risthaus        : Range-separated hybrids, TD-DFT gradient, RPA, STAB
   Michael Roemelt        : Original ROCIS implementation
   Masaaki Saitow         : Open-shell DLPNO-CCSD energy and density
   Barbara Sandhoefer     : DKH picture change effects
   Avijit Sen             : IP-ROCIS
   Kantharuban Sivalingam : CASSCF convergence, NEVPT2, FIC-MRCI
   Bernardo de Souza      : ESD, SOC TD-DFT
   Georgi Stoychev        : AutoAux, RI-MP2 NMR
   Willem Van den Heuvel  : Paramagnetic NMR
   Boris Wezisla          : Elementary symmetry handling
   Frank Wennmohs         : Technical directorship


 We gratefully acknowledge several colleagues who have allowed us to
 interface, adapt or use parts of their codes:
   Stefan Grimme, W. Hujo, H. Kruse,             : VdW corrections, initial TS optimization,
                  C. Bannwarth                     DFT functionals, gCP, sTDA/sTD-DF
   Ed Valeev, F. Pavosevic, A. Kumar             : LibInt (2-el integral package), F12 methods
   Garnet Chan, S. Sharma, J. Yang, R. Olivares  : DMRG
   Ulf Ekstrom                                   : XCFun DFT Library
   Mihaly Kallay                                 : mrcc  (arbitrary order and MRCC methods)
   Andreas Klamt, Michael Diedenhofen            : otool_cosmo (COSMO solvation model)
   Jiri Pittner, Ondrej Demel                    : Mk-CCSD
   Frank Weinhold                                : gennbo (NPA and NBO analysis)
   Christopher J. Cramer and Donald G. Truhlar   : smd solvation model
   Lars Goerigk                                  : TD-DFT with DH, B97 family of functionals
   V. Asgeirsson, H. Jonsson                     : NEB implementation
   FAccTs GmbH                                   : IRC, NEB, NEB-TS, Multilevel, MM, QM/MM, CI optimization
   S Lehtola, MJT Oliveira, MAL Marques          : LibXC Library


 Your calculation uses the libint2 library for the computation of 2-el integrals
 For citations please refer to: http://libint.valeyev.net

 Your ORCA version has been built with support for libXC version: 4.2.3
 For citations please refer to: https://tddft.org/programs/libxc/

 This ORCA versions uses:
   CBLAS   interface :  Fast vector & matrix operations
   LAPACKE interface :  Fast linear algebra routines
   SCALAPACK package :  Parallel linear algebra routines




***************************************
The coordinates will be read from file: init.xyz
***************************************


Your calculation utilizes the SMD solvation module
Please cite in your paper:
A.V. Marenich, C.J. Cramer, D.G. Truhlar J. Phys. Chem. B, 113, (2009), 6378 

Your calculation utilizes the semiempirical GFN2-xTB method
Please cite in your paper:
C. Bannwarth, Ehlert S., S. Grimme,  J. Chem. Theory Comput., 15, (2019), 1652.
   

----- Orbital basis set information -----
Your calculation utilizes the basis: def2-SVP
   F. Weigend and R. Ahlrichs, Phys. Chem. Chem. Phys. 7, 3297 (2005).

================================================================================
                                        WARNINGS
                       Please study these warnings very carefully!
================================================================================


WARNING: The environment variable RSH_COMMAND is not set!
  ===> : All Displacements for the Numerical Hessian calculation
         will be started on localhost

WARNING: Geometry Optimization
  ===> : Switching off AutoStart
         For restart on a previous wavefunction, please use MOREAD

WARNING: Found dipole moment calculation with XTB calculation
  ===> : Switching off dipole moment calculation


INFO   : the flag for use of LIBINT has been found!

================================================================================
                                       INPUT FILE
================================================================================
NAME = optts+freq.inp
|  1> ! XTB2 OptTS NumFreq IRC
|  2> 
|  3> %geom
|  4>  ts_mode
|  5>   {B 11 13}
|  6>  end
|  7>  ts_active_atoms
|  8>   {0 9 11 12 13}
|  9>  end
| 10>  calc_hess true
| 11>  numhess true
| 12> end
| 13> 
| 14> %irc
| 15>  maxiter 1000
| 16>  de_init_displ 0.25
| 17>  TolMAXG 1e-3
| 18>  TolRMSG 2e-4
| 19> end
| 20> 
| 21> %cpcm
| 22>  smd true
| 23>  smdsolvent "ch2cl2"
| 24> end
| 25> 
| 26> %pal
| 27>  nprocs 12
| 28> end
| 29> 
| 30> *xyzfile 0 1 init.xyz
| 31> 
| 32>                          ****END OF INPUT****
================================================================================

                       *****************************
                       * Geometry Optimization Run *
                       *****************************

Geometry optimization settings:
Update method            Update   .... Bofill
Choice of coordinates    CoordSys .... Z-matrix Internals
Initial Hessian          InHess   .... Almoef's Model

Convergence Tolerances:
Energy Change            TolE     ....  5.0000e-06 Eh
Max. Gradient            TolMAXG  ....  3.0000e-04 Eh/bohr
RMS Gradient             TolRMSG  ....  1.0000e-04 Eh/bohr
Max. Displacement        TolMAXD  ....  4.0000e-03 bohr
RMS Displacement         TolRMSD  ....  2.0000e-03 bohr
Strict Convergence                ....  False
------------------------------------------------------------------------------
                        ORCA OPTIMIZATION COORDINATE SETUP
------------------------------------------------------------------------------

The optimization will be done in new redundant internal coordinates
Making redundant internal coordinates   ...  (new redundants) done
Following TS mode number                ...    internal coordinate number: 24
TS-active-atoms for coordinate setup... 0 9 11 12 13 
Evaluating the initial hessian          ...  (Is done on the fly) done
Evaluating the coordinates              ...  done
Calculating the B-matrix                .... done
Calculating the G-matrix                .... done
Diagonalizing the G-matrix              .... done
Small eigenvalue found = 5.503e-03
Small eigenvalue found = 2.651e-02
The first mode is                       ....   97
The number of degrees of freedom        ....   84

    -----------------------------------------------------------------
                    Redundant Internal Coordinates


    -----------------------------------------------------------------
         Definition                    Initial Value    d2E/dq (diagonal element)
    -----------------------------------------------------------------
      1. B(C   1,C   0)                  1.3945         0.000000   
      2. B(C   2,C   1)                  1.3935         0.000000   
      3. B(C   2,C   0)                  2.4041         0.000000   
      4. B(C   3,C   0)                  2.7773         0.000000   
      5. B(C   3,C   2)                  1.3906         0.000000   
      6. B(C   4,C   3)                  1.3923         0.000000   
      7. B(C   4,C   0)                  2.4101         0.000000   
      8. B(C   5,C   4)                  1.3921         0.000000   
      9. B(C   5,C   0)                  1.3908         0.000000   
     10. B(H   6,C   0)                  1.0831         0.000000   
     11. B(H   7,C   2)                  1.0815         0.000000   
     12. B(H   8,C   4)                  1.0822         0.000000   
     13. B(C   9,C   1)                  1.5165         0.000000   
     14. B(C   9,C   0)                  2.5322         0.000000   
     15. B(C   9,C   2)                  2.5211         0.000000   
     16. B(H  10,C   9)                  1.1003         0.000000   
     17. B(O  11,C   9)                  1.3725         0.000000   
     18. B(O  11,C   2)                  2.8751         0.000000   
     19. B(O  11,C   1)                  2.4614         0.000000   
     20. B(N  12,C   9)                  1.5493         0.000000   
     21. B(N  12,O  11)                  2.1746         0.000000   
     22. B(N  12,C   1)                  2.5402         0.000000   
     23. B(H  13,N  12)                  1.2327         0.000000   
     24. B(H  13,O  11)                  1.3375         0.000000   
     25. B(H  13,C   9)                  1.6664         0.000000   
     26. B(C  14,N  12)                  2.5037         0.000000   
     27. B(C  15,C   9)                  2.6065         0.000000   
     28. B(C  15,C  14)                  1.5237         0.000000   
     29. B(C  15,N  12)                  1.4731         0.000000   
     30. B(H  16,C  15)                  1.0913         0.000000   
     31. B(H  17,C  15)                  1.0913         0.000000   
     32. B(H  18,C  14)                  1.0946         0.000000   
     33. B(H  19,C  14)                  1.0923         0.000000   
     34. B(H  20,N  12)                  1.0173         0.000000   
     35. B(C  21,C  14)                  1.5280         0.000000   
     36. B(H  22,C  21)                  1.0940         0.000000   
     37. B(H  23,C  21)                  1.0941         0.000000   
     38. B(H  24,C   5)                  1.0824         0.000000   
     39. B(H  25,C   3)                  1.0826         0.000000   
     40. B(C  26,C  21)                  1.5270         0.000000   
     41. B(H  27,C  26)                  1.0915         0.000000   
     42. B(H  28,C  26)                  1.0926         0.000000   
     43. B(H  29,C  26)                  1.0926         0.000000   
     44. A(C   5,C   0,H   6)          119.8644         0.000000   
     45. A(C   1,C   0,C   5)          120.5551         0.000000   
     46. A(C   1,C   0,H   6)          119.5798         0.000000   
     47. A(C   0,C   1,C   9)          120.8285         0.000000   
     48. A(C   0,C   1,C   2)          119.1525         0.000000   
     49. A(C   2,C   1,C   9)          120.0173         0.000000   
     50. A(C   3,C   2,H   7)          121.0372         0.000000   
     51. A(C   1,C   2,H   7)          118.5218         0.000000   
     52. A(C   1,C   2,C   3)          120.4316         0.000000   
     53. A(C   4,C   3,H  25)          119.9616         0.000000   
     54. A(C   2,C   3,H  25)          119.8779         0.000000   
     55. A(C   2,C   3,C   4)          120.1584         0.000000   
     56. A(C   3,C   4,C   5)          119.6924         0.000000   
     57. A(C   5,C   4,H   8)          120.1305         0.000000   
     58. A(C   3,C   4,H   8)          120.1752         0.000000   
     59. A(C   0,C   5,H  24)          119.9177         0.000000   
     60. A(C   4,C   5,H  24)          120.0754         0.000000   
     61. A(C   0,C   5,C   4)          120.0058         0.000000   
     62. A(C   1,C   9,H  10)          109.3122         0.000000   
     63. A(O  11,C   9,N  12)           95.9999         0.000000   
     64. A(H  10,C   9,N  12)          106.6238         0.000000   
     65. A(H  10,C   9,O  11)          115.1403         0.000000   
     66. A(C   1,C   9,O  11)          116.7684         0.000000   
     67. A(C   1,C   9,N  12)          111.8969         0.000000   
     68. A(C   9,O  11,H  13)           75.8789         0.000000   
     69. A(H  13,N  12,C  15)          121.8854         0.000000   
     70. A(C   9,N  12,C  15)          119.1495         0.000000   
     71. A(C   9,N  12,H  13)           72.5888         0.000000   
     72. A(H  13,N  12,H  20)          114.5995         0.000000   
     73. A(C  15,N  12,H  20)          111.4247         0.000000   
     74. A(C   9,N  12,H  20)          112.0046         0.000000   
     75. A(O  11,H  13,N  12)          115.5127         0.000000   
     76. A(H  19,C  14,C  21)          109.4456         0.000000   
     77. A(H  18,C  14,C  21)          109.7809         0.000000   
     78. A(C  15,C  14,C  21)          112.5738         0.000000   
     79. A(H  18,C  14,H  19)          106.6224         0.000000   
     80. A(C  15,C  14,H  19)          109.1579         0.000000   
     81. A(C  15,C  14,H  18)          109.0812         0.000000   
     82. A(H  16,C  15,H  17)          107.5738         0.000000   
     83. A(C  14,C  15,H  17)          110.7814         0.000000   
     84. A(N  12,C  15,H  17)          107.0727         0.000000   
     85. A(C  14,C  15,H  16)          110.4600         0.000000   
     86. A(N  12,C  15,H  16)          107.3890         0.000000   
     87. A(N  12,C  15,C  14)          113.3153         0.000000   
     88. A(H  23,C  21,C  26)          109.5275         0.000000   
     89. A(H  22,C  21,C  26)          109.6200         0.000000   
     90. A(C  14,C  21,C  26)          112.5832         0.000000   
     91. A(H  22,C  21,H  23)          106.3712         0.000000   
     92. A(C  14,C  21,H  23)          109.1302         0.000000   
     93. A(C  14,C  21,H  22)          109.4156         0.000000   
     94. A(H  28,C  26,H  29)          107.5713         0.000000   
     95. A(H  27,C  26,H  29)          107.7510         0.000000   
     96. A(C  21,C  26,H  29)          111.1175         0.000000   
     97. A(H  27,C  26,H  28)          107.7353         0.000000   
     98. A(C  21,C  26,H  28)          111.0603         0.000000   
     99. A(C  21,C  26,H  27)          111.4287         0.000000   
    100. D(C   9,C   1,C   0,C   5)   -178.9334         0.000000   
    101. D(C   9,C   1,C   0,H   6)      1.3685         0.000000   
    102. D(C   2,C   1,C   0,H   6)   -179.1026         0.000000   
    103. D(C   2,C   1,C   0,C   5)      0.5955         0.000000   
    104. D(H   7,C   2,C   1,C   0)    178.1381         0.000000   
    105. D(C   3,C   2,C   1,C   9)    178.7785         0.000000   
    106. D(C   3,C   2,C   1,C   0)     -0.7543         0.000000   
    107. D(H   7,C   2,C   1,C   9)     -2.3292         0.000000   
    108. D(H  25,C   3,C   2,H   7)      1.0128         0.000000   
    109. D(C   4,C   3,C   2,H   7)   -178.4750         0.000000   
    110. D(C   4,C   3,C   2,C   1)      0.3892         0.000000   
    111. D(H  25,C   3,C   2,C   1)    179.8770         0.000000   
    112. D(H   8,C   4,C   3,C   2)    179.6460         0.000000   
    113. D(C   5,C   4,C   3,C   2)      0.1440         0.000000   
    114. D(C   5,C   4,C   3,H  25)   -179.3433         0.000000   
    115. D(H   8,C   4,C   3,H  25)      0.1587         0.000000   
    116. D(H  24,C   5,C   4,H   8)     -0.1921         0.000000   
    117. D(H  24,C   5,C   4,C   3)    179.3100         0.000000   
    118. D(C   0,C   5,C   4,H   8)   -179.8047         0.000000   
    119. D(H  24,C   5,C   0,H   6)      0.0141         0.000000   
    120. D(C   0,C   5,C   4,C   3)     -0.3025         0.000000   
    121. D(C   4,C   5,C   0,C   1)     -0.0700         0.000000   
    122. D(C   4,C   5,C   0,H   6)    179.6273         0.000000   
    123. D(H  24,C   5,C   0,C   1)   -179.6831         0.000000   
    124. D(O  11,C   9,C   1,C   2)     23.5981         0.000000   
    125. D(O  11,C   9,C   1,C   0)   -156.8771         0.000000   
    126. D(H  10,C   9,C   1,C   2)    156.5179         0.000000   
    127. D(N  12,C   9,C   1,C   2)    -85.6057         0.000000   
    128. D(H  10,C   9,C   1,C   0)    -23.9573         0.000000   
    129. D(N  12,C   9,C   1,C   0)     93.9190         0.000000   
    130. D(H  13,O  11,C   9,C   1)   -119.1515         0.000000   
    131. D(H  13,O  11,C   9,N  12)     -0.9210         0.000000   
    132. D(H  13,O  11,C   9,H  10)    110.6151         0.000000   
    133. D(H  20,N  12,C   9,O  11)   -109.0934         0.000000   
    134. D(H  20,N  12,C   9,H  10)    132.4045         0.000000   
    135. D(H  20,N  12,C   9,C   1)     12.9338         0.000000   
    136. D(C  15,N  12,C   9,O  11)    118.3359         0.000000   
    137. D(C  15,N  12,C   9,H  10)     -0.1661         0.000000   
    138. D(C  15,N  12,C   9,C   1)   -119.6369         0.000000   
    139. D(H  13,N  12,C   9,O  11)      1.0156         0.000000   
    140. D(H  13,N  12,C   9,H  10)   -117.4864         0.000000   
    141. D(H  13,N  12,C   9,C   1)    123.0429         0.000000   
    142. D(O  11,H  13,N  12,H  20)    105.6075         0.000000   
    143. D(O  11,H  13,N  12,C  15)   -115.1093         0.000000   
    144. D(O  11,H  13,N  12,C   9)     -1.1485         0.000000   
    145. D(N  12,H  13,O  11,C   9)      1.2756         0.000000   
    146. D(H  17,C  15,C  14,H  18)    179.2558         0.000000   
    147. D(H  16,C  15,C  14,C  21)     60.4664         0.000000   
    148. D(H  16,C  15,C  14,H  19)   -177.7914         0.000000   
    149. D(N  12,C  15,C  14,C  21)   -178.9937         0.000000   
    150. D(N  12,C  15,C  14,H  19)    -57.2514         0.000000   
    151. D(N  12,C  15,C  14,H  18)     58.8917         0.000000   
    152. D(H  17,C  15,N  12,H  20)    179.9201         0.000000   
    153. D(H  17,C  15,N  12,H  13)     39.4993         0.000000   
    154. D(H  17,C  15,N  12,C   9)    -47.2589         0.000000   
    155. D(H  16,C  15,N  12,H  20)     64.6327         0.000000   
    156. D(H  16,C  15,N  12,H  13)    -75.7881         0.000000   
    157. D(H  16,C  15,C  14,H  18)    -61.6482         0.000000   
    158. D(H  16,C  15,N  12,C   9)   -162.5464         0.000000   
    159. D(C  14,C  15,N  12,H  20)    -57.6323         0.000000   
    160. D(C  14,C  15,N  12,H  13)    161.9469         0.000000   
    161. D(H  17,C  15,C  14,H  19)     63.1127         0.000000   
    162. D(C  14,C  15,N  12,C   9)     75.1886         0.000000   
    163. D(H  17,C  15,C  14,C  21)    -58.6296         0.000000   
    164. D(C  26,C  21,C  14,H  19)     58.6012         0.000000   
    165. D(C  26,C  21,C  14,H  18)    -58.1016         0.000000   
    166. D(C  26,C  21,C  14,C  15)   -179.8199         0.000000   
    167. D(H  23,C  21,C  14,H  19)    -63.2319         0.000000   
    168. D(H  23,C  21,C  14,H  18)   -179.9347         0.000000   
    169. D(H  23,C  21,C  14,C  15)     58.3469         0.000000   
    170. D(H  22,C  21,C  14,H  19)   -179.2454         0.000000   
    171. D(H  22,C  21,C  14,H  18)     64.0518         0.000000   
    172. D(H  22,C  21,C  14,C  15)    -57.6666         0.000000   
    173. D(H  29,C  26,C  21,H  23)   -177.7975         0.000000   
    174. D(H  29,C  26,C  21,H  22)    -61.4430         0.000000   
    175. D(H  29,C  26,C  21,C  14)     60.5948         0.000000   
    176. D(H  28,C  26,C  21,H  23)     62.4989         0.000000   
    177. D(H  28,C  26,C  21,H  22)    178.8534         0.000000   
    178. D(H  28,C  26,C  21,C  14)    -59.1088         0.000000   
    179. D(H  27,C  26,C  21,H  23)    -57.6199         0.000000   
    180. D(H  27,C  26,C  21,H  22)     58.7345         0.000000   
    181. D(H  27,C  26,C  21,C  14)   -179.2277         0.000000   
    -----------------------------------------------------------------

Number of atoms                         .... 30
Number of degrees of freedom            .... 181

         *************************************************************
         *                GEOMETRY OPTIMIZATION CYCLE   1            *
         *************************************************************
      -----------------------------------------------------------      
     |                   =====================                   |     
     |                           x T B                           |     
     |                   =====================                   |     
     |                         S. Grimme                         |     
     |          Mulliken Center for Theoretical Chemistry        |     
     |                    University of Bonn                     |     
      -----------------------------------------------------------      

   * xtb version 6.3.0 (49875a8) compiled by 'schneider@apollo14' on 2020-05-23

   xtb is free software: you can redistribute it and/or modify it under
   the terms of the GNU Lesser General Public License as published by
   the Free Software Foundation, either version 3 of the License, or
   (at your option) any later version.
   
   xtb is distributed in the hope that it will be useful,
   but WITHOUT ANY WARRANTY; without even the implied warranty of
   MERCHANTABILITY or FITNESS FOR A PARTICULAR PURPOSE.  See the
   GNU Lesser General Public License for more details.
   
   Cite this work as:
   * S. Grimme, C. Bannwarth, P. Shushkov, J. Chem. Theory Comput., 2017,
     13, 1989-2009. DOI: 10.1021/acs.jctc.7b00118
   * C. Bannwarth, S. Ehlert and S. Grimme., J. Chem. Theory Comput., 2019,
     15, 1652-1671. DOI: 10.1021/acs.jctc.8b01176
   * P. Pracht, E. Caldeweyher, S. Ehlert, S. Grimme, ChemRxiv, 2019, preprint.
     DOI: 10.26434/chemrxiv.8326202.v1
   
   for GFN-FF:
   * S. Spicher and S. Grimme, Angew. Chem. Int. Ed., 2020,
     DOI: 10.1002/anie.202004239
   
   for DFT-D4:
   * E. Caldeweyher, C. Bannwarth and S. Grimme, J. Chem. Phys., 2017,
     147, 034112. DOI: 10.1063/1.4993215
   * E. Caldeweyher, S. Ehlert, A. Hansen, H. Neugebauer, S. Spicher,
     C. Bannwarth and S. Grimme, J. Chem. Phys., 2019, 150, 154122.
     DOI: 10.1063/1.5090222
   
   for sTDA-xTB:
   * S. Grimme and C. Bannwarth, J. Chem. Phys., 2016, 145, 054103.
     DOI: 10.1063/1.4959605
   
   in the mass-spec context:
   * V. Asgeirsson, C. Bauer and S. Grimme, Chem. Sci., 2017, 8, 4879.
     DOI: 10.1039/c7sc00601b
   * J. Koopman and S. Grimme, ACS Omega 2019, 4, 12, 15120-15133.
     DOI: 10.1021/acsomega.9b02011
   
   for metadynamics refer to:
   * S. Grimme, J. Chem. Theory Comput., 2019, 155, 2847-2862
     DOI: 10.1021/acs.jctc.9b00143
   
   with help from (in alphabetical order)
   C. Bannwarth, F. Bohle, G. Brandenburg, E. Caldeweyher, M. Checinski,
   S. Dohm, S. Ehlert, S. Ehrlich, F. März, H. Neugebauer, J. Pisarek,
   P. Pracht, P. Shushkov, and S. Spicher.
   
 * started run on 2020/06/19 at 19:09:29.571     

           -------------------------------------------------
          |                Calculation Setup                |
           -------------------------------------------------

          program call               : /opt/orca/otool_xtb optts+freq_XTB.xyz --grad -c 0 -u 0 -P 12 --namespace optts+freq --gbsa CH2Cl2
          calculation namespace      : optts+freq
          coordinate file            : optts+freq_XTB.xyz
          number of atoms            :                    30
          number of electrons        :                    72
          charge                     :                     0
          spin                       :                   0.0
          first test random number   :      0.45164360139485

   ID    Z sym.   atoms
    1    6 C      1-6, 10, 15, 16, 22, 27
    2    1 H      7-9, 11, 14, 17-21, 23-26, 28-30
    3    8 O      12
    4    7 N      13
########################################################################
[WARNING] Please study the warnings concerning your input carefully
-1- prog_main_parseArguments: Process number higher than OMP_NUM_THREADS, I hope you know what you are doing.
########################################################################
 Solvent             : CH2Cl2
 Using internal parameter file: .param_gbsa2_CH2Cl2
 Gsolv ref. state (COSMO-RS): gsolv [1 M gas/solution]
 temperature (mdtemp)       :    298.14999999999998     
 dielectric constant        :    8.9299999999999997     
 rho                        :    1.3300000000000003     
 mass                       :    84.930000000000007     
 surface tension            :    15.568945408385856     
 probe radius               :   0.71987590000000001     
 Gshift (Eh)                :    4.4408291734517593E-003
 c1                         :    1.4917377599999999     
 soset                      :    0.0000000000000000     
 HB correction              :  F

           -------------------------------------------------
          |                 G F N 2 - x T B                 |
           -------------------------------------------------

        Reference                      10.1021/acs.jctc.8b01176
      * Hamiltonian:
        H0-scaling (s, p, d)           1.850000    2.230000    2.230000
        zeta-weighting                 0.500000
      * Dispersion:
        s8                             2.700000
        a1                             0.520000
        a2                             5.000000
        s9                             5.000000
      * Repulsion:
        kExp                           1.500000    1.000000
        rExp                           1.000000
      * Coulomb:
        alpha                          2.000000
        third order                    shell-resolved
        anisotropic                    true
        a3                             3.000000
        a5                             4.000000
        cn-shift                       1.200000
        cn-exp                         4.000000
        max-rad                        5.000000


          ...................................................
          :                      SETUP                      :
          :.................................................:
          :  # basis functions                  69          :
          :  # atomic orbitals                  69          :
          :  # shells                           43          :
          :  # electrons                        72          :
          :  max. iterations                   250          :
          :  Hamiltonian                  GFN2-xTB          :
          :  restarted?                      false          :
          :  GBSA solvation                   true          :
          :  PC potential                    false          :
          :  electronic temp.          300.0000000     K    :
          :  accuracy                    1.0000000          :
          :  -> integral cutoff          0.2500000E+02      :
          :  -> integral neglect         0.1000000E-07      :
          :  -> SCF convergence          0.1000000E-05 Eh   :
          :  -> wf. convergence          0.1000000E-03 e    :
          :  Broyden damping             0.4000000          :
          ...................................................

 iter      E             dE          RMSdq      gap      omega  full diag
   1    -39.5906326 -0.395906E+02  0.404E+00    4.53       0.0  T
   2    -39.6889989 -0.983664E-01  0.224E+00    3.96       1.0  T
   3    -39.6909501 -0.195118E-02  0.929E-01    3.43       1.0  T
   4    -39.6908438  0.106284E-03  0.299E-01    3.46       1.0  T
   5    -39.6930375 -0.219365E-02  0.799E-02    3.55       1.0  T
   6    -39.6930732 -0.357092E-04  0.314E-02    3.59       1.0  T
   7    -39.6930751 -0.190966E-05  0.134E-02    3.59       1.4  T
   8    -39.6930765 -0.144136E-05  0.399E-03    3.59       4.6  T
   9    -39.6930766 -0.107963E-06  0.208E-03    3.59       8.8  T
  10    -39.6930767 -0.206289E-07  0.789E-04    3.59      23.1  T
  11    -39.6930767 -0.226589E-08  0.374E-04    3.59      48.8  T

   *** convergence criteria satisfied after 11 iterations ***

         #    Occupation            Energy/Eh            Energy/eV
      -------------------------------------------------------------
         1        2.0000           -0.6762416             -18.4015
       ...           ...                  ...                  ...
        30        2.0000           -0.4339057             -11.8072
        31        2.0000           -0.4313593             -11.7379
        32        2.0000           -0.4260530             -11.5935
        33        2.0000           -0.4094224             -11.1410
        34        2.0000           -0.4077696             -11.0960
        35        2.0000           -0.3795021             -10.3268
        36        2.0000           -0.3684565             -10.0262 (HOMO)
        37                         -0.2366507              -6.4396 (LUMO)
        38                         -0.2306764              -6.2770
        39                         -0.1151186              -3.1325
        40                         -0.0518186              -1.4101
        41                         -0.0415768              -1.1314
       ...                                ...                  ...
        69                          0.6394388              17.4000
      -------------------------------------------------------------
                  HL-Gap            0.1318059 Eh            3.5866 eV
             Fermi-level           -0.3025536 Eh           -8.2329 eV

 SCC (total)                   0 d,  0 h,  0 min,  0.074 sec
 SCC setup                      ...        0 min,  0.001 sec (  1.506%)
 Dispersion                     ...        0 min,  0.000 sec (  0.498%)
 classical contributions        ...        0 min,  0.000 sec (  0.161%)
 integral evaluation            ...        0 min,  0.014 sec ( 18.710%)
 iterations                     ...        0 min,  0.033 sec ( 44.599%)
 molecular gradient             ...        0 min,  0.024 sec ( 32.229%)
 printout                       ...        0 min,  0.002 sec (  2.272%)

         :::::::::::::::::::::::::::::::::::::::::::::::::::::
         ::                     SUMMARY                     ::
         :::::::::::::::::::::::::::::::::::::::::::::::::::::
         :: total energy             -39.154777416412 Eh    ::
         :: total w/o Gsasa/hb       -39.139748836350 Eh    ::
         :: gradient norm              0.037195154543 Eh/a0 ::
         :: HOMO-LUMO gap              3.586620903959 eV    ::
         ::.................................................::
         :: SCC energy               -39.708105248826 Eh    ::
         :: -> isotropic ES            0.076442266313 Eh    ::
         :: -> anisotropic ES          0.005897767801 Eh    ::
         :: -> anisotropic XC          0.019563071515 Eh    ::
         :: -> dispersion             -0.024037244808 Eh    ::
         :: -> Gsolv                  -0.026380660462 Eh    ::
         ::    -> Gborn               -0.011352080401 Eh    ::
         ::    -> Gsasa               -0.019469409235 Eh    ::
         ::    -> Ghb                  0.000000000000 Eh    ::
         ::    -> Gshift               0.004440829173 Eh    ::
         :: repulsion energy           0.553174769004 Eh    ::
         :: add. restraining           0.000000000000 Eh    ::
         :::::::::::::::::::::::::::::::::::::::::::::::::::::

           -------------------------------------------------
          |                Property Printout                |
           -------------------------------------------------

    * Orbital Energies and Occupations

         #    Occupation            Energy/Eh            Energy/eV
      -------------------------------------------------------------
         1        2.0000           -0.6762416             -18.4015
       ...           ...                  ...                  ...
        24        2.0000           -0.4792733             -13.0417
        25        2.0000           -0.4747873             -12.9196
        26        2.0000           -0.4709667             -12.8157
        27        2.0000           -0.4558865             -12.4053
        28        2.0000           -0.4500418             -12.2463
        29        2.0000           -0.4445118             -12.0958
        30        2.0000           -0.4339057             -11.8072
        31        2.0000           -0.4313593             -11.7379
        32        2.0000           -0.4260530             -11.5935
        33        2.0000           -0.4094224             -11.1410
        34        2.0000           -0.4077696             -11.0960
        35        2.0000           -0.3795021             -10.3268
        36        2.0000           -0.3684565             -10.0262 (HOMO)
        37                         -0.2366507              -6.4396 (LUMO)
        38                         -0.2306764              -6.2770
        39                         -0.1151186              -3.1325
        40                         -0.0518186              -1.4101
        41                         -0.0415768              -1.1314
        42                          0.0563503               1.5334
        43                          0.0779795               2.1219
        44                          0.0839354               2.2840
        45                          0.0933863               2.5412
        46                          0.1115328               3.0350
        47                          0.1235727               3.3626
       ...                                ...                  ...
        69                          0.6394388              17.4000
      -------------------------------------------------------------
                  HL-Gap            0.1318059 Eh            3.5866 eV
             Fermi-level           -0.3025536 Eh           -8.2329 eV

     #   Z        covCN         q      C6AA      α(0)
     1   6 C      2.918    -0.039    28.957     8.824
     2   6 C      2.963    -0.020    28.505     8.757
     3   6 C      2.919    -0.029    28.718     8.788
     4   6 C      2.914    -0.030    28.761     8.794
     5   6 C      2.915    -0.030    28.748     8.792
     6   6 C      2.914    -0.030    28.750     8.792
     7   1 H      0.925     0.031     2.565     2.505
     8   1 H      0.925     0.043     2.406     2.426
     9   1 H      0.925     0.041     2.436     2.441
    10   6 C      3.689     0.181    17.876     6.051
    11   1 H      0.923     0.006     2.959     2.690
    12   8 O      1.086    -0.672    27.779     7.073
    13   7 N      3.417    -0.209    25.541     7.506
    14   1 H      1.001     0.321     0.648     1.258
    15   6 C      3.801    -0.065    21.738     6.638
    16   6 C      3.733    -0.003    20.720     6.497
    17   1 H      0.924     0.065     2.145     2.290
    18   1 H      0.924     0.061     2.187     2.313
    19   1 H      0.924     0.043     2.406     2.426
    20   1 H      0.924     0.042     2.427     2.436
    21   1 H      0.860     0.181     1.206     1.721
    22   6 C      3.800    -0.055    21.557     6.611
    23   1 H      0.924     0.039     2.468     2.457
    24   1 H      0.924     0.036     2.497     2.471
    25   1 H      0.925     0.041     2.430     2.438
    26   1 H      0.925     0.039     2.460     2.453
    27   6 C      3.750    -0.104    22.542     6.771
    28   1 H      0.924     0.039     2.462     2.454
    29   1 H      0.924     0.036     2.501     2.473
    30   1 H      0.924     0.038     2.478     2.462

 Mol. C6AA /au·bohr⁶  :       8197.557268
 Mol. C8AA /au·bohr⁸  :     185475.232309
 Mol. α(0) /au        :        139.607455


Wiberg/Mayer (AO) data.
largest (>0.10) Wiberg bond orders for each atom
          total WBO             WBO to atom ...
     1  C   3.991        C    6 1.446    C    2 1.410    H    7 0.966    C    4 0.112
     2  C   3.986        C    3 1.415    C    1 1.410    C   10 0.979    C    5 0.109
     3  C   3.990        C    4 1.443    C    2 1.415    H    8 0.968    C    6 0.111
     4  C   3.991        C    3 1.443    C    5 1.440    H   26 0.971    C    1 0.112
     5  C   3.991        C    4 1.440    C    6 1.436    H    9 0.971    C    2 0.109
     6  C   3.991        C    1 1.446    C    5 1.436    H   25 0.970    C    3 0.111
     7  H   0.999        C    1 0.966
     8  H   0.998        C    3 0.968
     9  H   0.998        C    5 0.971
    10  C   3.943        O   12 1.071    C    2 0.979    H   11 0.946    N   13 0.871
    11  H   1.000        C   10 0.946
    12  O   1.679        C   10 1.071    H   14 0.349    N   13 0.157
    13  N   3.518        C   16 0.979    H   21 0.942    C   10 0.871    H   14 0.510    O   12 0.157
    14  H   0.897        N   13 0.510    O   12 0.349
    15  C   3.994        C   22 1.005    C   16 1.003    H   19 0.975    H   20 0.972
    16  C   3.960        C   15 1.003    N   13 0.979    H   18 0.971    H   17 0.968
    17  H   0.995        C   16 0.968
    18  H   0.996        C   16 0.971
    19  H   0.998        C   15 0.975
    20  H   0.998        C   15 0.972
    21  H   0.967        N   13 0.942
    22  C   3.995        C   27 1.019    C   15 1.005    H   24 0.978    H   23 0.977
    23  H   0.998        C   22 0.977
    24  H   0.999        C   22 0.978
    25  H   0.998        C    6 0.970
    26  H   0.998        C    4 0.971
    27  C   3.995        C   22 1.019    H   29 0.988    H   30 0.987    H   28 0.987
    28  H   0.998        C   27 0.987
    29  H   0.999        C   27 0.988
    30  H   0.999        C   27 0.987
Topologies differ in total number of bonds
Writing topology from bond orders to xtbtopo.mol

molecular dipole:
                 x           y           z       tot (Debye)
 q only:       -0.898      -0.058      -2.171
   full:       -1.125      -0.013      -2.280       6.462
molecular quadrupole (traceless):
                xx          xy          yy          xz          yz          zz
 q only:       -7.661       2.771       1.037      -7.435      12.929       6.624
  q+dip:       -8.269       3.963       3.749      -8.408      12.742       4.520
   full:       -9.171       4.114       2.257      -8.474      12.245       6.914


           -------------------------------------------------
          | TOTAL ENERGY              -39.154777416412 Eh   |
          | GRADIENT NORM               0.037195154543 Eh/α |
          | HOMO-LUMO GAP               3.586620903959 eV   |
           -------------------------------------------------

------------------------------------------------------------------------
 * finished run on 2020/06/19 at 19:09:29.683     
------------------------------------------------------------------------
 total:
 * wall-time:     0 d,  0 h,  0 min,  0.112 sec
 *  cpu-time:     0 d,  0 h,  0 min,  1.187 sec
 * ratio c/w:    10.588 speedup
 SCF:
 * wall-time:     0 d,  0 h,  0 min,  0.075 sec
 *  cpu-time:     0 d,  0 h,  0 min,  0.815 sec
 * ratio c/w:    10.864 speedup


-------------------------   --------------------
FINAL SINGLE POINT ENERGY       -39.154777416410
-------------------------   --------------------


----------------------------------------------------------------------------
                           ORCA NUMERICAL FREQUENCIES
                              (12-process run)
----------------------------------------------------------------------------

Number of atoms                ... 30
Central differences            ... used
Number of displacements        ... 180
Numerical increment            ... 5.000e-03 bohr
IR-spectrum generation         ... on
Raman-spectrum generation      ... off
Surface Crossing Hessian       ... off
List of participating nodes    ...  optts+freq.hostnames

The output will be reduced. Please look at the following files:
SCF program output             ... >optts+freq.lastscf
Integral program output        ... >optts+freq.lastint
Gradient program output        ... >optts+freq.lastgrad
Dipole moment program output   ... >optts+freq.lastmom
AutoCI program output          ... >optts+freq.lastautoci


         <<< Energy and Gradient at the input geometry >>>

        <<< Energy and Gradient at displaced geometries >>>
             <<<Displacing   3/coordinate 2 (+)>>>
             <<<Displacing   1/coordinate 3 (+)>>>
             <<<Displacing   4/coordinate 1 (+)>>>
             <<<Displacing   3/coordinate 3 (+)>>>
             <<<Displacing   3/coordinate 1 (+)>>>
             <<<Displacing   4/coordinate 3 (+)>>>
             <<<Displacing   2/coordinate 2 (+)>>>
             <<<Displacing   1/coordinate 2 (+)>>>
             <<<Displacing   4/coordinate 2 (+)>>>
             <<<Displacing   3/coordinate 2 (-)>>>
             <<<Displacing   2/coordinate 3 (+)>>>
             <<<Displacing   1/coordinate 1 (+)>>>
             <<<Displacing   2/coordinate 1 (+)>>>
             <<<Displacing   1/coordinate 3 (-)>>>
             <<<Displacing   4/coordinate 3 (-)>>>
             <<<Displacing   2/coordinate 2 (-)>>>
             <<<Displacing   3/coordinate 1 (-)>>>
             <<<Displacing   1/coordinate 2 (-)>>>
             <<<Displacing   3/coordinate 3 (-)>>>
             <<<Displacing   4/coordinate 1 (-)>>>
             <<<Displacing   4/coordinate 2 (-)>>>
             <<<Displacing   2/coordinate 1 (-)>>>
             <<<Displacing   2/coordinate 3 (-)>>>
             <<<Displacing   1/coordinate 1 (-)>>>
             <<<Displacing   6/coordinate 1 (+)>>>
             <<<Displacing   6/coordinate 3 (+)>>>
             <<<Displacing   5/coordinate 2 (+)>>>
             <<<Displacing   5/coordinate 1 (+)>>>
             <<<Displacing   6/coordinate 1 (-)>>>
             <<<Displacing   5/coordinate 3 (+)>>>
             <<<Displacing   6/coordinate 2 (+)>>>
             <<<Displacing   7/coordinate 2 (+)>>>
             <<<Displacing   7/coordinate 3 (+)>>>
             <<<Displacing   7/coordinate 1 (+)>>>
             <<<Displacing   6/coordinate 3 (-)>>>
             <<<Displacing   5/coordinate 2 (-)>>>
             <<<Displacing   5/coordinate 1 (-)>>>
             <<<Displacing   6/coordinate 2 (-)>>>
             <<<Displacing   7/coordinate 2 (-)>>>
             <<<Displacing   7/coordinate 1 (-)>>>
             <<<Displacing   8/coordinate 1 (+)>>>
             <<<Displacing   5/coordinate 3 (-)>>>
             <<<Displacing   7/coordinate 3 (-)>>>
             <<<Displacing   8/coordinate 2 (+)>>>
             <<<Displacing   8/coordinate 1 (-)>>>
             <<<Displacing   8/coordinate 3 (+)>>>
             <<<Displacing   8/coordinate 2 (-)>>>
             <<<Displacing   8/coordinate 3 (-)>>>
             <<<Displacing   9/coordinate 1 (+)>>>
             <<<Displacing  10/coordinate 1 (+)>>>
             <<<Displacing  10/coordinate 2 (+)>>>
             <<<Displacing   9/coordinate 3 (+)>>>
             <<<Displacing   9/coordinate 2 (+)>>>
             <<<Displacing  10/coordinate 3 (+)>>>
             <<<Displacing  11/coordinate 2 (+)>>>
             <<<Displacing  10/coordinate 1 (-)>>>
             <<<Displacing  11/coordinate 1 (+)>>>
             <<<Displacing   9/coordinate 1 (-)>>>
             <<<Displacing   9/coordinate 3 (-)>>>
             <<<Displacing  11/coordinate 2 (-)>>>
             <<<Displacing  10/coordinate 3 (-)>>>
             <<<Displacing   9/coordinate 2 (-)>>>
             <<<Displacing  11/coordinate 1 (-)>>>
             <<<Displacing  10/coordinate 2 (-)>>>
             <<<Displacing  12/coordinate 1 (+)>>>
             <<<Displacing  11/coordinate 3 (+)>>>
             <<<Displacing  12/coordinate 1 (-)>>>
             <<<Displacing  11/coordinate 3 (-)>>>
             <<<Displacing  12/coordinate 2 (+)>>>
             <<<Displacing  12/coordinate 3 (+)>>>
             <<<Displacing  12/coordinate 2 (-)>>>
             <<<Displacing  12/coordinate 3 (-)>>>
             <<<Displacing  13/coordinate 2 (+)>>>
             <<<Displacing  13/coordinate 1 (+)>>>
             <<<Displacing  14/coordinate 1 (+)>>>
             <<<Displacing  13/coordinate 3 (+)>>>
             <<<Displacing  14/coordinate 2 (+)>>>
             <<<Displacing  15/coordinate 1 (+)>>>
             <<<Displacing  14/coordinate 3 (+)>>>
             <<<Displacing  13/coordinate 2 (-)>>>
             <<<Displacing  13/coordinate 1 (-)>>>
             <<<Displacing  14/coordinate 1 (-)>>>
             <<<Displacing  13/coordinate 3 (-)>>>
             <<<Displacing  15/coordinate 3 (+)>>>
             <<<Displacing  14/coordinate 2 (-)>>>
             <<<Displacing  14/coordinate 3 (-)>>>
             <<<Displacing  15/coordinate 1 (-)>>>
             <<<Displacing  16/coordinate 1 (+)>>>
             <<<Displacing  15/coordinate 3 (-)>>>
             <<<Displacing  15/coordinate 2 (+)>>>
             <<<Displacing  16/coordinate 1 (-)>>>
             <<<Displacing  15/coordinate 2 (-)>>>
             <<<Displacing  16/coordinate 3 (+)>>>
             <<<Displacing  16/coordinate 3 (-)>>>
             <<<Displacing  16/coordinate 2 (+)>>>
             <<<Displacing  16/coordinate 2 (-)>>>
             <<<Displacing  17/coordinate 2 (+)>>>
             <<<Displacing  17/coordinate 1 (+)>>>
             <<<Displacing  18/coordinate 1 (+)>>>
             <<<Displacing  17/coordinate 3 (+)>>>
             <<<Displacing  17/coordinate 1 (-)>>>
             <<<Displacing  18/coordinate 3 (+)>>>
             <<<Displacing  17/coordinate 2 (-)>>>
             <<<Displacing  18/coordinate 1 (-)>>>
             <<<Displacing  19/coordinate 1 (+)>>>
             <<<Displacing  17/coordinate 3 (-)>>>
             <<<Displacing  18/coordinate 2 (+)>>>
             <<<Displacing  19/coordinate 2 (+)>>>
             <<<Displacing  18/coordinate 3 (-)>>>
             <<<Displacing  19/coordinate 1 (-)>>>
             <<<Displacing  18/coordinate 2 (-)>>>
             <<<Displacing  19/coordinate 2 (-)>>>
             <<<Displacing  19/coordinate 3 (+)>>>
             <<<Displacing  20/coordinate 1 (+)>>>
             <<<Displacing  20/coordinate 2 (+)>>>
             <<<Displacing  20/coordinate 2 (-)>>>
             <<<Displacing  20/coordinate 1 (-)>>>
             <<<Displacing  19/coordinate 3 (-)>>>
             <<<Displacing  20/coordinate 3 (+)>>>
             <<<Displacing  20/coordinate 3 (-)>>>
             <<<Displacing  21/coordinate 1 (+)>>>
             <<<Displacing  21/coordinate 3 (+)>>>
             <<<Displacing  21/coordinate 2 (+)>>>
             <<<Displacing  21/coordinate 3 (-)>>>
             <<<Displacing  21/coordinate 2 (-)>>>
             <<<Displacing  21/coordinate 1 (-)>>>
             <<<Displacing  22/coordinate 3 (+)>>>
             <<<Displacing  23/coordinate 1 (+)>>>
             <<<Displacing  22/coordinate 1 (+)>>>
             <<<Displacing  22/coordinate 3 (-)>>>
             <<<Displacing  23/coordinate 1 (-)>>>
             <<<Displacing  22/coordinate 1 (-)>>>
             <<<Displacing  22/coordinate 2 (+)>>>
             <<<Displacing  24/coordinate 1 (+)>>>
             <<<Displacing  24/coordinate 2 (+)>>>
             <<<Displacing  22/coordinate 2 (-)>>>
             <<<Displacing  23/coordinate 2 (+)>>>
             <<<Displacing  24/coordinate 2 (-)>>>
             <<<Displacing  24/coordinate 1 (-)>>>
             <<<Displacing  23/coordinate 2 (-)>>>
             <<<Displacing  23/coordinate 3 (+)>>>
             <<<Displacing  23/coordinate 3 (-)>>>
             <<<Displacing  24/coordinate 3 (+)>>>
             <<<Displacing  24/coordinate 3 (-)>>>
             <<<Displacing  25/coordinate 3 (+)>>>
             <<<Displacing  26/coordinate 1 (+)>>>
             <<<Displacing  26/coordinate 1 (-)>>>
             <<<Displacing  25/coordinate 3 (-)>>>
             <<<Displacing  25/coordinate 1 (+)>>>
             <<<Displacing  26/coordinate 2 (+)>>>
             <<<Displacing  27/coordinate 3 (+)>>>
             <<<Displacing  25/coordinate 1 (-)>>>
             <<<Displacing  27/coordinate 2 (+)>>>
             <<<Displacing  27/coordinate 3 (-)>>>
             <<<Displacing  26/coordinate 2 (-)>>>
             <<<Displacing  27/coordinate 2 (-)>>>
             <<<Displacing  25/coordinate 2 (+)>>>
             <<<Displacing  28/coordinate 1 (+)>>>
             <<<Displacing  26/coordinate 3 (+)>>>
             <<<Displacing  25/coordinate 2 (-)>>>
             <<<Displacing  27/coordinate 1 (+)>>>
             <<<Displacing  26/coordinate 3 (-)>>>
             <<<Displacing  27/coordinate 1 (-)>>>
             <<<Displacing  28/coordinate 1 (-)>>>
             <<<Displacing  28/coordinate 2 (+)>>>
             <<<Displacing  28/coordinate 2 (-)>>>
             <<<Displacing  28/coordinate 3 (+)>>>
             <<<Displacing  28/coordinate 3 (-)>>>
             <<<Displacing  29/coordinate 1 (+)>>>
             <<<Displacing  29/coordinate 1 (-)>>>
             <<<Displacing  30/coordinate 1 (+)>>>
             <<<Displacing  30/coordinate 2 (+)>>>
             <<<Displacing  29/coordinate 2 (+)>>>
             <<<Displacing  30/coordinate 1 (-)>>>
             <<<Displacing  30/coordinate 2 (-)>>>
             <<<Displacing  29/coordinate 2 (-)>>>
             <<<Displacing  29/coordinate 3 (+)>>>
             <<<Displacing  30/coordinate 3 (+)>>>
             <<<Displacing  29/coordinate 3 (-)>>>
             <<<Displacing  30/coordinate 3 (-)>>>

-----------------------
VIBRATIONAL FREQUENCIES
-----------------------

Scaling factor for frequencies =  1.000000000 (already applied!)

   0:         0.00 cm**-1
   1:         0.00 cm**-1
   2:         0.00 cm**-1
   3:         0.00 cm**-1
   4:         0.00 cm**-1
   5:         0.00 cm**-1
   6:     -1553.49 cm**-1 ***imaginary mode***
   7:        48.12 cm**-1
   8:        68.56 cm**-1
   9:        72.97 cm**-1
  10:        81.85 cm**-1
  11:       122.13 cm**-1
  12:       134.37 cm**-1
  13:       183.57 cm**-1
  14:       216.11 cm**-1
  15:       256.78 cm**-1
  16:       274.54 cm**-1
  17:       291.77 cm**-1
  18:       370.92 cm**-1
  19:       382.87 cm**-1
  20:       397.36 cm**-1
  21:       425.76 cm**-1
  22:       505.11 cm**-1
  23:       587.91 cm**-1
  24:       590.23 cm**-1
  25:       669.24 cm**-1
  26:       709.16 cm**-1
  27:       754.25 cm**-1
  28:       768.10 cm**-1
  29:       781.74 cm**-1
  30:       815.30 cm**-1
  31:       850.63 cm**-1
  32:       886.58 cm**-1
  33:       887.01 cm**-1
  34:       910.04 cm**-1
  35:       932.98 cm**-1
  36:       941.12 cm**-1
  37:       948.14 cm**-1
  38:       956.16 cm**-1
  39:       981.32 cm**-1
  40:      1040.37 cm**-1
  41:      1065.50 cm**-1
  42:      1069.68 cm**-1
  43:      1086.66 cm**-1
  44:      1102.72 cm**-1
  45:      1106.05 cm**-1
  46:      1115.57 cm**-1
  47:      1131.56 cm**-1
  48:      1136.87 cm**-1
  49:      1178.24 cm**-1
  50:      1182.75 cm**-1
  51:      1196.09 cm**-1
  52:      1205.49 cm**-1
  53:      1215.85 cm**-1
  54:      1250.40 cm**-1
  55:      1263.35 cm**-1
  56:      1270.42 cm**-1
  57:      1276.07 cm**-1
  58:      1280.52 cm**-1
  59:      1298.38 cm**-1
  60:      1312.24 cm**-1
  61:      1338.25 cm**-1
  62:      1370.40 cm**-1
  63:      1424.66 cm**-1
  64:      1428.88 cm**-1
  65:      1456.75 cm**-1
  66:      1471.83 cm**-1
  67:      1497.55 cm**-1
  68:      1504.76 cm**-1
  69:      1506.89 cm**-1
  70:      1511.59 cm**-1
  71:      1566.70 cm**-1
  72:      1572.45 cm**-1
  73:      1701.44 cm**-1
  74:      2826.34 cm**-1
  75:      2944.24 cm**-1
  76:      2954.32 cm**-1
  77:      2969.32 cm**-1
  78:      2981.41 cm**-1
  79:      2982.36 cm**-1
  80:      2987.70 cm**-1
  81:      2990.94 cm**-1
  82:      3001.29 cm**-1
  83:      3001.67 cm**-1
  84:      3042.08 cm**-1
  85:      3050.28 cm**-1
  86:      3055.12 cm**-1
  87:      3065.99 cm**-1
  88:      3074.96 cm**-1
  89:      3333.79 cm**-1


------------
NORMAL MODES
------------

These modes are the cartesian displacements weighted by the diagonal matrix
M(i,i)=1/sqrt(m[i]) where m[i] is the mass of the displaced atom
Thus, these vectors are normalized but *not* orthogonal

                  0          1          2          3          4          5    
      0       0.000000   0.000000   0.000000   0.000000   0.000000   0.000000
      1       0.000000   0.000000   0.000000   0.000000   0.000000   0.000000
      2       0.000000   0.000000   0.000000   0.000000   0.000000   0.000000
      3       0.000000   0.000000   0.000000   0.000000   0.000000   0.000000
      4       0.000000   0.000000   0.000000   0.000000   0.000000   0.000000
      5       0.000000   0.000000   0.000000   0.000000   0.000000   0.000000
      6       0.000000   0.000000   0.000000   0.000000   0.000000   0.000000
      7       0.000000   0.000000   0.000000   0.000000   0.000000   0.000000
      8       0.000000   0.000000   0.000000   0.000000   0.000000   0.000000
      9       0.000000   0.000000   0.000000   0.000000   0.000000   0.000000
     10       0.000000   0.000000   0.000000   0.000000   0.000000   0.000000
     11       0.000000   0.000000   0.000000   0.000000   0.000000   0.000000
     12       0.000000   0.000000   0.000000   0.000000   0.000000   0.000000
     13       0.000000   0.000000   0.000000   0.000000   0.000000   0.000000
     14       0.000000   0.000000   0.000000   0.000000   0.000000   0.000000
     15       0.000000   0.000000   0.000000   0.000000   0.000000   0.000000
     16       0.000000   0.000000   0.000000   0.000000   0.000000   0.000000
     17       0.000000   0.000000   0.000000   0.000000   0.000000   0.000000
     18       0.000000   0.000000   0.000000   0.000000   0.000000   0.000000
     19       0.000000   0.000000   0.000000   0.000000   0.000000   0.000000
     20       0.000000   0.000000   0.000000   0.000000   0.000000   0.000000
     21       0.000000   0.000000   0.000000   0.000000   0.000000   0.000000
     22       0.000000   0.000000   0.000000   0.000000   0.000000   0.000000
     23       0.000000   0.000000   0.000000   0.000000   0.000000   0.000000
     24       0.000000   0.000000   0.000000   0.000000   0.000000   0.000000
     25       0.000000   0.000000   0.000000   0.000000   0.000000   0.000000
     26       0.000000   0.000000   0.000000   0.000000   0.000000   0.000000
     27       0.000000   0.000000   0.000000   0.000000   0.000000   0.000000
     28       0.000000   0.000000   0.000000   0.000000   0.000000   0.000000
     29       0.000000   0.000000   0.000000   0.000000   0.000000   0.000000
     30       0.000000   0.000000   0.000000   0.000000   0.000000   0.000000
     31       0.000000   0.000000   0.000000   0.000000   0.000000   0.000000
     32       0.000000   0.000000   0.000000   0.000000   0.000000   0.000000
     33       0.000000   0.000000   0.000000   0.000000   0.000000   0.000000
     34       0.000000   0.000000   0.000000   0.000000   0.000000   0.000000
     35       0.000000   0.000000   0.000000   0.000000   0.000000   0.000000
     36       0.000000   0.000000   0.000000   0.000000   0.000000   0.000000
     37       0.000000   0.000000   0.000000   0.000000   0.000000   0.000000
     38       0.000000   0.000000   0.000000   0.000000   0.000000   0.000000
     39       0.000000   0.000000   0.000000   0.000000   0.000000   0.000000
     40       0.000000   0.000000   0.000000   0.000000   0.000000   0.000000
     41       0.000000   0.000000   0.000000   0.000000   0.000000   0.000000
     42       0.000000   0.000000   0.000000   0.000000   0.000000   0.000000
     43       0.000000   0.000000   0.000000   0.000000   0.000000   0.000000
     44       0.000000   0.000000   0.000000   0.000000   0.000000   0.000000
     45       0.000000   0.000000   0.000000   0.000000   0.000000   0.000000
     46       0.000000   0.000000   0.000000   0.000000   0.000000   0.000000
     47       0.000000   0.000000   0.000000   0.000000   0.000000   0.000000
     48       0.000000   0.000000   0.000000   0.000000   0.000000   0.000000
     49       0.000000   0.000000   0.000000   0.000000   0.000000   0.000000
     50       0.000000   0.000000   0.000000   0.000000   0.000000   0.000000
     51       0.000000   0.000000   0.000000   0.000000   0.000000   0.000000
     52       0.000000   0.000000   0.000000   0.000000   0.000000   0.000000
     53       0.000000   0.000000   0.000000   0.000000   0.000000   0.000000
     54       0.000000   0.000000   0.000000   0.000000   0.000000   0.000000
     55       0.000000   0.000000   0.000000   0.000000   0.000000   0.000000
     56       0.000000   0.000000   0.000000   0.000000   0.000000   0.000000
     57       0.000000   0.000000   0.000000   0.000000   0.000000   0.000000
     58       0.000000   0.000000   0.000000   0.000000   0.000000   0.000000
     59       0.000000   0.000000   0.000000   0.000000   0.000000   0.000000
     60       0.000000   0.000000   0.000000   0.000000   0.000000   0.000000
     61       0.000000   0.000000   0.000000   0.000000   0.000000   0.000000
     62       0.000000   0.000000   0.000000   0.000000   0.000000   0.000000
     63       0.000000   0.000000   0.000000   0.000000   0.000000   0.000000
     64       0.000000   0.000000   0.000000   0.000000   0.000000   0.000000
     65       0.000000   0.000000   0.000000   0.000000   0.000000   0.000000
     66       0.000000   0.000000   0.000000   0.000000   0.000000   0.000000
     67       0.000000   0.000000   0.000000   0.000000   0.000000   0.000000
     68       0.000000   0.000000   0.000000   0.000000   0.000000   0.000000
     69       0.000000   0.000000   0.000000   0.000000   0.000000   0.000000
     70       0.000000   0.000000   0.000000   0.000000   0.000000   0.000000
     71       0.000000   0.000000   0.000000   0.000000   0.000000   0.000000
     72       0.000000   0.000000   0.000000   0.000000   0.000000   0.000000
     73       0.000000   0.000000   0.000000   0.000000   0.000000   0.000000
     74       0.000000   0.000000   0.000000   0.000000   0.000000   0.000000
     75       0.000000   0.000000   0.000000   0.000000   0.000000   0.000000
     76       0.000000   0.000000   0.000000   0.000000   0.000000   0.000000
     77       0.000000   0.000000   0.000000   0.000000   0.000000   0.000000
     78       0.000000   0.000000   0.000000   0.000000   0.000000   0.000000
     79       0.000000   0.000000   0.000000   0.000000   0.000000   0.000000
     80       0.000000   0.000000   0.000000   0.000000   0.000000   0.000000
     81       0.000000   0.000000   0.000000   0.000000   0.000000   0.000000
     82       0.000000   0.000000   0.000000   0.000000   0.000000   0.000000
     83       0.000000   0.000000   0.000000   0.000000   0.000000   0.000000
     84       0.000000   0.000000   0.000000   0.000000   0.000000   0.000000
     85       0.000000   0.000000   0.000000   0.000000   0.000000   0.000000
     86       0.000000   0.000000   0.000000   0.000000   0.000000   0.000000
     87       0.000000   0.000000   0.000000   0.000000   0.000000   0.000000
     88       0.000000   0.000000   0.000000   0.000000   0.000000   0.000000
     89       0.000000   0.000000   0.000000   0.000000   0.000000   0.000000
                  6          7          8          9         10         11    
      0      -0.000006  -0.025151   0.051333  -0.002556  -0.028390  -0.028585
      1       0.000026   0.122647  -0.007920   0.031884  -0.006919   0.064532
      2      -0.000285  -0.032881  -0.111170  -0.172906   0.052989  -0.101777
      3      -0.001619  -0.020660   0.033809  -0.011324  -0.019898  -0.020193
      4       0.001860   0.054590  -0.006861  -0.016970  -0.019141   0.071142
      5      -0.001957   0.014003   0.026978  -0.040142  -0.002785  -0.164239
      6      -0.001152   0.020885  -0.010162  -0.015350   0.012672  -0.026188
      7       0.000423   0.005632  -0.019847  -0.064305  -0.007860   0.053662
      8      -0.000306   0.121610   0.113656   0.111409  -0.072243  -0.099827
      9       0.000089   0.057844  -0.034376  -0.008813   0.035487  -0.038036
     10       0.000349   0.025772  -0.030601  -0.061414   0.014436   0.008155
     11       0.000143   0.182319   0.062716   0.126340  -0.085328   0.076211
     12      -0.000099   0.052837  -0.015322   0.001636   0.025630  -0.049122
     13      -0.000079   0.092935  -0.029200  -0.011196   0.025393  -0.014667
     14      -0.000206   0.140658  -0.078815  -0.010018  -0.026416   0.187637
     15      -0.000270   0.011335   0.027276   0.003940  -0.005959  -0.041266
     16      -0.000060   0.141111  -0.018457   0.033967   0.015266   0.017528
     17       0.000072   0.033432  -0.163654  -0.157711   0.043559   0.075804
     18      -0.000137  -0.056939   0.081340  -0.005250  -0.052330  -0.031883
     19      -0.000456   0.161902   0.002279   0.066612  -0.011808   0.085600
     20       0.001266  -0.123316  -0.177704  -0.283166   0.098793  -0.167028
     21       0.001054   0.023798  -0.024432  -0.025132   0.019899  -0.020337
     22      -0.009200  -0.050116  -0.023476  -0.104175  -0.014917   0.069391
     23       0.001553   0.151939   0.211426   0.212010  -0.113197  -0.152670
     24       0.000193   0.080640  -0.034559   0.007284   0.042894  -0.059448
     25       0.000441   0.106907  -0.037022  -0.008516   0.042557  -0.058297
     26      -0.000057   0.190268  -0.121550   0.000733  -0.036060   0.351818
     27       0.025521  -0.059351   0.070645  -0.017968  -0.039344  -0.024018
     28       0.002589   0.029336   0.019297  -0.017896  -0.034175   0.047025
     29       0.049205  -0.038287   0.046381  -0.061537  -0.008382  -0.100751
     30      -0.014424  -0.078878   0.126150  -0.045429  -0.063806  -0.067721
     31      -0.002586   0.041358   0.001331  -0.015440  -0.028399   0.070223
     32      -0.018483  -0.026422   0.130341  -0.155297  -0.071795  -0.085897
     33      -0.028379  -0.036187   0.103468  -0.048957  -0.058226  -0.081419
     34      -0.002407   0.002422   0.114948  -0.092874  -0.092520   0.038889
     35       0.031516  -0.079179  -0.031658   0.007683   0.036674   0.012274
     36       0.019701  -0.108318  -0.021067   0.058618   0.006205   0.124639
     37       0.003189   0.034745  -0.018839   0.063292   0.034367  -0.091843
     38      -0.000624  -0.057025   0.013204  -0.032906   0.010879  -0.048803
     39      -0.231362  -0.081690   0.031082   0.013527  -0.020586   0.039280
     40      -0.035070   0.056023   0.084413  -0.031494  -0.031952  -0.082798
     41      -0.967893  -0.088520  -0.050764   0.022550   0.043375   0.039449
     42       0.001705  -0.039207  -0.081704   0.045871  -0.028092   0.097929
     43       0.004298  -0.126191  -0.106811   0.077959  -0.049036  -0.119658
     44       0.003093  -0.020309   0.165502  -0.023805   0.117330   0.073634
     45       0.006689  -0.046112  -0.040290   0.071010   0.027050   0.112930
     46      -0.006183  -0.003276  -0.041164   0.111304   0.079023  -0.160193
     47      -0.006829  -0.023413   0.045560  -0.097657  -0.050637   0.036279
     48      -0.001758  -0.058519  -0.119052   0.028428  -0.086179   0.109029
     49      -0.021493   0.026380  -0.005522   0.187174   0.225349  -0.237665
     50      -0.015190  -0.031531  -0.019258  -0.125586  -0.133014   0.025790
     51      -0.002618   0.023643   0.057211   0.133043   0.200062   0.087181
     52      -0.004110   0.029747  -0.024750   0.088547   0.064240  -0.125309
     53      -0.001471  -0.002993   0.026275  -0.160353  -0.151583   0.101746
     54      -0.001069  -0.128825  -0.232241   0.013461  -0.243788   0.088239
     55      -0.001085  -0.130968  -0.025394   0.037193   0.014553  -0.061732
     56      -0.001003   0.009285   0.361467  -0.076033   0.312776   0.171055
     57       0.001741  -0.034852   0.000079   0.092820   0.084507   0.131237
     58      -0.000046  -0.225557  -0.346668   0.136720  -0.314379  -0.185508
     59      -0.000213  -0.021973   0.218380   0.018043   0.195037   0.097571
     60       0.034739  -0.168162  -0.093967   0.104705   0.024123   0.225581
     61       0.016098   0.008905  -0.041139   0.096420   0.061003  -0.120837
     62      -0.010827  -0.076764   0.005013   0.007601   0.051932  -0.150560
     63       0.001379   0.088297  -0.034428  -0.011623   0.058238   0.004606
     64       0.000220  -0.115930   0.049456   0.007032   0.081216  -0.015309
     65       0.000448  -0.064881  -0.056015   0.087119  -0.078138  -0.041850
     66      -0.000633   0.111494  -0.064201  -0.090589  -0.032250  -0.052622
     67      -0.000430  -0.032714   0.248726  -0.043652   0.330224   0.048595
     68      -0.000192  -0.040951  -0.071098   0.017677  -0.142071  -0.086766
     69      -0.000463   0.143538   0.039255   0.058534   0.248201   0.004103
     70       0.000474  -0.114683  -0.041402   0.054776   0.016976  -0.087206
     71      -0.000260  -0.085951  -0.233113   0.135074  -0.260254  -0.158047
     72      -0.000659   0.006884   0.040604   0.010791  -0.013102  -0.046466
     73       0.000880   0.192559  -0.017828   0.069988   0.024778  -0.000180
     74       0.000160  -0.000594  -0.271196  -0.260741   0.088015   0.140436
     75      -0.000073   0.090294  -0.067631  -0.011532   0.060147  -0.037331
     76       0.000713  -0.011163  -0.039324  -0.096738   0.022730  -0.013161
     77       0.000384   0.260088   0.127652   0.239151  -0.139150   0.141955
     78       0.000495   0.114169  -0.045903  -0.062852   0.017119  -0.042234
     79       0.000718  -0.214985   0.065791  -0.058572  -0.033209   0.122105
     80       0.000312  -0.116974  -0.029798   0.233434   0.049724   0.056345
     81       0.001865   0.199657  -0.029917  -0.102322   0.065710  -0.142372
     82       0.000753  -0.216979   0.138669  -0.092340   0.023952   0.193490
     83       0.000989  -0.131214  -0.135389   0.288788  -0.040325  -0.023836
     84       0.000221   0.089703  -0.023817   0.017628   0.100605   0.015591
     85      -0.000193  -0.275572  -0.060678  -0.034926  -0.213463   0.081542
     86      -0.000590  -0.143226  -0.019708   0.306691   0.110220   0.104642
     87       0.000042   0.072172  -0.092630  -0.141774  -0.145723  -0.036205
     88      -0.000356  -0.226005   0.130258  -0.094395   0.005030   0.197250
     89      -0.000334  -0.115823   0.083954   0.213397   0.172893   0.163882
                 12         13         14         15         16         17    
      0      -0.012999   0.120191   0.069466  -0.012545  -0.003198  -0.067062
      1      -0.009327   0.033200   0.020266  -0.018282   0.001583  -0.023497
      2      -0.006311  -0.060542   0.118695  -0.057433   0.025230   0.153997
      3      -0.010189   0.106285   0.064003  -0.014671  -0.000543  -0.040575
      4      -0.016312   0.118794   0.083369  -0.026089   0.002326  -0.025093
      5      -0.020418  -0.041099   0.115116  -0.040954   0.008646   0.000709
      6       0.000433   0.008328  -0.026093   0.019863  -0.007504  -0.051054
      7      -0.020428   0.149241   0.116189  -0.038448   0.001437  -0.064885
      8      -0.019728  -0.024605   0.126997  -0.060349   0.024390   0.144177
      9       0.008898  -0.095265  -0.103991   0.035115  -0.006322  -0.013421
     10      -0.016417   0.057741   0.086345  -0.039101   0.007088  -0.011974
     11      -0.006396   0.026037   0.005053  -0.016210   0.006037   0.046410
     12       0.005951  -0.081491  -0.082802   0.029188  -0.004226  -0.002445
     13      -0.008390  -0.049778   0.037323  -0.037038   0.015618   0.081429
     14       0.005860   0.048195  -0.100249   0.026037  -0.019499  -0.141133
     15      -0.004925   0.024738  -0.001723   0.003512  -0.002724  -0.035881
     16      -0.004632  -0.065550  -0.021280  -0.014585   0.006939   0.032469
     17       0.006914  -0.021155  -0.002615  -0.017739   0.006863   0.053852
     18      -0.023852   0.200969   0.131029  -0.020685  -0.006174  -0.110240
     19      -0.005415   0.011403  -0.014956  -0.010039  -0.001407  -0.035913
     20      -0.005430  -0.084913   0.157487  -0.073229   0.037822   0.243850
     21       0.002856  -0.006178  -0.045010   0.026956  -0.009329  -0.056409
     22      -0.027040   0.256427   0.203243  -0.060621   0.001267  -0.106828
     23      -0.029725  -0.024875   0.174089  -0.089796   0.037457   0.220583
     24       0.012102  -0.146664  -0.121751   0.038391  -0.002662   0.031566
     25      -0.004862  -0.120098   0.031538  -0.039977   0.023161   0.154171
     26       0.014700   0.109712  -0.237165   0.079588  -0.049109  -0.346026
     27      -0.008206   0.040624  -0.017770  -0.018354   0.006450   0.017014
     28      -0.007921   0.050562   0.021240  -0.006518   0.005552   0.044751
     29      -0.047331  -0.009242  -0.029871  -0.064098   0.003122  -0.142271
     30      -0.008238  -0.105055  -0.145699  -0.028570   0.012959   0.031245
     31      -0.013059   0.114699   0.078048  -0.004802   0.001277   0.022337
     32      -0.096024  -0.064697  -0.096348  -0.095276  -0.000746  -0.227742
     33      -0.016948   0.022123   0.040378   0.001132  -0.004336  -0.022209
     34      -0.038221  -0.185979  -0.242039  -0.066794   0.022245   0.022154
     35      -0.025858   0.055918  -0.107026  -0.087769   0.019980  -0.061950
     36       0.009162   0.105690  -0.091378  -0.073180   0.036451   0.172022
     37       0.066012  -0.034231   0.077951   0.097430  -0.022070  -0.031539
     38      -0.036700   0.015937  -0.068681  -0.046265   0.002076  -0.109788
     39      -0.003012   0.084546  -0.048433  -0.041481   0.019196   0.086530
     40       0.039654  -0.307661  -0.017059   0.117166  -0.040427  -0.137948
     41      -0.025325   0.062676  -0.101617  -0.107203   0.027408  -0.030590
     42      -0.026181  -0.134111   0.112065  -0.020847   0.005079  -0.024063
     43      -0.059358   0.069922  -0.127046   0.076470  -0.000808   0.054243
     44       0.133471   0.046560  -0.040381   0.070560  -0.030067   0.072474
     45       0.034643  -0.107735   0.070134  -0.065350   0.016275   0.006760
     46       0.076835   0.013361  -0.039333  -0.034135   0.012274  -0.092159
     47      -0.054344   0.004273   0.035752   0.165730  -0.049282   0.012993
     48      -0.086211  -0.148890   0.131914   0.018644  -0.002176  -0.006669
     49       0.189887  -0.051004  -0.075757  -0.293636   0.060501  -0.296017
     50      -0.146278  -0.038572   0.085322   0.210256  -0.059835  -0.019042
     51       0.211424  -0.156515   0.084617  -0.227187   0.041496  -0.111234
     52       0.084483  -0.019756   0.040160   0.049771  -0.010111  -0.066519
     53      -0.121487  -0.023098   0.152968   0.370051  -0.095408   0.107211
     54      -0.167857  -0.148970   0.122481   0.102092   0.017598   0.014770
     55      -0.087868   0.072501  -0.125890   0.077425  -0.032225   0.090850
     56       0.145202   0.060675  -0.047440   0.019473  -0.086867   0.118090
     57       0.079835  -0.130560   0.085260  -0.109257   0.011546  -0.008453
     58      -0.100938   0.035659  -0.115373   0.145135   0.067113   0.049381
     59       0.217810   0.044276  -0.058695  -0.000969  -0.020862   0.083135
     60      -0.019573   0.350703  -0.204086  -0.230936   0.098138   0.356549
     61       0.071191   0.032450   0.009162   0.017124   0.003314  -0.032571
     62      -0.013822   0.026002  -0.141490  -0.122533   0.020726  -0.197428
     63      -0.036644  -0.038134   0.031591   0.050685  -0.031687  -0.010466
     64      -0.086541   0.052400  -0.092231   0.073059  -0.047833   0.086626
     65       0.175392   0.038239  -0.062822   0.083976   0.035134   0.030555
     66       0.120900   0.019484  -0.024222   0.077997  -0.000278   0.003010
     67      -0.235672   0.089740  -0.110352   0.105213  -0.111441   0.142596
     68       0.300569   0.087913  -0.109577   0.108295   0.057391   0.043497
     69      -0.270144  -0.004897  -0.012909   0.070888  -0.092822   0.040597
     70      -0.087835   0.078087  -0.136021   0.081898  -0.037047   0.087976
     71       0.268701   0.067432  -0.117300   0.089737   0.076486   0.014040
     72      -0.007240   0.041164   0.015636  -0.001065  -0.002324  -0.041149
     73       0.001640  -0.156436  -0.093143   0.007571   0.004432   0.045677
     74       0.017086  -0.028182  -0.043065  -0.009850   0.006655   0.075703
     75       0.017319  -0.178441  -0.167307   0.045186  -0.005177   0.015836
     76      -0.019495   0.077478   0.119593  -0.045020   0.006772  -0.027817
     77      -0.006475   0.060281  -0.025227  -0.009812   0.005869   0.062868
     78       0.053808   0.021785  -0.032619   0.079382  -0.013411   0.021638
     79       0.104427  -0.111979   0.118940   0.024147  -0.004603  -0.044113
     80      -0.093038  -0.089702   0.065562   0.042589  -0.024997  -0.023473
     81       0.028882   0.183724  -0.213676   0.207940   0.142426   0.108808
     82       0.073199  -0.149110   0.194510   0.182960   0.298095  -0.136074
     83      -0.044142  -0.070239  -0.003899  -0.206019  -0.481112   0.087717
     84      -0.111912  -0.051068   0.044728   0.075393  -0.019021  -0.018563
     85       0.288093  -0.163918   0.135709  -0.300107  -0.538405   0.021796
     86      -0.226231  -0.158438   0.135650   0.014422  -0.070871  -0.054319
     87       0.311712  -0.017095   0.016131  -0.029864  -0.142880   0.003750
     88       0.096096  -0.161074   0.206850   0.159062   0.263815  -0.138834
     89      -0.211303  -0.145462   0.174044   0.284669   0.420871  -0.154588
                 18         19         20         21         22         23    
      0       0.109239   0.015598  -0.036590  -0.078685  -0.018047  -0.119369
      1      -0.104889   0.056075   0.014642  -0.009578   0.009290  -0.292821
      2       0.028093  -0.201483  -0.007370  -0.010687  -0.036716  -0.092927
      3       0.052448  -0.000716  -0.023756  -0.057089   0.016877  -0.185418
      4       0.094850  -0.002224  -0.044174  -0.068747   0.063198   0.036502
      5      -0.034996   0.003953   0.038470   0.017311  -0.319192  -0.006898
      6       0.139668  -0.019265  -0.033190  -0.052401  -0.022671  -0.198533
      7       0.026129  -0.058999  -0.013975  -0.061168  -0.020766   0.064395
      8       0.057740   0.198280  -0.048148  -0.043299  -0.044200   0.004330
      9       0.091386   0.017391  -0.012619   0.007614  -0.017936   0.093167
     10      -0.035735   0.055328  -0.000429  -0.020755  -0.053987   0.287523
     11       0.040777  -0.204063  -0.013673  -0.016239   0.136714   0.085374
     12       0.121485  -0.001458  -0.023212  -0.003583   0.008015   0.179264
     13      -0.141549  -0.002161   0.024713   0.030049   0.073527  -0.039222
     14      -0.100274   0.003560   0.049151   0.035683  -0.186451   0.008197
     15       0.085927  -0.017941  -0.018461  -0.030099  -0.019967   0.177410
     16      -0.156859  -0.055761   0.046768   0.051455  -0.021887  -0.078843
     17      -0.009385   0.195942  -0.028983  -0.013300   0.149158  -0.009173
     18       0.241862   0.030152  -0.077498  -0.138584  -0.064657  -0.143436
     19      -0.168189   0.124775   0.035650   0.019656  -0.045507  -0.274141
     20       0.089567  -0.442644  -0.030602  -0.035001   0.196882  -0.078096
     21       0.138253  -0.043779  -0.026722  -0.040579  -0.046601  -0.145141
     22      -0.033574  -0.131541   0.004497  -0.085411  -0.102156  -0.195419
     23       0.094311   0.426300  -0.100883  -0.088680   0.193358  -0.055961
     24       0.092226  -0.000073  -0.013546   0.022709   0.024653  -0.033227
     25      -0.146320  -0.001578   0.022376   0.046391   0.101975  -0.205835
     26      -0.184832   0.006579   0.096795   0.065097  -0.256314  -0.049167
     27      -0.106667   0.007085   0.046662   0.104559   0.058201  -0.044142
     28       0.119228   0.003146  -0.012744   0.068290  -0.014556   0.153926
     29      -0.083805  -0.000472   0.025685  -0.001678   0.027865   0.055979
     30      -0.158809   0.011691   0.067301   0.149971   0.007450  -0.070810
     31       0.123464  -0.001094  -0.027980   0.019143   0.033689   0.164413
     32      -0.239671  -0.015760  -0.030699  -0.162284   0.176284   0.105042
     33      -0.265381   0.003915   0.067739   0.098293   0.088346   0.057194
     34       0.106896  -0.004630  -0.057612  -0.042700  -0.051223  -0.052717
     35       0.138894   0.005433   0.012157   0.065268   0.035421  -0.066752
     36       0.015344   0.009094   0.030111   0.146132  -0.060217  -0.044886
     37       0.181580   0.015785   0.118456   0.145161   0.013185  -0.042882
     38      -0.023833  -0.000129   0.013481   0.011863   0.088319   0.028463
     39      -0.075741   0.007125   0.030088   0.132225   0.022381  -0.025839
     40       0.144654   0.009574   0.185294  -0.161468   0.107405  -0.314590
     41       0.128770   0.004936   0.003454   0.030496  -0.027603  -0.010197
     42       0.010900   0.004445   0.133839  -0.074438   0.009118   0.036120
     43      -0.072326  -0.001069   0.000771  -0.092105  -0.006685   0.003838
     44      -0.018053   0.000632   0.050792  -0.066232  -0.007462   0.005562
     45      -0.002058   0.004302   0.172039  -0.118989  -0.002770   0.024140
     46       0.054595   0.003649   0.006878   0.101227   0.049432  -0.006680
     47       0.098014   0.012040   0.087020   0.091598   0.043721  -0.008837
     48       0.055299   0.011060   0.218481  -0.078861   0.004961   0.035113
     49      -0.104057  -0.014782  -0.031882  -0.111178   0.139717   0.096350
     50       0.131887   0.016129   0.125435   0.101896   0.058553   0.010751
     51      -0.050198  -0.004816   0.176522  -0.207914   0.043840   0.062408
     52       0.151154   0.012103   0.078894   0.161145   0.035438  -0.033367
     53       0.272791   0.029514   0.194040   0.233848  -0.000455  -0.067385
     54       0.010420   0.007360   0.204428  -0.128932   0.014134   0.030130
     55      -0.076109   0.001083   0.054053  -0.149346  -0.016004   0.021347
[...]
The total number of vibrations considered is 83


--------------------------
THERMOCHEMISTRY AT 298.15K
--------------------------

Temperature         ... 298.15 K
Pressure            ... 1.00 atm
Total Mass          ... 179.26 AMU

Throughout the following assumptions are being made:
  (1) The electronic state is orbitally nondegenerate
  (2) There are no thermally accessible electronically excited states
  (3) Hindered rotations indicated by low frequency modes are not
      treated as such but are treated as vibrations and this may
      cause some error
  (4) All equations used are the standard statistical mechanics
      equations for an ideal gas
  (5) All vibrations are strictly harmonic

freq.      28.93  E(vib)   ...       0.55 
freq.      40.81  E(vib)   ...       0.54 
freq.      48.81  E(vib)   ...       0.53 
freq.      57.03  E(vib)   ...       0.51 
freq.     105.77  E(vib)   ...       0.45 
freq.     113.26  E(vib)   ...       0.45 
freq.     185.07  E(vib)   ...       0.37 
freq.     197.69  E(vib)   ...       0.35 
freq.     224.75  E(vib)   ...       0.33 
freq.     259.98  E(vib)   ...       0.30 
freq.     296.94  E(vib)   ...       0.27 
freq.     361.87  E(vib)   ...       0.22 
freq.     367.87  E(vib)   ...       0.21 
freq.     394.44  E(vib)   ...       0.20 
freq.     423.63  E(vib)   ...       0.18 
freq.     507.49  E(vib)   ...       0.14 
freq.     588.14  E(vib)   ...       0.10 
freq.     593.09  E(vib)   ...       0.10 
freq.     668.59  E(vib)   ...       0.08 
freq.     720.59  E(vib)   ...       0.07 
freq.     748.86  E(vib)   ...       0.06 
freq.     773.74  E(vib)   ...       0.05 
freq.     790.71  E(vib)   ...       0.05 
freq.     812.01  E(vib)   ...       0.05 
freq.     847.56  E(vib)   ...       0.04 
freq.     879.91  E(vib)   ...       0.04 
freq.     900.20  E(vib)   ...       0.03 
freq.     906.29  E(vib)   ...       0.03 
freq.     928.90  E(vib)   ...       0.03 
freq.     932.38  E(vib)   ...       0.03 
freq.     948.54  E(vib)   ...       0.03 
freq.     955.65  E(vib)   ...       0.03 
freq.     987.02  E(vib)   ...       0.02 
freq.    1058.54  E(vib)   ...       0.02 
freq.    1068.78  E(vib)   ...       0.02 
freq.    1080.64  E(vib)   ...       0.02 
freq.    1103.56  E(vib)   ...       0.02 
freq.    1106.47  E(vib)   ...       0.02 
freq.    1117.18  E(vib)   ...       0.01 
freq.    1130.11  E(vib)   ...       0.01 
freq.    1170.10  E(vib)   ...       0.01 
freq.    1179.02  E(vib)   ...       0.01 
freq.    1189.45  E(vib)   ...       0.01 
freq.    1198.93  E(vib)   ...       0.01 
freq.    1215.24  E(vib)   ...       0.01 
freq.    1227.00  E(vib)   ...       0.01 
freq.    1231.05  E(vib)   ...       0.01 
freq.    1262.28  E(vib)   ...       0.01 
freq.    1268.17  E(vib)   ...       0.01 
freq.    1272.15  E(vib)   ...       0.01 
freq.    1275.80  E(vib)   ...       0.01 
freq.    1303.48  E(vib)   ...       0.01 
freq.    1314.19  E(vib)   ...       0.01 
freq.    1336.39  E(vib)   ...       0.01 
freq.    1340.70  E(vib)   ...       0.01 
freq.    1364.09  E(vib)   ...       0.01 
freq.    1414.64  E(vib)   ...       0.00 
freq.    1439.28  E(vib)   ...       0.00 
freq.    1464.20  E(vib)   ...       0.00 
freq.    1470.20  E(vib)   ...       0.00 
freq.    1487.76  E(vib)   ...       0.00 
freq.    1492.29  E(vib)   ...       0.00 
freq.    1497.37  E(vib)   ...       0.00 
freq.    1501.23  E(vib)   ...       0.00 
freq.    1592.19  E(vib)   ...       0.00 
freq.    1599.07  E(vib)   ...       0.00 
freq.    1774.55  E(vib)   ...       0.00 
freq.    2719.50  E(vib)   ...       0.00 
freq.    2962.15  E(vib)   ...       0.00 
freq.    2967.24  E(vib)   ...       0.00 
freq.    2975.07  E(vib)   ...       0.00 
freq.    2983.67  E(vib)   ...       0.00 
freq.    2988.68  E(vib)   ...       0.00 
freq.    2995.57  E(vib)   ...       0.00 
freq.    3028.06  E(vib)   ...       0.00 
freq.    3031.55  E(vib)   ...       0.00 
freq.    3038.90  E(vib)   ...       0.00 
freq.    3062.42  E(vib)   ...       0.00 
freq.    3070.36  E(vib)   ...       0.00 
freq.    3074.69  E(vib)   ...       0.00 
freq.    3080.41  E(vib)   ...       0.00 
freq.    3090.42  E(vib)   ...       0.00 
freq.    3257.06  E(vib)   ...       0.00 

------------
INNER ENERGY
------------

The inner energy is: U= E(el) + E(ZPE) + E(vib) + E(rot) + E(trans)
    E(el)   - is the total energy from the electronic structure calculation
              = E(kin-el) + E(nuc-el) + E(el-el) + E(nuc-nuc)
    E(ZPE)  - the the zero temperature vibrational energy from the frequency calculation
    E(vib)  - the the finite temperature correction to E(ZPE) due to population
              of excited vibrational states
    E(rot)  - is the rotational thermal energy
    E(trans)- is the translational thermal energy

Summary of contributions to the inner energy U:
Electronic energy                ...    -39.15473226 Eh
Zero point energy                ...      0.25166551 Eh     157.92 kcal/mol
Thermal vibrational correction   ...      0.01070537 Eh       6.72 kcal/mol
Thermal rotational correction    ...      0.00141627 Eh       0.89 kcal/mol
Thermal translational correction ...      0.00141627 Eh       0.89 kcal/mol
-----------------------------------------------------------------------
Total thermal energy                    -38.88952884 Eh


Summary of corrections to the electronic energy:
(perhaps to be used in another calculation)
Total thermal correction                  0.01353791 Eh       8.50 kcal/mol
Non-thermal (ZPE) correction              0.25166551 Eh     157.92 kcal/mol
-----------------------------------------------------------------------
Total correction                          0.26520342 Eh     166.42 kcal/mol


--------
ENTHALPY
--------

The enthalpy is H = U + kB*T
                kB is Boltzmann's constant
Total free energy                 ...    -38.88952884 Eh 
Thermal Enthalpy correction       ...      0.00094421 Eh       0.59 kcal/mol
-----------------------------------------------------------------------
Total Enthalpy                    ...    -38.88858463 Eh


Note: Only C1 symmetry has been detected, increase convergence thresholds 
      if your molecule has a higher symmetry. Symmetry factor of 1.0 is   
      used for the rotational entropy correction. 
 

Note: Rotational entropy computed according to Herzberg 
Infrared and Raman Spectra, Chapter V,1, Van Nostrand Reinhold, 1945 
Point Group:  C1, Symmetry Number:   1  
Rotational constants in cm-1:     0.035723     0.014739     0.011514 

Vibrational entropy computed according to the QRRHO of S. Grimme
Chem.Eur.J. 2012 18 9955


-------
ENTROPY
-------

The entropy contributions are T*S = T*(S(el)+S(vib)+S(rot)+S(trans))
     S(el)   - electronic entropy
     S(vib)  - vibrational entropy
     S(rot)  - rotational entropy
     S(trans)- translational entropy
The entropies will be listed as mutliplied by the temperature to get
units of energy

Electronic entropy                ...      0.00000000 Eh      0.00 kcal/mol
Vibrational entropy               ...      0.01904988 Eh     11.95 kcal/mol
Rotational entropy                ...      0.01518227 Eh      9.53 kcal/mol
Translational entropy             ...      0.01969790 Eh     12.36 kcal/mol
-----------------------------------------------------------------------
Final entropy term                ...      0.05393004 Eh     33.84 kcal/mol

In case the symmetry of your molecule has not been determined correctly
or in case you have a reason to use a different symmetry number we print 
out the resulting rotational entropy values for sn=1,12 :
 --------------------------------------------------------
|  sn= 1 | S(rot)=       0.01518227 Eh      9.53 kcal/mol|
|  sn= 2 | S(rot)=       0.01452781 Eh      9.12 kcal/mol|
|  sn= 3 | S(rot)=       0.01414498 Eh      8.88 kcal/mol|
|  sn= 4 | S(rot)=       0.01387336 Eh      8.71 kcal/mol|
|  sn= 5 | S(rot)=       0.01366267 Eh      8.57 kcal/mol|
|  sn= 6 | S(rot)=       0.01349052 Eh      8.47 kcal/mol|
|  sn= 7 | S(rot)=       0.01334498 Eh      8.37 kcal/mol|
|  sn= 8 | S(rot)=       0.01321890 Eh      8.29 kcal/mol|
|  sn= 9 | S(rot)=       0.01310769 Eh      8.23 kcal/mol|
|  sn=10 | S(rot)=       0.01300821 Eh      8.16 kcal/mol|
|  sn=11 | S(rot)=       0.01291822 Eh      8.11 kcal/mol|
|  sn=12 | S(rot)=       0.01283607 Eh      8.05 kcal/mol|
 --------------------------------------------------------


-------------------
GIBBS FREE ENERGY
-------------------

The Gibbs free energy is G = H - T*S

Total enthalpy                    ...    -38.88858463 Eh 
Total entropy correction          ...     -0.05393004 Eh    -33.84 kcal/mol
-----------------------------------------------------------------------
Final Gibbs free energy         ...    -38.94251468 Eh

For completeness - the Gibbs free energy minus the electronic energy
G-E(el)                           ...      0.21221759 Eh    133.17 kcal/mol


Total Time for Numerical Frequencies  :        68.950 sec



------------------------------------------------------------------------------- 
                    Intrinsic Reaction Coordinate Calculation                  
------------------------------------------------------------------------------- 

System:
Nr. of atoms                        .... 30
Algorithm: SD (steepest descent step) plus correction
Settings:
Max. no of cycles        MaxIter    .... 1000
Direction                           .... Forward and backward
Initial displacement Hessian type   .... Read
Hessian Filename                    .... optts+freq.hess
Following Hessian mode              .... 0
Initial displacement type           .... Energy
  Initial displacement energy change.... 0.250 mEh
Coordinate system following type    .... Cartesian
Length of steepest descent step     .... 0.150 bohr
Do parabolic fit 
  if SD step is uphill              .... YES
Do Correction to SD step            .... YES
Scaling for length of correction
  compared to SD step               .... 0.333
Do parabolic fit to SD correction   .... YES
Only interpolate for parabolic fit  .... YES
Do update to length of
  SD step and correction            .... YES
Convergence Tolerances:
  Max. Gradient            TolMAXG  ....  1.0000e-03 Eh/bohr
  RMS Gradient             TolRMSG  ....  2.0000e-04 Eh/bohr
Storing full IRC trajectory in      .... optts+freq_IRC_Full_trj.xyz
Storing forward trajectory in       .... optts+freq_IRC_F_trj.xyz
Storing backward trajectory in      .... optts+freq_IRC_B_trj.xyz


 ...good, the file optts+freq.hess exists
Reading the hessian file           ...... done
Determining length of initial displacement:
  Requested energy change (quadratic behavior): 0.250 mEh
  Resulting scaling factor for initial displacement along normalized TS mode: 0.0764

         *************************************************************
         *                          FORWARD IRC                      *
         *************************************************************

Iteration    E(Eh)      dE(kcal/mol)  max(|G|)   RMS(G) 
Convergence thresholds                0.001000  0.000200            
    0       -39.154966   -0.146495    0.005139  0.000965
    1       -39.157388   -1.666736    0.017200  0.002659
    2       -39.160930   -3.888929    0.019789  0.002916
    3       -39.165013   -6.451078    0.019101  0.002870
    4       -39.168831   -8.847276    0.015109  0.002631
    5       -39.171921   -10.786323    0.012714  0.002109
    6       -39.174484   -12.394607    0.008367  0.001686
    7       -39.176444   -13.624521    0.006622  0.001315
    8       -39.177849   -14.505978    0.004922  0.001202
    9       -39.178051   -14.632958    0.004424  0.000987
   10       -39.178258   -14.762320    0.004001  0.000879
   11       -39.178502   -14.915615    0.003217  0.000720
   12       -39.178740   -15.064840    0.002895  0.000656
   13       -39.178946   -15.194063    0.002432  0.000568
   14       -39.179131   -15.310717    0.002198  0.000506
   15       -39.179293   -15.412109    0.001747  0.000441
   16       -39.179436   -15.501757    0.001556  0.000386
   17       -39.179561   -15.580402    0.001238  0.000338
   18       -39.179671   -15.649358    0.001100  0.000302
   19       -39.179766   -15.708699    0.001251  0.000313
   20       -39.179787   -15.722135    0.001435  0.000320
   21       -39.179800   -15.730375    0.001109  0.000267
   22       -39.179821   -15.743549    0.000866  0.000245
   23       -39.179843   -15.757037    0.000857  0.000239
   24       -39.179864   -15.770110    0.000848  0.000233
   25       -39.179884   -15.782842    0.000838  0.000227
   26       -39.179904   -15.795278    0.000829  0.000222
   27       -39.179923   -15.807391    0.000819  0.000216
   28       -39.179942   -15.819249    0.000810  0.000212
   29       -39.179960   -15.830803    0.000799  0.000206
   30       -39.179978   -15.842140    0.000791  0.000202
   31       -39.179996   -15.853204    0.000782  0.000198

                      ***********************HURRAY********************
                      ***            THE IRC HAS CONVERGED          ***
                      *************************************************


         *************************************************************
         *                          BACKWARD IRC                     *
         *************************************************************

Iteration    E(Eh)      dE(kcal/mol)  max(|G|)   RMS(G) 
Convergence thresholds                0.001000  0.000200            
    0       -39.154996   -0.165717    0.006185  0.001033
    1       -39.158699   -2.489364    0.026467  0.004533
    2       -39.164735   -6.277068    0.040416  0.005348
    3       -39.173438   -11.737732    0.049281  0.006562
    4       -39.181825   -17.000731    0.045970  0.005854
    5       -39.188773   -21.360819    0.026177  0.004496
    6       -39.194067   -24.682669    0.023187  0.003619
    7       -39.198359   -27.376179    0.017927  0.002907
    8       -39.201901   -29.598657    0.016373  0.002386
    9       -39.204802   -31.419129    0.012238  0.001935
   10       -39.207163   -32.900453    0.011232  0.001558
   11       -39.209013   -34.061374    0.007837  0.001219
   12       -39.210384   -34.921968    0.006047  0.001018
   13       -39.210684   -35.110229    0.005213  0.001179
   14       -39.210796   -35.180684    0.005344  0.000855
   15       -39.211041   -35.333905    0.005121  0.000716
   16       -39.211282   -35.485150    0.004224  0.000664
   17       -39.211492   -35.617460    0.004364  0.000588
   18       -39.211685   -35.738187    0.003399  0.000526
   19       -39.211856   -35.845509    0.003426  0.000466
   20       -39.212007   -35.940410    0.002651  0.000410
   21       -39.212139   -36.023477    0.002470  0.000358
   22       -39.212254   -36.095587    0.002045  0.000312
   23       -39.212353   -36.157764    0.001767  0.000273
   24       -39.212437   -36.209995    0.001342  0.000288
   25       -39.212453   -36.220539    0.001330  0.000276
   26       -39.212465   -36.227852    0.001279  0.000234
   27       -39.212483   -36.239291    0.001211  0.000213
   28       -39.212502   -36.250967    0.001155  0.000207
   29       -39.212520   -36.262187    0.001080  0.000200
   30       -39.212537   -36.273055    0.001039  0.000193
   31       -39.212554   -36.283579    0.000963  0.000187

                      ***********************HURRAY********************
                      ***            THE IRC HAS CONVERGED          ***
                      *************************************************


---------------------------------------------------------------
                       IRC PATH SUMMARY              
---------------------------------------------------------------
All gradients are in Eh/Bohr.

Step        E(Eh)      dE(kcal/mol)  max(|G|)   RMS(G) 
   1       -39.212554   -36.283579    0.000963  0.000187
   2       -39.212537   -36.273055    0.001039  0.000193
   3       -39.212520   -36.262187    0.001080  0.000200
   4       -39.212502   -36.250967    0.001155  0.000207
   5       -39.212483   -36.239291    0.001211  0.000213
   6       -39.212465   -36.227852    0.001279  0.000234
   7       -39.212453   -36.220539    0.001330  0.000276
   8       -39.212437   -36.209995    0.001342  0.000288
   9       -39.212353   -36.157764    0.001767  0.000273
  10       -39.212254   -36.095587    0.002045  0.000312
  11       -39.212139   -36.023477    0.002470  0.000358
  12       -39.212007   -35.940410    0.002651  0.000410
  13       -39.211856   -35.845509    0.003426  0.000466
  14       -39.211685   -35.738187    0.003399  0.000526
  15       -39.211492   -35.617460    0.004364  0.000588
  16       -39.211282   -35.485150    0.004224  0.000664
  17       -39.211041   -35.333905    0.005121  0.000716
  18       -39.210796   -35.180684    0.005344  0.000855
  19       -39.210684   -35.110229    0.005213  0.001179
  20       -39.210384   -34.921968    0.006047  0.001018
  21       -39.209013   -34.061374    0.007837  0.001219
  22       -39.207163   -32.900453    0.011232  0.001558
  23       -39.204802   -31.419129    0.012238  0.001935
  24       -39.201901   -29.598657    0.016373  0.002386
  25       -39.198359   -27.376179    0.017927  0.002907
  26       -39.194067   -24.682669    0.023187  0.003619
  27       -39.188773   -21.360819    0.026177  0.004496
  28       -39.181825   -17.000731    0.045970  0.005854
  29       -39.173438   -11.737732    0.049281  0.006562
  30       -39.164735   -6.277068    0.040416  0.005348
  31       -39.158699   -2.489364    0.026467  0.004533
  32       -39.154996   -0.165717    0.006185  0.001033
  33       -39.154732    0.000000    0.000028  0.000008 <= TS
  34       -39.154966   -0.146495    0.005139  0.000965
  35       -39.157388   -1.666736    0.017200  0.002659
  36       -39.160930   -3.888929    0.019789  0.002916
  37       -39.165013   -6.451078    0.019101  0.002870
  38       -39.168831   -8.847276    0.015109  0.002631
  39       -39.171921   -10.786323    0.012714  0.002109
  40       -39.174484   -12.394607    0.008367  0.001686
  41       -39.176444   -13.624521    0.006622  0.001315
  42       -39.177849   -14.505978    0.004922  0.001202
  43       -39.178051   -14.632958    0.004424  0.000987
  44       -39.178258   -14.762320    0.004001  0.000879
  45       -39.178502   -14.915615    0.003217  0.000720
  46       -39.178740   -15.064840    0.002895  0.000656
  47       -39.178946   -15.194063    0.002432  0.000568
  48       -39.179131   -15.310717    0.002198  0.000506
  49       -39.179293   -15.412109    0.001747  0.000441
  50       -39.179436   -15.501757    0.001556  0.000386
  51       -39.179561   -15.580402    0.001238  0.000338
  52       -39.179671   -15.649358    0.001100  0.000302
  53       -39.179766   -15.708699    0.001251  0.000313
  54       -39.179787   -15.722135    0.001435  0.000320
  55       -39.179800   -15.730375    0.001109  0.000267
  56       -39.179821   -15.743549    0.000866  0.000245
  57       -39.179843   -15.757037    0.000857  0.000239
  58       -39.179864   -15.770110    0.000848  0.000233
  59       -39.179884   -15.782842    0.000838  0.000227
  60       -39.179904   -15.795278    0.000829  0.000222
  61       -39.179923   -15.807391    0.000819  0.000216
  62       -39.179942   -15.819249    0.000810  0.000212
  63       -39.179960   -15.830803    0.000799  0.000206
  64       -39.179978   -15.842140    0.000791  0.000202
  65       -39.179996   -15.853204    0.000782  0.000198

Timings for individual modules:

Sum of individual times         ...       32.327 sec (=   0.539 min)
Geometry relaxation             ...        2.917 sec (=   0.049 min)   9.0 %
XTB module                      ...       29.410 sec (=   0.490 min)  91.0 %
                             ****ORCA TERMINATED NORMALLY****
TOTAL RUN TIME: 0 days 0 hours 2 minutes 55 seconds 844 msec
