
                                 *****************
                                 * O   R   C   A *
                                 *****************

           --- An Ab Initio, DFT and Semiempirical electronic structure package ---

                  #######################################################
                  #                        -***-                        #
                  #          Department of theory and spectroscopy      #
                  #               Directorship: Frank Neese             #
                  #        Max Planck Institute fuer Kohlenforschung    #
                  #                Kaiser Wilhelm Platz 1               #
                  #                 D-45470 Muelheim/Ruhr               #
                  #                      Germany                        #
                  #                                                     #
                  #                  All rights reserved                #
                  #                        -***-                        #
                  #######################################################


                         Program Version 4.2.1 -  RELEASE  -


 With contributions from (in alphabetic order):
   Daniel Aravena         : Magnetic Suceptibility
   Michael Atanasov       : Ab Initio Ligand Field Theory (pilot matlab implementation)
   Alexander A. Auer      : GIAO ZORA, VPT2
   Ute Becker             : Parallelization
   Giovanni Bistoni       : ED, misc. LED, open-shell LED, HFLD
   Martin Brehm           : Molecular dynamics
   Dmytro Bykov           : SCF Hessian
   Vijay G. Chilkuri      : MRCI spin determinant printing, contributions to CSF-ICE
   Dipayan Datta          : RHF DLPNO-CCSD density
   Achintya Kumar Dutta   : EOM-CC, STEOM-CC
   Dmitry Ganyushin       : Spin-Orbit,Spin-Spin,Magnetic field MRCI
   Miquel Garcia          : C-PCM Hessian, Gaussian charge scheme
   Yang Guo               : DLPNO-NEVPT2, CIM, IAO-localization
   Andreas Hansen         : Spin unrestricted coupled pair/coupled cluster methods
   Benjamin Helmich-Paris : CASSCF linear response (MC-RPA)
   Lee Huntington         : MR-EOM, pCC
   Robert Izsak           : Overlap fitted RIJCOSX, COSX-SCS-MP3, EOM
   Christian Kollmar      : KDIIS, OOCD, Brueckner-CCSD(T), CCSD density
   Simone Kossmann        : Meta GGA functionals, TD-DFT gradient, OOMP2, MP2 Hessian
   Martin Krupicka        : AUTO-CI
   Lucas Lang             : DCDCAS
   Dagmar Lenk            : GEPOL surface, SMD
   Dimitrios Liakos       : Extrapolation schemes; Compound Job, initial MDCI parallelization
   Dimitrios Manganas     : Further ROCIS development; embedding schemes
   Dimitrios Pantazis     : SARC Basis sets
   Taras Petrenko         : DFT Hessian,TD-DFT gradient, ASA, ECA, R-Raman, ABS, FL, XAS/XES, NRVS
   Peter Pinski           : DLPNO-MP2, DLPNO-MP2 Gradient
   Christoph Reimann      : Effective Core Potentials
   Marius Retegan         : Local ZFS, SOC
   Christoph Riplinger    : Optimizer, TS searches, QM/MM, DLPNO-CCSD(T), (RO)-DLPNO pert. Triples
   Tobias Risthaus        : Range-separated hybrids, TD-DFT gradient, RPA, STAB
   Michael Roemelt        : Original ROCIS implementation
   Masaaki Saitow         : Open-shell DLPNO-CCSD energy and density
   Barbara Sandhoefer     : DKH picture change effects
   Avijit Sen             : IP-ROCIS
   Kantharuban Sivalingam : CASSCF convergence, NEVPT2, FIC-MRCI
   Bernardo de Souza      : ESD, SOC TD-DFT
   Georgi Stoychev        : AutoAux, RI-MP2 NMR
   Willem Van den Heuvel  : Paramagnetic NMR
   Boris Wezisla          : Elementary symmetry handling
   Frank Wennmohs         : Technical directorship


 We gratefully acknowledge several colleagues who have allowed us to
 interface, adapt or use parts of their codes:
   Stefan Grimme, W. Hujo, H. Kruse,             : VdW corrections, initial TS optimization,
                  C. Bannwarth                     DFT functionals, gCP, sTDA/sTD-DF
   Ed Valeev, F. Pavosevic, A. Kumar             : LibInt (2-el integral package), F12 methods
   Garnet Chan, S. Sharma, J. Yang, R. Olivares  : DMRG
   Ulf Ekstrom                                   : XCFun DFT Library
   Mihaly Kallay                                 : mrcc  (arbitrary order and MRCC methods)
   Andreas Klamt, Michael Diedenhofen            : otool_cosmo (COSMO solvation model)
   Jiri Pittner, Ondrej Demel                    : Mk-CCSD
   Frank Weinhold                                : gennbo (NPA and NBO analysis)
   Christopher J. Cramer and Donald G. Truhlar   : smd solvation model
   Lars Goerigk                                  : TD-DFT with DH, B97 family of functionals
   V. Asgeirsson, H. Jonsson                     : NEB implementation
   FAccTs GmbH                                   : IRC, NEB, NEB-TS, Multilevel, MM, QM/MM, CI optimization
   S Lehtola, MJT Oliveira, MAL Marques          : LibXC Library


 Your calculation uses the libint2 library for the computation of 2-el integrals
 For citations please refer to: http://libint.valeyev.net

 Your ORCA version has been built with support for libXC version: 4.2.3
 For citations please refer to: https://tddft.org/programs/libxc/

 This ORCA versions uses:
   CBLAS   interface :  Fast vector & matrix operations
   LAPACKE interface :  Fast linear algebra routines
   SCALAPACK package :  Parallel linear algebra routines




***************************************
The coordinates will be read from file: init.xyz
***************************************


Your calculation utilizes the SMD solvation module
Please cite in your paper:
A.V. Marenich, C.J. Cramer, D.G. Truhlar J. Phys. Chem. B, 113, (2009), 6378 

Your calculation utilizes the semiempirical GFN2-xTB method
Please cite in your paper:
C. Bannwarth, Ehlert S., S. Grimme,  J. Chem. Theory Comput., 15, (2019), 1652.
   

----- Orbital basis set information -----
Your calculation utilizes the basis: def2-SVP
   F. Weigend and R. Ahlrichs, Phys. Chem. Chem. Phys. 7, 3297 (2005).

================================================================================
                                        WARNINGS
                       Please study these warnings very carefully!
================================================================================


WARNING: The environment variable RSH_COMMAND is not set!
  ===> : All Displacements for the Numerical Hessian calculation
         will be started on localhost

WARNING: Geometry Optimization
  ===> : Switching off AutoStart
         For restart on a previous wavefunction, please use MOREAD

WARNING: Found dipole moment calculation with XTB calculation
  ===> : Switching off dipole moment calculation


INFO   : the flag for use of LIBINT has been found!

================================================================================
                                       INPUT FILE
================================================================================
NAME = optts+freq.inp
|  1> ! XTB2 OptTS NumFreq IRC
|  2> 
|  3> %geom
|  4>  ts_mode
|  5>   {B 9 21}
|  6>  end
|  7>  ts_active_atoms
|  8>   {0 9 10 15 17 21 23}
|  9>  end
| 10>  calc_hess true
| 11>  numhess true
| 12> end
| 13> 
| 14> %irc
| 15>  maxiter 1000
| 16>  de_init_displ 0.25
| 17>  TolMAXG 1e-3
| 18>  TolRMSG 2e-4
| 19> end
| 20> 
| 21> %cpcm
| 22>  smd true
| 23>  smdsolvent "ch2cl2"
| 24> end
| 25> 
| 26> %pal
| 27>  nprocs 12
| 28> end
| 29> 
| 30> *xyzfile 0 1 init.xyz
| 31> 
| 32>                          ****END OF INPUT****
================================================================================

                       *****************************
                       * Geometry Optimization Run *
                       *****************************

Geometry optimization settings:
Update method            Update   .... Bofill
Choice of coordinates    CoordSys .... Z-matrix Internals
Initial Hessian          InHess   .... Almoef's Model

Convergence Tolerances:
Energy Change            TolE     ....  5.0000e-06 Eh
Max. Gradient            TolMAXG  ....  3.0000e-04 Eh/bohr
RMS Gradient             TolRMSG  ....  1.0000e-04 Eh/bohr
Max. Displacement        TolMAXD  ....  4.0000e-03 bohr
RMS Displacement         TolRMSD  ....  2.0000e-03 bohr
Strict Convergence                ....  False
------------------------------------------------------------------------------
                        ORCA OPTIMIZATION COORDINATE SETUP
------------------------------------------------------------------------------

The optimization will be done in new redundant internal coordinates
Making redundant internal coordinates   ...  (new redundants) done
Following TS mode number                ...    internal coordinate number: 28
TS-active-atoms for coordinate setup... 0 9 10 15 17 21 23 
Evaluating the initial hessian          ...  (Is done on the fly) done
Evaluating the coordinates              ...  done
Calculating the B-matrix                .... done
Calculating the G-matrix                .... done
Diagonalizing the G-matrix              .... done
Small eigenvalue found = 3.320e-03
Small eigenvalue found = 5.737e-03
Small eigenvalue found = 1.201e-02
Small eigenvalue found = 1.779e-02
Small eigenvalue found = 2.706e-02
The first mode is                       ....  134
The number of degrees of freedom        ....  132

    -----------------------------------------------------------------
                    Redundant Internal Coordinates


    -----------------------------------------------------------------
         Definition                    Initial Value    d2E/dq (diagonal element)
    -----------------------------------------------------------------
      1. B(C   1,C   0)                  1.3907         0.000000   
      2. B(C   2,C   0)                  2.4243         0.000000   
      3. B(C   2,C   1)                  1.3966         0.000000   
      4. B(C   3,C   2)                  1.3907         0.000000   
      5. B(C   3,C   0)                  2.7762         0.000000   
      6. B(C   4,C   3)                  1.3926         0.000000   
      7. B(C   4,C   0)                  2.4055         0.000000   
      8. B(C   5,C   0)                  1.3933         0.000000   
      9. B(C   5,C   4)                  1.3913         0.000000   
     10. B(H   6,C   1)                  1.0848         0.000000   
     11. B(H   7,C   3)                  1.0815         0.000000   
     12. B(H   8,C   5)                  1.0824         0.000000   
     13. B(N   9,C   2)                  2.4723         0.000000   
     14. B(H  10,N   9)                  1.3753         0.000000   
     15. B(C  11,N   9)                  1.4720         0.000000   
     16. B(H  12,C  11)                  1.0944         0.000000   
     17. B(H  13,C  11)                  1.0914         0.000000   
     18. B(H  13,N   9)                  2.0647         0.000000   
     19. B(H  14,N   9)                  1.0150         0.000000   
     20. B(N  15,H  10)                  1.2304         0.000000   
     21. B(N  15,N   9)                  2.5646         0.000000   
     22. B(H  16,N  15)                  1.0156         0.000000   
     23. B(H  17,N  15)                  1.0402         0.000000   
     24. B(C  18,N  15)                  1.4748         0.000000   
     25. B(H  19,C  18)                  1.0896         0.000000   
     26. B(H  20,C  18)                  1.0920         0.000000   
     27. B(C  21,C   1)                  2.5664         0.000000   
     28. B(C  21,N   9)                  1.5762         0.000000   
     29. B(C  21,C   2)                  1.5414         0.000000   
     30. B(C  21,C  11)                  2.5441         0.000000   
     31. B(C  21,C   3)                  2.5368         0.000000   
     32. B(H  22,C  21)                  1.1118         0.000000   
     33. B(O  23,H  22)                  2.0454         0.000000   
     34. B(O  23,N  15)                  2.7179         0.000000   
     35. B(O  23,C   3)                  2.8155         0.000000   
     36. B(O  23,C  21)                  1.3226         0.000000   
     37. B(O  23,H  17)                  1.8658         0.000000   
     38. B(O  23,N   9)                  2.3842         0.000000   
     39. B(O  23,C   2)                  2.4338         0.000000   
     40. B(C  24,N  15)                  2.4738         0.000000   
     41. B(C  24,C  18)                  1.5220         0.000000   
     42. B(H  25,C  24)                  1.0949         0.000000   
     43. B(H  26,C  24)                  1.0942         0.000000   
     44. B(C  27,C  11)                  1.5263         0.000000   
     45. B(C  27,N   9)                  2.5228         0.000000   
     46. B(H  28,C  27)                  1.0927         0.000000   
     47. B(H  29,C  27)                  1.0956         0.000000   
     48. B(H  30,C   4)                  1.0829         0.000000   
     49. B(H  31,C   0)                  1.0828         0.000000   
     50. B(C  32,C  24)                  1.5279         0.000000   
     51. B(H  33,H  30)                  4.9256         0.000000   
     52. B(H  33,C  32)                  1.0939         0.000000   
     53. B(H  34,C  32)                  1.0941         0.000000   
     54. B(C  35,C  27)                  1.5286         0.000000   
     55. B(H  36,C  35)                  1.0942         0.000000   
     56. B(H  37,C  35)                  1.0945         0.000000   
     57. B(C  38,C  32)                  1.5266         0.000000   
     58. B(H  39,C  38)                  1.0925         0.000000   
     59. B(H  40,C  38)                  1.0914         0.000000   
     60. B(H  41,C  38)                  1.0926         0.000000   
     61. B(C  42,C  35)                  1.5267         0.000000   
     62. B(H  43,C  42)                  1.0917         0.000000   
     63. B(H  44,C  42)                  1.0926         0.000000   
     64. B(H  45,C  42)                  1.0927         0.000000   
     65. A(C   1,C   0,C   5)          120.0225         0.000000   
     66. A(C   1,C   0,H  31)          119.9781         0.000000   
     67. A(C   5,C   0,H  31)          119.9985         0.000000   
     68. A(C   0,C   1,H   6)          119.4645         0.000000   
     69. A(C   0,C   1,C   2)          120.8613         0.000000   
     70. A(C   2,C   1,H   6)          119.6721         0.000000   
     71. A(C   1,C   2,C  21)          121.6593         0.000000   
     72. A(C   1,C   2,C   3)          118.6137         0.000000   
     73. A(C   3,C   2,C  21)          119.7128         0.000000   
     74. A(C   4,C   3,H   7)          121.4326         0.000000   
     75. A(C   2,C   3,C   4)          120.8740         0.000000   
     76. A(C   2,C   3,H   7)          117.6905         0.000000   
     77. A(C   5,C   4,H  30)          119.9637         0.000000   
     78. A(C   3,C   4,H  30)          119.9237         0.000000   
     79. A(C   3,C   4,C   5)          120.1121         0.000000   
     80. A(C   0,C   5,C   4)          119.5045         0.000000   
     81. A(C   4,C   5,H   8)          120.3155         0.000000   
     82. A(C   0,C   5,H   8)          120.1773         0.000000   
     83. A(H  10,N   9,C  21)           99.4725         0.000000   
     84. A(H  10,N   9,C  11)          107.4425         0.000000   
     85. A(C  11,N   9,H  14)          110.1587         0.000000   
     86. A(H  10,N   9,H  14)          114.6957         0.000000   
     87. A(H  14,N   9,C  21)          111.5946         0.000000   
     88. A(C  11,N   9,C  21)          113.1104         0.000000   
     89. A(N   9,H  10,N  15)          159.6054         0.000000   
     90. A(N   9,C  11,H  13)          106.3639         0.000000   
     91. A(H  13,C  11,C  27)          110.7016         0.000000   
     92. A(N   9,C  11,H  12)          108.4382         0.000000   
     93. A(H  12,C  11,C  27)          109.3688         0.000000   
     94. A(H  12,C  11,H  13)          107.1010         0.000000   
     95. A(N   9,C  11,C  27)          114.5682         0.000000   
     96. A(H  17,N  15,C  18)          114.4017         0.000000   
     97. A(H  16,N  15,C  18)          111.8675         0.000000   
     98. A(H  10,N  15,C  18)          115.1923         0.000000   
     99. A(H  16,N  15,H  17)          109.5170         0.000000   
    100. A(H  10,N  15,H  17)           92.3234         0.000000   
    101. A(H  10,N  15,H  16)          112.0698         0.000000   
    102. A(H  19,C  18,H  20)          107.5238         0.000000   
    103. A(N  15,C  18,H  20)          110.0229         0.000000   
    104. A(N  15,C  18,H  19)          107.1300         0.000000   
    105. A(H  20,C  18,C  24)          110.5434         0.000000   
    106. A(H  19,C  18,C  24)          110.2224         0.000000   
    107. A(N  15,C  18,C  24)          111.2713         0.000000   
    108. A(H  22,C  21,O  23)          114.0458         0.000000   
    109. A(C   2,C  21,O  23)          116.1717         0.000000   
    110. A(N   9,C  21,H  22)          104.2214         0.000000   
    111. A(C   2,C  21,H  22)          106.0653         0.000000   
    112. A(C   2,C  21,N   9)          104.9257         0.000000   
    113. A(N   9,C  21,O  23)          110.3665         0.000000   
    114. A(H  26,C  24,C  32)          109.6269         0.000000   
    115. A(H  25,C  24,C  32)          109.5920         0.000000   
    116. A(C  18,C  24,C  32)          112.5130         0.000000   
    117. A(H  25,C  24,H  26)          106.6804         0.000000   
    118. A(C  18,C  24,H  26)          108.9651         0.000000   
    119. A(C  18,C  24,H  25)          109.2908         0.000000   
    120. A(H  28,C  27,C  35)          109.3656         0.000000   
    121. A(C  11,C  27,C  35)          112.5093         0.000000   
    122. A(H  28,C  27,H  29)          106.6085         0.000000   
    123. A(C  11,C  27,H  29)          108.9940         0.000000   
    124. A(C  11,C  27,H  28)          109.6722         0.000000   
    125. A(H  29,C  27,C  35)          109.5165         0.000000   
    126. A(H  33,C  32,H  34)          106.3609         0.000000   
    127. A(C  24,C  32,H  34)          109.2533         0.000000   
    128. A(C  24,C  32,H  33)          109.1063         0.000000   
    129. A(H  34,C  32,C  38)          109.5508         0.000000   
    130. A(H  33,C  32,C  38)          109.5477         0.000000   
    131. A(C  24,C  32,C  38)          112.8147         0.000000   
    132. A(H  36,C  35,C  42)          109.5068         0.000000   
    133. A(C  27,C  35,C  42)          112.9666         0.000000   
    134. A(H  37,C  35,C  42)          109.4936         0.000000   
    135. A(H  36,C  35,H  37)          106.2787         0.000000   
    136. A(C  27,C  35,H  37)          109.3126         0.000000   
    137. A(C  27,C  35,H  36)          109.0615         0.000000   
    138. A(H  40,C  38,H  41)          107.7213         0.000000   
    139. A(H  39,C  38,H  41)          107.6319         0.000000   
    140. A(C  32,C  38,H  41)          111.1241         0.000000   
    141. A(H  39,C  38,H  40)          107.7303         0.000000   
    142. A(C  32,C  38,H  40)          111.3766         0.000000   
    143. A(C  32,C  38,H  39)          111.0820         0.000000   
    144. A(H  44,C  42,H  45)          107.5651         0.000000   
    145. A(H  43,C  42,H  45)          107.7269         0.000000   
    146. A(C  35,C  42,H  45)          111.1564         0.000000   
    147. A(H  43,C  42,H  44)          107.7203         0.000000   
    148. A(C  35,C  42,H  44)          111.0705         0.000000   
    149. A(C  35,C  42,H  43)          111.4224         0.000000   
    150. D(C   2,C   1,C   0,C   5)     -0.4195         0.000000   
    151. D(C   2,C   1,C   0,H  31)    179.9294         0.000000   
    152. D(H   6,C   1,C   0,H  31)     -0.5984         0.000000   
    153. D(H   6,C   1,C   0,C   5)    179.0527         0.000000   
    154. D(C   3,C   2,C   1,C   0)      1.1905         0.000000   
    155. D(C  21,C   2,C   1,H   6)      0.3430         0.000000   
    156. D(C   3,C   2,C   1,H   6)   -178.2807         0.000000   
    157. D(C  21,C   2,C   1,C   0)    179.8141         0.000000   
    158. D(H   7,C   3,C   2,C  21)     -0.4071         0.000000   
    159. D(C   4,C   3,C   2,C  21)   -179.7930         0.000000   
    160. D(H   7,C   3,C   2,C   1)    178.2440         0.000000   
    161. D(C   4,C   3,C   2,C   1)     -1.1419         0.000000   
    162. D(H  30,C   4,C   3,C   2)   -179.9427         0.000000   
    163. D(C   5,C   4,C   3,H   7)   -179.0387         0.000000   
    164. D(C   5,C   4,C   3,C   2)      0.3240         0.000000   
    165. D(H  30,C   4,C   3,H   7)      0.6945         0.000000   
    166. D(C   0,C   5,C   4,H  30)   -179.2652         0.000000   
    167. D(H   8,C   5,C   4,H  30)      0.1294         0.000000   
    168. D(H   8,C   5,C   0,C   1)   -179.8149         0.000000   
    169. D(C   4,C   5,C   0,C   1)     -0.4193         0.000000   
    170. D(H   8,C   5,C   4,C   3)    179.8626         0.000000   
    171. D(C   0,C   5,C   4,C   3)      0.4679         0.000000   
    172. D(C   4,C   5,C   0,H  31)    179.2318         0.000000   
    173. D(H   8,C   5,C   0,H  31)     -0.1638         0.000000   
    174. D(N  15,H  10,N   9,H  14)    146.9474         0.000000   
    175. D(N  15,H  10,N   9,C  11)    -90.2272         0.000000   
    176. D(N  15,H  10,N   9,C  21)     27.7768         0.000000   
    177. D(H  12,C  11,N   9,H  10)    -47.1545         0.000000   
    178. D(H  12,C  11,N   9,C  21)   -155.9166         0.000000   
    179. D(H  12,C  11,N   9,H  14)     78.4269         0.000000   
    180. D(H  13,C  11,N   9,H  10)     67.7402         0.000000   
    181. D(C  27,C  11,N   9,C  21)     81.6166         0.000000   
    182. D(C  27,C  11,N   9,H  14)    -44.0399         0.000000   
    183. D(C  27,C  11,N   9,H  10)   -169.6213         0.000000   
    184. D(H  13,C  11,N   9,C  21)    -41.0219         0.000000   
    185. D(H  13,C  11,N   9,H  14)   -166.6784         0.000000   
    186. D(C  18,N  15,H  10,N   9)   -126.3811         0.000000   
    187. D(H  17,N  15,H  10,N   9)     -7.9554         0.000000   
    188. D(H  16,N  15,H  10,N   9)    104.2079         0.000000   
    189. D(C  24,C  18,N  15,H  17)   -171.6162         0.000000   
    190. D(C  24,C  18,N  15,H  10)    -66.3921         0.000000   
    191. D(H  20,C  18,N  15,H  17)     65.5182         0.000000   
    192. D(H  20,C  18,N  15,H  16)    -59.7475         0.000000   
    193. D(H  20,C  18,N  15,H  10)    170.7424         0.000000   
    194. D(H  19,C  18,N  15,H  17)    -51.0760         0.000000   
    195. D(C  24,C  18,N  15,H  16)     63.1181         0.000000   
    196. D(H  19,C  18,N  15,H  16)   -176.3417         0.000000   
    197. D(H  19,C  18,N  15,H  10)     54.1482         0.000000   
    198. D(O  23,C  21,N   9,C  11)     71.7231         0.000000   
    199. D(O  23,C  21,N   9,H  10)    -41.9557         0.000000   
    200. D(H  22,C  21,N   9,H  14)     73.7538         0.000000   
    201. D(C   2,C  21,N   9,H  14)    -37.5311         0.000000   
    202. D(H  22,C  21,N   9,H  10)   -164.8072         0.000000   
    203. D(C   2,C  21,N   9,C  11)   -162.4133         0.000000   
    204. D(C   2,C  21,N   9,H  10)     83.9079         0.000000   
    205. D(O  23,C  21,C   2,C   3)      4.1876         0.000000   
    206. D(O  23,C  21,C   2,C   1)   -174.4212         0.000000   
    207. D(H  22,C  21,N   9,C  11)    -51.1283         0.000000   
    208. D(H  22,C  21,C   2,C   3)    132.0663         0.000000   
    209. D(H  22,C  21,C   2,C   1)    -46.5425         0.000000   
    210. D(N   9,C  21,C   2,C   3)   -117.9748         0.000000   
    211. D(O  23,C  21,N   9,H  14)   -163.3947         0.000000   
    212. D(N   9,C  21,C   2,C   1)     63.4164         0.000000   
    213. D(C  32,C  24,C  18,H  20)    -59.0538         0.000000   
    214. D(C  32,C  24,C  18,N  15)    178.3801         0.000000   
    215. D(H  26,C  24,C  18,H  20)    179.1494         0.000000   
    216. D(H  26,C  24,C  18,H  19)    -62.1182         0.000000   
    217. D(H  26,C  24,C  18,N  15)     56.5833         0.000000   
    218. D(H  25,C  24,C  18,H  20)     62.9279         0.000000   
    219. D(C  32,C  24,C  18,H  19)     59.6786         0.000000   
    220. D(H  25,C  24,C  18,H  19)   -178.3397         0.000000   
    221. D(H  25,C  24,C  18,N  15)    -59.6382         0.000000   
    222. D(C  35,C  27,C  11,H  13)    -59.4408         0.000000   
    223. D(C  35,C  27,C  11,H  12)     58.3381         0.000000   
    224. D(C  35,C  27,C  11,N   9)   -179.7009         0.000000   
    225. D(H  29,C  27,C  11,H  13)    178.8847         0.000000   
    226. D(H  29,C  27,C  11,H  12)    -63.3364         0.000000   
    227. D(H  29,C  27,C  11,N   9)     58.6246         0.000000   
    228. D(H  28,C  27,C  11,H  13)     62.5200         0.000000   
    229. D(H  28,C  27,C  11,H  12)   -179.7011         0.000000   
    230. D(H  28,C  27,C  11,N   9)    -57.7400         0.000000   
    231. D(C  38,C  32,C  24,H  26)    -58.8538         0.000000   
    232. D(C  38,C  32,C  24,H  25)     57.9151         0.000000   
    233. D(C  38,C  32,C  24,C  18)    179.7260         0.000000   
    234. D(H  34,C  32,C  24,H  26)    179.0405         0.000000   
    235. D(H  34,C  32,C  24,H  25)    -64.1905         0.000000   
    236. D(H  34,C  32,C  24,C  18)     57.6203         0.000000   
    237. D(H  33,C  32,C  24,H  26)     63.1430         0.000000   
    238. D(H  33,C  32,C  24,H  25)    179.9120         0.000000   
    239. D(H  33,C  32,C  24,C  18)    -58.2772         0.000000   
    240. D(C  42,C  35,C  27,H  29)    -58.5282         0.000000   
    241. D(C  42,C  35,C  27,H  28)     57.9603         0.000000   
    242. D(C  42,C  35,C  27,C  11)   -179.9052         0.000000   
    243. D(H  37,C  35,C  27,H  29)     63.6500         0.000000   
    244. D(H  37,C  35,C  27,H  28)   -179.8615         0.000000   
    245. D(H  37,C  35,C  27,C  11)    -57.7270         0.000000   
    246. D(H  36,C  35,C  27,H  29)    179.4571         0.000000   
    247. D(H  36,C  35,C  27,H  28)    -64.0544         0.000000   
    248. D(H  36,C  35,C  27,C  11)     58.0801         0.000000   
    249. D(H  41,C  38,C  32,H  34)     61.7563         0.000000   
    250. D(H  41,C  38,C  32,C  24)    -60.1819         0.000000   
    251. D(H  40,C  38,C  32,H  34)    -58.3529         0.000000   
    252. D(H  40,C  38,C  32,H  33)     57.9612         0.000000   
    253. D(H  40,C  38,C  32,C  24)    179.7090         0.000000   
    254. D(H  39,C  38,C  32,H  34)   -178.4449         0.000000   
    255. D(H  41,C  38,C  32,H  33)    178.0703         0.000000   
    256. D(H  39,C  38,C  32,H  33)    -62.1309         0.000000   
    257. D(H  39,C  38,C  32,C  24)     59.6169         0.000000   
    258. D(H  45,C  42,C  35,H  37)    -62.1689         0.000000   
    259. D(H  45,C  42,C  35,H  36)   -178.3280         0.000000   
    260. D(H  45,C  42,C  35,C  27)     59.9078         0.000000   
    261. D(H  44,C  42,C  35,H  37)    178.1027         0.000000   
    262. D(H  44,C  42,C  35,H  36)     61.9436         0.000000   
    263. D(H  44,C  42,C  35,C  27)    -59.8207         0.000000   
    264. D(H  43,C  42,C  35,H  37)     58.0002         0.000000   
    265. D(H  43,C  42,C  35,H  36)    -58.1589         0.000000   
    266. D(H  43,C  42,C  35,C  27)   -179.9231         0.000000   
    -----------------------------------------------------------------

Number of atoms                         .... 46
Number of degrees of freedom            .... 266

         *************************************************************
         *                GEOMETRY OPTIMIZATION CYCLE   1            *
         *************************************************************
      -----------------------------------------------------------      
     |                   =====================                   |     
     |                           x T B                           |     
     |                   =====================                   |     
     |                         S. Grimme                         |     
     |          Mulliken Center for Theoretical Chemistry        |     
     |                    University of Bonn                     |     
      -----------------------------------------------------------      

   * xtb version 6.3.0 (49875a8) compiled by 'schneider@apollo14' on 2020-05-23

   xtb is free software: you can redistribute it and/or modify it under
   the terms of the GNU Lesser General Public License as published by
   the Free Software Foundation, either version 3 of the License, or
   (at your option) any later version.
   
   xtb is distributed in the hope that it will be useful,
   but WITHOUT ANY WARRANTY; without even the implied warranty of
   MERCHANTABILITY or FITNESS FOR A PARTICULAR PURPOSE.  See the
   GNU Lesser General Public License for more details.
   
   Cite this work as:
   * S. Grimme, C. Bannwarth, P. Shushkov, J. Chem. Theory Comput., 2017,
     13, 1989-2009. DOI: 10.1021/acs.jctc.7b00118
   * C. Bannwarth, S. Ehlert and S. Grimme., J. Chem. Theory Comput., 2019,
     15, 1652-1671. DOI: 10.1021/acs.jctc.8b01176
   * P. Pracht, E. Caldeweyher, S. Ehlert, S. Grimme, ChemRxiv, 2019, preprint.
     DOI: 10.26434/chemrxiv.8326202.v1
   
   for GFN-FF:
   * S. Spicher and S. Grimme, Angew. Chem. Int. Ed., 2020,
     DOI: 10.1002/anie.202004239
   
   for DFT-D4:
   * E. Caldeweyher, C. Bannwarth and S. Grimme, J. Chem. Phys., 2017,
     147, 034112. DOI: 10.1063/1.4993215
   * E. Caldeweyher, S. Ehlert, A. Hansen, H. Neugebauer, S. Spicher,
     C. Bannwarth and S. Grimme, J. Chem. Phys., 2019, 150, 154122.
     DOI: 10.1063/1.5090222
   
   for sTDA-xTB:
   * S. Grimme and C. Bannwarth, J. Chem. Phys., 2016, 145, 054103.
     DOI: 10.1063/1.4959605
   
   in the mass-spec context:
   * V. Asgeirsson, C. Bauer and S. Grimme, Chem. Sci., 2017, 8, 4879.
     DOI: 10.1039/c7sc00601b
   * J. Koopman and S. Grimme, ACS Omega 2019, 4, 12, 15120-15133.
     DOI: 10.1021/acsomega.9b02011
   
   for metadynamics refer to:
   * S. Grimme, J. Chem. Theory Comput., 2019, 155, 2847-2862
     DOI: 10.1021/acs.jctc.9b00143
   
   with help from (in alphabetical order)
   C. Bannwarth, F. Bohle, G. Brandenburg, E. Caldeweyher, M. Checinski,
   S. Dohm, S. Ehlert, S. Ehrlich, F. März, H. Neugebauer, J. Pisarek,
   P. Pracht, P. Shushkov, and S. Spicher.
   
 * started run on 2020/06/19 at 19:17:21.889     

           -------------------------------------------------
          |                Calculation Setup                |
           -------------------------------------------------

          program call               : /opt/orca/otool_xtb optts+freq_XTB.xyz --grad -c 0 -u 0 -P 12 --namespace optts+freq --gbsa CH2Cl2
          calculation namespace      : optts+freq
          coordinate file            : optts+freq_XTB.xyz
          number of atoms            :                    46
          number of electrons        :                   104
          charge                     :                     0
          spin                       :                   0.0
          first test random number   :      0.36015274357690

   ID    Z sym.   atoms
    1    6 C      1-6, 12, 19, 22, 25, 28, 33, 36, 39, 43
    2    1 H      7-9, 11, 13-15, 17, 18, 20, 21, 23, 26, 27, 29-32, 34, 35,
                  37, 38, 40-42, 44-46
    3    7 N      10, 16
    4    8 O      24

molecular fragmentation (1/2 indicates fragments):
1111111111211112222221112221111122211122221111
# atoms in fragment 1/2:    29    17
 fragment masses (1/2) :      178.25       74.14
CMA distance (Bohr)    :   9.149
constraining FC (au)   :  0.0500
########################################################################
[WARNING] Please study the warnings concerning your input carefully
-1- prog_main_parseArguments: Process number higher than OMP_NUM_THREADS, I hope you know what you are doing.
########################################################################
 Solvent             : CH2Cl2
 Using internal parameter file: .param_gbsa2_CH2Cl2
 Gsolv ref. state (COSMO-RS): gsolv [1 M gas/solution]
 temperature (mdtemp)       :    298.14999999999998     
 dielectric constant        :    8.9299999999999997     
 rho                        :    1.3300000000000003     
 mass                       :    84.930000000000007     
 surface tension            :    15.568945408385856     
 probe radius               :   0.71987590000000001     
 Gshift (Eh)                :    4.4408291734517593E-003
 c1                         :    1.4917377599999999     
 soset                      :    0.0000000000000000     
 HB correction              :  F

           -------------------------------------------------
          |                 G F N 2 - x T B                 |
           -------------------------------------------------

        Reference                      10.1021/acs.jctc.8b01176
      * Hamiltonian:
        H0-scaling (s, p, d)           1.850000    2.230000    2.230000
        zeta-weighting                 0.500000
      * Dispersion:
        s8                             2.700000
        a1                             0.520000
        a2                             5.000000
        s9                             5.000000
      * Repulsion:
        kExp                           1.500000    1.000000
        rExp                           1.000000
      * Coulomb:
        alpha                          2.000000
        third order                    shell-resolved
        anisotropic                    true
        a3                             3.000000
        a5                             4.000000
        cn-shift                       1.200000
        cn-exp                         4.000000
        max-rad                        5.000000


          ...................................................
          :                      SETUP                      :
          :.................................................:
          :  # basis functions                 100          :
          :  # atomic orbitals                 100          :
          :  # shells                           64          :
          :  # electrons                       104          :
          :  max. iterations                   250          :
          :  Hamiltonian                  GFN2-xTB          :
          :  restarted?                      false          :
          :  GBSA solvation                   true          :
          :  PC potential                    false          :
          :  electronic temp.          300.0000000     K    :
          :  accuracy                    1.0000000          :
          :  -> integral cutoff          0.2500000E+02      :
          :  -> integral neglect         0.1000000E-07      :
          :  -> SCF convergence          0.1000000E-05 Eh   :
          :  -> wf. convergence          0.1000000E-03 e    :
          :  Broyden damping             0.4000000          :
          ...................................................

 iter      E             dE          RMSdq      gap      omega  full diag
   1    -56.8980526 -0.568981E+02  0.349E+00    3.71       0.0  T
   2    -57.0309656 -0.132913E+00  0.189E+00    3.41       1.0  T
   3    -57.0358511 -0.488555E-02  0.858E-01    2.66       1.0  T
   4    -57.0355697  0.281440E-03  0.355E-01    2.55       1.0  T
   5    -57.0399293 -0.435960E-02  0.844E-02    2.68       1.0  T
   6    -57.0399906 -0.612755E-04  0.403E-02    2.72       1.0  T
   7    -57.0400045 -0.139738E-04  0.166E-02    2.73       1.0  T
   8    -57.0400069 -0.239145E-05  0.652E-03    2.73       2.3  T
   9    -57.0400076 -0.647573E-06  0.293E-03    2.73       5.0  T
  10    -57.0400076 -0.502053E-07  0.125E-03    2.73      11.8  T
  11    -57.0400076 -0.813724E-08  0.617E-04    2.73      23.9  T
  12    -57.0400076 -0.530863E-08  0.167E-04    2.73      88.3  T

   *** convergence criteria satisfied after 12 iterations ***

         #    Occupation            Energy/Eh            Energy/eV
      -------------------------------------------------------------
         1        2.0000           -0.6738275             -18.3358
       ...           ...                  ...                  ...
        46        2.0000           -0.4259899             -11.5918
        47        2.0000           -0.4199031             -11.4261
        48        2.0000           -0.4047394             -11.0135
        49        2.0000           -0.4022605             -10.9461
        50        2.0000           -0.3945986             -10.7376
        51        2.0000           -0.3412596              -9.2861
        52        2.0000           -0.3270700              -8.9000 (HOMO)
        53                         -0.2267271              -6.1696 (LUMO)
        54                         -0.2243993              -6.1062
        55                         -0.1029677              -2.8019
        56                         -0.0535138              -1.4562
        57                         -0.0257582              -0.7009
       ...                                ...                  ...
       100                          0.6418586              17.4659
      -------------------------------------------------------------
                  HL-Gap            0.1003429 Eh            2.7305 eV
             Fermi-level           -0.2768986 Eh           -7.5348 eV

 SCC (total)                   0 d,  0 h,  0 min,  0.148 sec
 SCC setup                      ...        0 min,  0.002 sec (  1.542%)
 Dispersion                     ...        0 min,  0.001 sec (  0.535%)
 classical contributions        ...        0 min,  0.000 sec (  0.173%)
 integral evaluation            ...        0 min,  0.027 sec ( 18.537%)
 iterations                     ...        0 min,  0.064 sec ( 43.208%)
 molecular gradient             ...        0 min,  0.051 sec ( 34.371%)
 printout                       ...        0 min,  0.002 sec (  1.620%)

         :::::::::::::::::::::::::::::::::::::::::::::::::::::
         ::                     SUMMARY                     ::
         :::::::::::::::::::::::::::::::::::::::::::::::::::::
         :: total energy             -56.276743549359 Eh    ::
         :: total w/o Gsasa/hb       -56.254138701428 Eh    ::
         :: gradient norm              0.035295882486 Eh/a0 ::
         :: HOMO-LUMO gap              2.730470085956 eV    ::
         ::.................................................::
         :: SCC energy               -57.062612479947 Eh    ::
         :: -> isotropic ES            0.119244530129 Eh    ::
         :: -> anisotropic ES          0.002248558095 Eh    ::
         :: -> anisotropic XC          0.029843875316 Eh    ::
         :: -> dispersion             -0.038206427738 Eh    ::
         :: -> Gsolv                  -0.041865470099 Eh    ::
         ::    -> Gborn               -0.019260622168 Eh    ::
         ::    -> Gsasa               -0.027045677105 Eh    ::
         ::    -> Ghb                  0.000000000000 Eh    ::
         ::    -> Gshift               0.004440829173 Eh    ::
         :: repulsion energy           0.785315113499 Eh    ::
         :: add. restraining           0.000000000000 Eh    ::
         :::::::::::::::::::::::::::::::::::::::::::::::::::::

           -------------------------------------------------
          |                Property Printout                |
           -------------------------------------------------

    * Orbital Energies and Occupations

         #    Occupation            Energy/Eh            Energy/eV
      -------------------------------------------------------------
         1        2.0000           -0.6738275             -18.3358
       ...           ...                  ...                  ...
        40        2.0000           -0.4503592             -12.2549
        41        2.0000           -0.4461428             -12.1402
        42        2.0000           -0.4426047             -12.0439
        43        2.0000           -0.4424992             -12.0410
        44        2.0000           -0.4301064             -11.7038
        45        2.0000           -0.4294103             -11.6848
        46        2.0000           -0.4259899             -11.5918
        47        2.0000           -0.4199031             -11.4261
        48        2.0000           -0.4047394             -11.0135
        49        2.0000           -0.4022605             -10.9461
        50        2.0000           -0.3945986             -10.7376
        51        2.0000           -0.3412596              -9.2861
        52        2.0000           -0.3270700              -8.9000 (HOMO)
        53                         -0.2267271              -6.1696 (LUMO)
        54                         -0.2243993              -6.1062
        55                         -0.1029677              -2.8019
        56                         -0.0535138              -1.4562
        57                         -0.0257582              -0.7009
        58                          0.0291428               0.7930
        59                          0.0480634               1.3079
        60                          0.0738133               2.0086
        61                          0.0864790               2.3532
        62                          0.0923025               2.5117
        63                          0.1011851               2.7534
       ...                                ...                  ...
       100                          0.6418586              17.4659
      -------------------------------------------------------------
                  HL-Gap            0.1003429 Eh            2.7305 eV
             Fermi-level           -0.2768986 Eh           -7.5348 eV

     #   Z        covCN         q      C6AA      α(0)
     1   6 C      2.913    -0.035    28.862     8.809
     2   6 C      2.919    -0.045    29.124     8.850
     3   6 C      2.961    -0.031    28.771     8.798
     4   6 C      2.920    -0.034    28.850     8.808
     5   6 C      2.914    -0.035    28.883     8.813
     6   6 C      2.914    -0.036    28.886     8.813
     7   1 H      0.925     0.016     2.801     2.617
     8   1 H      0.925     0.036     2.508     2.476
     9   1 H      0.925     0.036     2.509     2.477
    10   7 N      3.086    -0.273    27.054     7.725
    11   1 H      1.172     0.254     0.858     1.446
    12   6 C      3.733     0.004    20.596     6.477
    13   1 H      0.924     0.039     2.465     2.455
    14   1 H      0.924     0.052     2.294     2.369
    15   1 H      0.860     0.158     1.348     1.819
    16   7 N      3.372    -0.240    26.262     7.611
    17   1 H      0.860     0.202     1.096     1.640
    18   1 H      0.858     0.246     0.899     1.486
    19   6 C      3.732    -0.008    20.805     6.510
    20   1 H      0.925     0.065     2.144     2.290
    21   1 H      0.924     0.064     2.151     2.294
    22   6 C      3.645     0.212    17.566     6.024
    23   1 H      0.921    -0.054     4.182     3.198
    24   8 O      0.855    -0.750    30.099     7.356
    25   6 C      3.802    -0.073    21.904     6.663
    26   1 H      0.924     0.053     2.277     2.360
    27   1 H      0.924     0.048     2.351     2.398
    28   6 C      3.800    -0.061    21.669     6.628
    29   1 H      0.924     0.031     2.575     2.509
    30   1 H      0.924     0.034     2.529     2.487
    31   1 H      0.925     0.034     2.524     2.484
    32   1 H      0.925     0.033     2.542     2.493
    33   6 C      3.800    -0.057    21.593     6.616
    34   1 H      0.924     0.038     2.473     2.459
    35   1 H      0.924     0.042     2.428     2.437
    36   6 C      3.800    -0.055    21.560     6.611
    37   1 H      0.924     0.033     2.549     2.497
    38   1 H      0.924     0.037     2.489     2.467
    39   6 C      3.750    -0.106    22.598     6.780
    40   1 H      0.924     0.038     2.472     2.459
    41   1 H      0.924     0.040     2.446     2.446
    42   1 H      0.924     0.040     2.445     2.445
    43   6 C      3.749    -0.102    22.521     6.768
    44   1 H      0.924     0.040     2.451     2.448
    45   1 H      0.924     0.034     2.533     2.489
    46   1 H      0.924     0.038     2.482     2.464

 Mol. C6AA /au·bohr⁶  :      17259.666420
 Mol. C8AA /au·bohr⁸  :     377891.608661
 Mol. α(0) /au        :        200.570306


Wiberg/Mayer (AO) data.
largest (>0.10) Wiberg bond orders for each atom
          total WBO             WBO to atom ...
     1  C   3.991        C    2 1.451    C    6 1.430    H   32 0.971    C    4 0.109
     2  C   3.991        C    1 1.451    C    3 1.406    H    7 0.968    C    5 0.112
     3  C   3.980        C    4 1.423    C    2 1.406    C   22 0.944    C    6 0.110
     4  C   3.991        C    5 1.435    C    3 1.423    H    8 0.965    C    1 0.109
     5  C   3.991        C    6 1.444    C    4 1.435    H   31 0.971    C    2 0.112
     6  C   3.991        C    5 1.444    C    1 1.430    H    9 0.971    C    3 0.110
     7  H   1.000        C    2 0.968
     8  H   0.999        C    4 0.965
     9  H   0.998        C    6 0.971
    10  N   3.410        C   12 0.996    H   15 0.948    C   22 0.811    H   11 0.368    N   16 0.130
    11  H   0.936        N   16 0.543    N   10 0.368
    12  C   3.974        C   28 1.004    N   10 0.996    H   14 0.972    H   13 0.971
    13  H   0.998        C   12 0.971
    14  H   0.997        C   12 0.972
    15  H   0.975        N   10 0.948
    16  N   3.523        C   19 0.981    H   17 0.944    H   18 0.861    H   11 0.543    N   10 0.130
    17  H   0.959        N   16 0.944
    18  H   0.939        N   16 0.861
    19  C   3.951        C   25 1.007    N   16 0.981    H   21 0.971    H   20 0.970
    20  H   0.996        C   19 0.970
    21  H   0.996        C   19 0.971
    22  C   3.958        O   24 1.224    C    3 0.944    H   23 0.926    N   10 0.811
    23  H   0.997        C   22 0.926
    24  O   1.528        C   22 1.224
    25  C   3.992        C   19 1.007    C   33 1.005    H   27 0.975    H   26 0.974
    26  H   0.997        C   25 0.974
    27  H   0.998        C   25 0.975
    28  C   3.996        C   36 1.005    C   12 1.004    H   30 0.976    H   29 0.974
    29  H   0.999        C   28 0.974
    30  H   0.999        C   28 0.976
    31  H   0.998        C    5 0.971
    32  H   0.998        C    1 0.971
    33  C   3.995        C   39 1.020    C   25 1.005    H   34 0.978    H   35 0.977
    34  H   0.999        C   33 0.978
    35  H   0.998        C   33 0.977
    36  C   3.996        C   43 1.020    C   28 1.005    H   37 0.978    H   38 0.977
    37  H   0.999        C   36 0.978
    38  H   0.999        C   36 0.977
    39  C   3.995        C   33 1.020    H   40 0.987    H   42 0.987    H   41 0.987
    40  H   0.999        C   39 0.987
    41  H   0.998        C   39 0.987
    42  H   0.998        C   39 0.987
    43  C   3.996        C   36 1.020    H   45 0.988    H   46 0.987    H   44 0.987
    44  H   0.998        C   43 0.987
    45  H   0.999        C   43 0.988
    46  H   0.999        C   43 0.987
Topologies differ in total number of bonds
Writing topology from bond orders to xtbtopo.mol

molecular dipole:
                 x           y           z       tot (Debye)
 q only:       -1.038      -2.934      -1.655
   full:       -1.272      -2.549      -1.654       8.374
molecular quadrupole (traceless):
                xx          xy          yy          xz          yz          zz
 q only:       -1.757     -11.667      32.759     -21.842     -19.331     -31.002
  q+dip:       -0.677     -11.709      31.333     -23.064     -20.711     -30.656
   full:       -1.478     -10.621      32.354     -23.151     -18.909     -30.876


           -------------------------------------------------
          | TOTAL ENERGY              -56.276743549359 Eh   |
          | GRADIENT NORM               0.035295882486 Eh/α |
          | HOMO-LUMO GAP               2.730470085956 eV   |
           -------------------------------------------------

------------------------------------------------------------------------
 * finished run on 2020/06/19 at 19:17:22.091     
------------------------------------------------------------------------
 total:
 * wall-time:     0 d,  0 h,  0 min,  0.202 sec
 *  cpu-time:     0 d,  0 h,  0 min,  2.213 sec
 * ratio c/w:    10.949 speedup
 SCF:
 * wall-time:     0 d,  0 h,  0 min,  0.149 sec
 *  cpu-time:     0 d,  0 h,  0 min,  1.654 sec
 * ratio c/w:    11.123 speedup


-------------------------   --------------------
FINAL SINGLE POINT ENERGY       -56.276743549360
-------------------------   --------------------


----------------------------------------------------------------------------
                           ORCA NUMERICAL FREQUENCIES
                              (12-process run)
----------------------------------------------------------------------------

Number of atoms                ... 46
Central differences            ... used
Number of displacements        ... 276
Numerical increment            ... 5.000e-03 bohr
IR-spectrum generation         ... on
Raman-spectrum generation      ... off
Surface Crossing Hessian       ... off
List of participating nodes    ...  optts+freq.hostnames

The output will be reduced. Please look at the following files:
SCF program output             ... >optts+freq.lastscf
Integral program output        ... >optts+freq.lastint
Gradient program output        ... >optts+freq.lastgrad
Dipole moment program output   ... >optts+freq.lastmom
AutoCI program output          ... >optts+freq.lastautoci


         <<< Energy and Gradient at the input geometry >>>

        <<< Energy and Gradient at displaced geometries >>>
             <<<Displacing   1/coordinate 3 (+)>>>
             <<<Displacing   3/coordinate 3 (+)>>>
             <<<Displacing   4/coordinate 1 (+)>>>
             <<<Displacing   3/coordinate 2 (+)>>>
             <<<Displacing   2/coordinate 1 (+)>>>
             <<<Displacing   4/coordinate 3 (+)>>>
             <<<Displacing   1/coordinate 1 (+)>>>
             <<<Displacing   1/coordinate 2 (+)>>>
             <<<Displacing   2/coordinate 2 (+)>>>
             <<<Displacing   3/coordinate 1 (+)>>>
             <<<Displacing   4/coordinate 2 (+)>>>
             <<<Displacing   2/coordinate 3 (+)>>>
             <<<Displacing   3/coordinate 3 (-)>>>
             <<<Displacing   4/coordinate 3 (-)>>>
             <<<Displacing   1/coordinate 3 (-)>>>
             <<<Displacing   1/coordinate 1 (-)>>>
             <<<Displacing   4/coordinate 1 (-)>>>
             <<<Displacing   3/coordinate 2 (-)>>>
             <<<Displacing   2/coordinate 2 (-)>>>
             <<<Displacing   3/coordinate 1 (-)>>>
             <<<Displacing   2/coordinate 1 (-)>>>
             <<<Displacing   4/coordinate 2 (-)>>>
             <<<Displacing   1/coordinate 2 (-)>>>
             <<<Displacing   2/coordinate 3 (-)>>>
             <<<Displacing   5/coordinate 1 (+)>>>
             <<<Displacing   6/coordinate 1 (+)>>>
             <<<Displacing   5/coordinate 3 (+)>>>
             <<<Displacing   6/coordinate 3 (+)>>>
             <<<Displacing   7/coordinate 3 (+)>>>
             <<<Displacing   6/coordinate 2 (+)>>>
             <<<Displacing   7/coordinate 2 (+)>>>
             <<<Displacing   5/coordinate 1 (-)>>>
             <<<Displacing   8/coordinate 2 (+)>>>
             <<<Displacing   7/coordinate 1 (+)>>>
             <<<Displacing   5/coordinate 2 (+)>>>
             <<<Displacing   6/coordinate 1 (-)>>>
             <<<Displacing   8/coordinate 3 (+)>>>
             <<<Displacing   6/coordinate 3 (-)>>>
             <<<Displacing   5/coordinate 3 (-)>>>
             <<<Displacing   6/coordinate 2 (-)>>>
             <<<Displacing   7/coordinate 3 (-)>>>
             <<<Displacing   7/coordinate 2 (-)>>>
             <<<Displacing   8/coordinate 2 (-)>>>
             <<<Displacing   7/coordinate 1 (-)>>>
             <<<Displacing   5/coordinate 2 (-)>>>
             <<<Displacing   8/coordinate 3 (-)>>>
             <<<Displacing   8/coordinate 1 (+)>>>
             <<<Displacing   8/coordinate 1 (-)>>>
             <<<Displacing   9/coordinate 1 (+)>>>
             <<<Displacing   9/coordinate 2 (+)>>>
             <<<Displacing  10/coordinate 2 (+)>>>
             <<<Displacing  10/coordinate 3 (+)>>>
             <<<Displacing   9/coordinate 3 (+)>>>
             <<<Displacing  11/coordinate 2 (+)>>>
             <<<Displacing   9/coordinate 1 (-)>>>
             <<<Displacing  10/coordinate 2 (-)>>>
             <<<Displacing  11/coordinate 1 (+)>>>
             <<<Displacing   9/coordinate 2 (-)>>>
             <<<Displacing  10/coordinate 1 (+)>>>
             <<<Displacing  11/coordinate 2 (-)>>>
             <<<Displacing   9/coordinate 3 (-)>>>
             <<<Displacing  10/coordinate 3 (-)>>>
             <<<Displacing  11/coordinate 1 (-)>>>
             <<<Displacing  10/coordinate 1 (-)>>>
             <<<Displacing  12/coordinate 1 (+)>>>
             <<<Displacing  11/coordinate 3 (+)>>>
             <<<Displacing  12/coordinate 2 (+)>>>
             <<<Displacing  12/coordinate 1 (-)>>>
             <<<Displacing  11/coordinate 3 (-)>>>
             <<<Displacing  12/coordinate 2 (-)>>>
             <<<Displacing  12/coordinate 3 (+)>>>
             <<<Displacing  12/coordinate 3 (-)>>>
             <<<Displacing  13/coordinate 2 (+)>>>
             <<<Displacing  13/coordinate 3 (+)>>>
             <<<Displacing  14/coordinate 2 (+)>>>
             <<<Displacing  13/coordinate 3 (-)>>>
             <<<Displacing  14/coordinate 1 (+)>>>
             <<<Displacing  13/coordinate 2 (-)>>>
             <<<Displacing  14/coordinate 2 (-)>>>
             <<<Displacing  13/coordinate 1 (+)>>>
             <<<Displacing  14/coordinate 3 (+)>>>
             <<<Displacing  14/coordinate 1 (-)>>>
             <<<Displacing  13/coordinate 1 (-)>>>
             <<<Displacing  15/coordinate 3 (+)>>>
             <<<Displacing  15/coordinate 1 (+)>>>
             <<<Displacing  14/coordinate 3 (-)>>>
             <<<Displacing  15/coordinate 2 (+)>>>
             <<<Displacing  15/coordinate 1 (-)>>>
             <<<Displacing  16/coordinate 1 (+)>>>
             <<<Displacing  15/coordinate 3 (-)>>>
             <<<Displacing  16/coordinate 2 (+)>>>
             <<<Displacing  15/coordinate 2 (-)>>>
             <<<Displacing  16/coordinate 1 (-)>>>
             <<<Displacing  16/coordinate 2 (-)>>>
             <<<Displacing  16/coordinate 3 (+)>>>
             <<<Displacing  16/coordinate 3 (-)>>>
             <<<Displacing  17/coordinate 2 (+)>>>
             <<<Displacing  17/coordinate 3 (+)>>>
             <<<Displacing  17/coordinate 1 (+)>>>
             <<<Displacing  17/coordinate 3 (-)>>>
             <<<Displacing  17/coordinate 2 (-)>>>
             <<<Displacing  18/coordinate 2 (+)>>>
             <<<Displacing  18/coordinate 1 (+)>>>
             <<<Displacing  18/coordinate 2 (-)>>>
             <<<Displacing  17/coordinate 1 (-)>>>
             <<<Displacing  19/coordinate 3 (+)>>>
             <<<Displacing  19/coordinate 1 (+)>>>
             <<<Displacing  18/coordinate 1 (-)>>>
             <<<Displacing  20/coordinate 2 (+)>>>
             <<<Displacing  18/coordinate 3 (+)>>>
             <<<Displacing  19/coordinate 1 (-)>>>
             <<<Displacing  19/coordinate 2 (+)>>>
             <<<Displacing  19/coordinate 3 (-)>>>
             <<<Displacing  20/coordinate 1 (+)>>>
             <<<Displacing  18/coordinate 3 (-)>>>
             <<<Displacing  20/coordinate 2 (-)>>>
             <<<Displacing  19/coordinate 2 (-)>>>
             <<<Displacing  20/coordinate 1 (-)>>>
             <<<Displacing  20/coordinate 3 (+)>>>
             <<<Displacing  20/coordinate 3 (-)>>>
             <<<Displacing  21/coordinate 1 (+)>>>
             <<<Displacing  21/coordinate 3 (+)>>>
             <<<Displacing  22/coordinate 2 (+)>>>
             <<<Displacing  22/coordinate 1 (+)>>>
             <<<Displacing  21/coordinate 3 (-)>>>
             <<<Displacing  21/coordinate 2 (+)>>>
             <<<Displacing  21/coordinate 1 (-)>>>
             <<<Displacing  22/coordinate 2 (-)>>>
             <<<Displacing  22/coordinate 1 (-)>>>
             <<<Displacing  21/coordinate 2 (-)>>>
             <<<Displacing  23/coordinate 1 (+)>>>
             <<<Displacing  23/coordinate 2 (+)>>>
             <<<Displacing  22/coordinate 3 (+)>>>
             <<<Displacing  23/coordinate 1 (-)>>>
             <<<Displacing  24/coordinate 1 (+)>>>
             <<<Displacing  22/coordinate 3 (-)>>>
             <<<Displacing  23/coordinate 2 (-)>>>
             <<<Displacing  24/coordinate 2 (+)>>>
             <<<Displacing  24/coordinate 1 (-)>>>
             <<<Displacing  23/coordinate 3 (+)>>>
             <<<Displacing  24/coordinate 2 (-)>>>
             <<<Displacing  23/coordinate 3 (-)>>>
             <<<Displacing  24/coordinate 3 (+)>>>
             <<<Displacing  24/coordinate 3 (-)>>>
             <<<Displacing  25/coordinate 1 (+)>>>
             <<<Displacing  25/coordinate 3 (+)>>>
             <<<Displacing  25/coordinate 2 (+)>>>
             <<<Displacing  26/coordinate 2 (+)>>>
             <<<Displacing  25/coordinate 1 (-)>>>
             <<<Displacing  27/coordinate 2 (+)>>>
             <<<Displacing  26/coordinate 3 (+)>>>
             <<<Displacing  26/coordinate 1 (+)>>>
             <<<Displacing  25/coordinate 2 (-)>>>
             <<<Displacing  26/coordinate 2 (-)>>>
             <<<Displacing  25/coordinate 3 (-)>>>
             <<<Displacing  26/coordinate 3 (-)>>>
             <<<Displacing  26/coordinate 1 (-)>>>
             <<<Displacing  27/coordinate 2 (-)>>>
             <<<Displacing  27/coordinate 1 (+)>>>
             <<<Displacing  27/coordinate 3 (+)>>>
             <<<Displacing  27/coordinate 1 (-)>>>
             <<<Displacing  28/coordinate 1 (+)>>>
             <<<Displacing  27/coordinate 3 (-)>>>
             <<<Displacing  28/coordinate 1 (-)>>>
             <<<Displacing  28/coordinate 2 (+)>>>
             <<<Displacing  28/coordinate 2 (-)>>>
             <<<Displacing  28/coordinate 3 (+)>>>
             <<<Displacing  28/coordinate 3 (-)>>>
             <<<Displacing  29/coordinate 1 (+)>>>
             <<<Displacing  29/coordinate 1 (-)>>>
             <<<Displacing  29/coordinate 3 (+)>>>
             <<<Displacing  29/coordinate 2 (+)>>>
             <<<Displacing  29/coordinate 3 (-)>>>
             <<<Displacing  29/coordinate 2 (-)>>>
             <<<Displacing  30/coordinate 1 (+)>>>
             <<<Displacing  30/coordinate 2 (+)>>>
             <<<Displacing  31/coordinate 2 (+)>>>
             <<<Displacing  30/coordinate 2 (-)>>>
             <<<Displacing  30/coordinate 1 (-)>>>
             <<<Displacing  31/coordinate 2 (-)>>>
             <<<Displacing  31/coordinate 1 (+)>>>
             <<<Displacing  31/coordinate 1 (-)>>>
             <<<Displacing  30/coordinate 3 (+)>>>
             <<<Displacing  31/coordinate 3 (+)>>>
             <<<Displacing  30/coordinate 3 (-)>>>
             <<<Displacing  32/coordinate 1 (+)>>>
             <<<Displacing  31/coordinate 3 (-)>>>
             <<<Displacing  32/coordinate 1 (-)>>>
             <<<Displacing  32/coordinate 2 (+)>>>
             <<<Displacing  32/coordinate 2 (-)>>>
             <<<Displacing  32/coordinate 3 (+)>>>
             <<<Displacing  33/coordinate 1 (+)>>>
             <<<Displacing  33/coordinate 2 (+)>>>
             <<<Displacing  32/coordinate 3 (-)>>>
             <<<Displacing  33/coordinate 1 (-)>>>
             <<<Displacing  33/coordinate 2 (-)>>>
             <<<Displacing  34/coordinate 1 (+)>>>
             <<<Displacing  33/coordinate 3 (+)>>>
             <<<Displacing  34/coordinate 1 (-)>>>
             <<<Displacing  34/coordinate 2 (+)>>>
             <<<Displacing  33/coordinate 3 (-)>>>
             <<<Displacing  34/coordinate 3 (+)>>>
             <<<Displacing  34/coordinate 2 (-)>>>
             <<<Displacing  34/coordinate 3 (-)>>>
             <<<Displacing  35/coordinate 1 (+)>>>
             <<<Displacing  35/coordinate 1 (-)>>>
             <<<Displacing  35/coordinate 2 (+)>>>
             <<<Displacing  35/coordinate 3 (+)>>>
             <<<Displacing  36/coordinate 1 (+)>>>
             <<<Displacing  35/coordinate 2 (-)>>>
             <<<Displacing  35/coordinate 3 (-)>>>
             <<<Displacing  36/coordinate 1 (-)>>>
             <<<Displacing  36/coordinate 2 (+)>>>
             <<<Displacing  36/coordinate 2 (-)>>>
             <<<Displacing  36/coordinate 3 (+)>>>
             <<<Displacing  37/coordinate 1 (+)>>>
             <<<Displacing  36/coordinate 3 (-)>>>
             <<<Displacing  37/coordinate 3 (+)>>>
             <<<Displacing  37/coordinate 2 (+)>>>
             <<<Displacing  37/coordinate 1 (-)>>>
             <<<Displacing  37/coordinate 2 (-)>>>
             <<<Displacing  38/coordinate 2 (+)>>>
             <<<Displacing  37/coordinate 3 (-)>>>
             <<<Displacing  38/coordinate 2 (-)>>>
             <<<Displacing  38/coordinate 1 (+)>>>
             <<<Displacing  38/coordinate 3 (+)>>>
             <<<Displacing  39/coordinate 1 (+)>>>
             <<<Displacing  38/coordinate 1 (-)>>>
             <<<Displacing  38/coordinate 3 (-)>>>
             <<<Displacing  39/coordinate 1 (-)>>>
             <<<Displacing  39/coordinate 2 (+)>>>
             <<<Displacing  40/coordinate 1 (+)>>>
             <<<Displacing  39/coordinate 2 (-)>>>
             <<<Displacing  40/coordinate 1 (-)>>>
             <<<Displacing  39/coordinate 3 (+)>>>
             <<<Displacing  39/coordinate 3 (-)>>>
             <<<Displacing  40/coordinate 2 (+)>>>
             <<<Displacing  40/coordinate 2 (-)>>>
             <<<Displacing  40/coordinate 3 (+)>>>
             <<<Displacing  41/coordinate 3 (+)>>>
             <<<Displacing  41/coordinate 1 (+)>>>
             <<<Displacing  40/coordinate 3 (-)>>>
             <<<Displacing  42/coordinate 1 (+)>>>
             <<<Displacing  41/coordinate 2 (+)>>>
             <<<Displacing  41/coordinate 3 (-)>>>
             <<<Displacing  41/coordinate 1 (-)>>>
             <<<Displacing  41/coordinate 2 (-)>>>
             <<<Displacing  42/coordinate 1 (-)>>>
             <<<Displacing  42/coordinate 3 (+)>>>
             <<<Displacing  42/coordinate 2 (+)>>>
             <<<Displacing  42/coordinate 3 (-)>>>
             <<<Displacing  43/coordinate 1 (+)>>>
             <<<Displacing  42/coordinate 2 (-)>>>
             <<<Displacing  43/coordinate 3 (+)>>>
             <<<Displacing  43/coordinate 1 (-)>>>
             <<<Displacing  43/coordinate 3 (-)>>>
             <<<Displacing  43/coordinate 2 (+)>>>
             <<<Displacing  43/coordinate 2 (-)>>>
             <<<Displacing  44/coordinate 1 (+)>>>
             <<<Displacing  44/coordinate 1 (-)>>>
             <<<Displacing  44/coordinate 2 (+)>>>
             <<<Displacing  44/coordinate 2 (-)>>>
             <<<Displacing  44/coordinate 3 (+)>>>
             <<<Displacing  45/coordinate 2 (+)>>>
             <<<Displacing  44/coordinate 3 (-)>>>
             <<<Displacing  45/coordinate 3 (+)>>>
             <<<Displacing  45/coordinate 2 (-)>>>
             <<<Displacing  45/coordinate 1 (+)>>>
             <<<Displacing  45/coordinate 3 (-)>>>
             <<<Displacing  45/coordinate 1 (-)>>>
             <<<Displacing  46/coordinate 1 (+)>>>
             <<<Displacing  46/coordinate 1 (-)>>>
             <<<Displacing  46/coordinate 2 (+)>>>
             <<<Displacing  46/coordinate 2 (-)>>>
             <<<Displacing  46/coordinate 3 (+)>>>
             <<<Displacing  46/coordinate 3 (-)>>>

-----------------------
VIBRATIONAL FREQUENCIES
-----------------------

Scaling factor for frequencies =  1.000000000 (already applied!)

   0:         0.00 cm**-1
   1:         0.00 cm**-1
   2:         0.00 cm**-1
   3:         0.00 cm**-1
   4:         0.00 cm**-1
   5:         0.00 cm**-1
   6:      -815.25 cm**-1 ***imaginary mode***
   7:        28.00 cm**-1
   8:        31.90 cm**-1
   9:        44.60 cm**-1
  10:        51.68 cm**-1
  11:        75.27 cm**-1
  12:        80.66 cm**-1
  13:        86.57 cm**-1
  14:        91.30 cm**-1
  15:       111.44 cm**-1
  16:       120.51 cm**-1
  17:       131.38 cm**-1
  18:       132.65 cm**-1
  19:       169.51 cm**-1
  20:       185.95 cm**-1
  21:       210.92 cm**-1
  22:       220.12 cm**-1
  23:       231.38 cm**-1
  24:       261.97 cm**-1
  25:       266.73 cm**-1
  26:       282.88 cm**-1
  27:       377.95 cm**-1
  28:       379.99 cm**-1
  29:       385.75 cm**-1
  30:       389.76 cm**-1
  31:       404.81 cm**-1
  32:       422.51 cm**-1
  33:       482.90 cm**-1
  34:       504.92 cm**-1
  35:       576.53 cm**-1
  36:       589.16 cm**-1
  37:       616.25 cm**-1
  38:       639.46 cm**-1
  39:       670.80 cm**-1
  40:       736.02 cm**-1
  41:       765.07 cm**-1
  42:       772.13 cm**-1
  43:       782.71 cm**-1
  44:       816.10 cm**-1
  45:       825.02 cm**-1
  46:       836.39 cm**-1
  47:       875.16 cm**-1
  48:       886.28 cm**-1
  49:       908.87 cm**-1
  50:       925.36 cm**-1
  51:       930.79 cm**-1
  52:       934.31 cm**-1
  53:       937.72 cm**-1
  54:       947.31 cm**-1
  55:       952.49 cm**-1
  56:       964.17 cm**-1
  57:       978.21 cm**-1
  58:      1002.25 cm**-1
  59:      1035.78 cm**-1
  60:      1055.81 cm**-1
  61:      1065.94 cm**-1
  62:      1076.85 cm**-1
  63:      1090.68 cm**-1
  64:      1094.19 cm**-1
  65:      1102.01 cm**-1
  66:      1104.79 cm**-1
  67:      1113.20 cm**-1
  68:      1126.43 cm**-1
  69:      1138.74 cm**-1
  70:      1151.16 cm**-1
  71:      1175.98 cm**-1
  72:      1184.45 cm**-1
  73:      1192.40 cm**-1
  74:      1196.06 cm**-1
  75:      1206.78 cm**-1
  76:      1230.90 cm**-1
  77:      1237.86 cm**-1
  78:      1246.05 cm**-1
  79:      1269.08 cm**-1
  80:      1270.44 cm**-1
  81:      1275.71 cm**-1
  82:      1275.97 cm**-1
  83:      1278.10 cm**-1
  84:      1282.77 cm**-1
  85:      1284.61 cm**-1
  86:      1298.87 cm**-1
  87:      1314.19 cm**-1
  88:      1340.48 cm**-1
  89:      1344.69 cm**-1
  90:      1371.96 cm**-1
  91:      1373.25 cm**-1
  92:      1407.50 cm**-1
  93:      1419.34 cm**-1
  94:      1428.15 cm**-1
  95:      1428.51 cm**-1
  96:      1454.59 cm**-1
  97:      1474.81 cm**-1
  98:      1479.10 cm**-1
  99:      1494.08 cm**-1
 100:      1499.55 cm**-1
 101:      1501.19 cm**-1
 102:      1503.66 cm**-1
 103:      1504.76 cm**-1
 104:      1505.23 cm**-1
 105:      1505.81 cm**-1
 106:      1509.28 cm**-1
 107:      1509.69 cm**-1
 108:      1512.78 cm**-1
 109:      1563.98 cm**-1
 110:      1570.15 cm**-1
 111:      2643.20 cm**-1
 112:      2931.86 cm**-1
 113:      2936.62 cm**-1
 114:      2940.72 cm**-1
 115:      2942.10 cm**-1
 116:      2946.26 cm**-1
 117:      2952.55 cm**-1
 118:      2966.62 cm**-1
 119:      2967.37 cm**-1
 120:      2971.00 cm**-1
 121:      2976.60 cm**-1
 122:      2980.38 cm**-1
 123:      2980.75 cm**-1
 124:      2981.84 cm**-1
 125:      2987.18 cm**-1
 126:      2988.81 cm**-1
 127:      2995.09 cm**-1
 128:      2999.14 cm**-1
 129:      3002.24 cm**-1
 130:      3018.78 cm**-1
 131:      3022.61 cm**-1
 132:      3044.70 cm**-1
 133:      3047.48 cm**-1
 134:      3061.24 cm**-1
 135:      3068.97 cm**-1
 136:      3355.07 cm**-1
 137:      3402.27 cm**-1


------------
NORMAL MODES
------------

These modes are the cartesian displacements weighted by the diagonal matrix
M(i,i)=1/sqrt(m[i]) where m[i] is the mass of the displaced atom
Thus, these vectors are normalized but *not* orthogonal

                  0          1          2          3          4          5    
      0       0.000000   0.000000   0.000000   0.000000   0.000000   0.000000
      1       0.000000   0.000000   0.000000   0.000000   0.000000   0.000000
      2       0.000000   0.000000   0.000000   0.000000   0.000000   0.000000
      3       0.000000   0.000000   0.000000   0.000000   0.000000   0.000000
      4       0.000000   0.000000   0.000000   0.000000   0.000000   0.000000
      5       0.000000   0.000000   0.000000   0.000000   0.000000   0.000000
      6       0.000000   0.000000   0.000000   0.000000   0.000000   0.000000
      7       0.000000   0.000000   0.000000   0.000000   0.000000   0.000000
      8       0.000000   0.000000   0.000000   0.000000   0.000000   0.000000
      9       0.000000   0.000000   0.000000   0.000000   0.000000   0.000000
     10       0.000000   0.000000   0.000000   0.000000   0.000000   0.000000
     11       0.000000   0.000000   0.000000   0.000000   0.000000   0.000000
     12       0.000000   0.000000   0.000000   0.000000   0.000000   0.000000
     13       0.000000   0.000000   0.000000   0.000000   0.000000   0.000000
     14       0.000000   0.000000   0.000000   0.000000   0.000000   0.000000
     15       0.000000   0.000000   0.000000   0.000000   0.000000   0.000000
     16       0.000000   0.000000   0.000000   0.000000   0.000000   0.000000
     17       0.000000   0.000000   0.000000   0.000000   0.000000   0.000000
     18       0.000000   0.000000   0.000000   0.000000   0.000000   0.000000
     19       0.000000   0.000000   0.000000   0.000000   0.000000   0.000000
     20       0.000000   0.000000   0.000000   0.000000   0.000000   0.000000
     21       0.000000   0.000000   0.000000   0.000000   0.000000   0.000000
     22       0.000000   0.000000   0.000000   0.000000   0.000000   0.000000
     23       0.000000   0.000000   0.000000   0.000000   0.000000   0.000000
     24       0.000000   0.000000   0.000000   0.000000   0.000000   0.000000
     25       0.000000   0.000000   0.000000   0.000000   0.000000   0.000000
     26       0.000000   0.000000   0.000000   0.000000   0.000000   0.000000
     27       0.000000   0.000000   0.000000   0.000000   0.000000   0.000000
     28       0.000000   0.000000   0.000000   0.000000   0.000000   0.000000
     29       0.000000   0.000000   0.000000   0.000000   0.000000   0.000000
     30       0.000000   0.000000   0.000000   0.000000   0.000000   0.000000
     31       0.000000   0.000000   0.000000   0.000000   0.000000   0.000000
     32       0.000000   0.000000   0.000000   0.000000   0.000000   0.000000
     33       0.000000   0.000000   0.000000   0.000000   0.000000   0.000000
     34       0.000000   0.000000   0.000000   0.000000   0.000000   0.000000
     35       0.000000   0.000000   0.000000   0.000000   0.000000   0.000000
     36       0.000000   0.000000   0.000000   0.000000   0.000000   0.000000
     37       0.000000   0.000000   0.000000   0.000000   0.000000   0.000000
     38       0.000000   0.000000   0.000000   0.000000   0.000000   0.000000
     39       0.000000   0.000000   0.000000   0.000000   0.000000   0.000000
     40       0.000000   0.000000   0.000000   0.000000   0.000000   0.000000
     41       0.000000   0.000000   0.000000   0.000000   0.000000   0.000000
     42       0.000000   0.000000   0.000000   0.000000   0.000000   0.000000
     43       0.000000   0.000000   0.000000   0.000000   0.000000   0.000000
     44       0.000000   0.000000   0.000000   0.000000   0.000000   0.000000
     45       0.000000   0.000000   0.000000   0.000000   0.000000   0.000000
     46       0.000000   0.000000   0.000000   0.000000   0.000000   0.000000
     47       0.000000   0.000000   0.000000   0.000000   0.000000   0.000000
     48       0.000000   0.000000   0.000000   0.000000   0.000000   0.000000
     49       0.000000   0.000000   0.000000   0.000000   0.000000   0.000000
     50       0.000000   0.000000   0.000000   0.000000   0.000000   0.000000
     51       0.000000   0.000000   0.000000   0.000000   0.000000   0.000000
     52       0.000000   0.000000   0.000000   0.000000   0.000000   0.000000
     53       0.000000   0.000000   0.000000   0.000000   0.000000   0.000000
     54       0.000000   0.000000   0.000000   0.000000   0.000000   0.000000
     55       0.000000   0.000000   0.000000   0.000000   0.000000   0.000000
     56       0.000000   0.000000   0.000000   0.000000   0.000000   0.000000
     57       0.000000   0.000000   0.000000   0.000000   0.000000   0.000000
     58       0.000000   0.000000   0.000000   0.000000   0.000000   0.000000
     59       0.000000   0.000000   0.000000   0.000000   0.000000   0.000000
     60       0.000000   0.000000   0.000000   0.000000   0.000000   0.000000
     61       0.000000   0.000000   0.000000   0.000000   0.000000   0.000000
     62       0.000000   0.000000   0.000000   0.000000   0.000000   0.000000
     63       0.000000   0.000000   0.000000   0.000000   0.000000   0.000000
     64       0.000000   0.000000   0.000000   0.000000   0.000000   0.000000
     65       0.000000   0.000000   0.000000   0.000000   0.000000   0.000000
     66       0.000000   0.000000   0.000000   0.000000   0.000000   0.000000
     67       0.000000   0.000000   0.000000   0.000000   0.000000   0.000000
     68       0.000000   0.000000   0.000000   0.000000   0.000000   0.000000
     69       0.000000   0.000000   0.000000   0.000000   0.000000   0.000000
     70       0.000000   0.000000   0.000000   0.000000   0.000000   0.000000
     71       0.000000   0.000000   0.000000   0.000000   0.000000   0.000000
     72       0.000000   0.000000   0.000000   0.000000   0.000000   0.000000
     73       0.000000   0.000000   0.000000   0.000000   0.000000   0.000000
     74       0.000000   0.000000   0.000000   0.000000   0.000000   0.000000
     75       0.000000   0.000000   0.000000   0.000000   0.000000   0.000000
     76       0.000000   0.000000   0.000000   0.000000   0.000000   0.000000
     77       0.000000   0.000000   0.000000   0.000000   0.000000   0.000000
     78       0.000000   0.000000   0.000000   0.000000   0.000000   0.000000
     79       0.000000   0.000000   0.000000   0.000000   0.000000   0.000000
     80       0.000000   0.000000   0.000000   0.000000   0.000000   0.000000
     81       0.000000   0.000000   0.000000   0.000000   0.000000   0.000000
     82       0.000000   0.000000   0.000000   0.000000   0.000000   0.000000
     83       0.000000   0.000000   0.000000   0.000000   0.000000   0.000000
     84       0.000000   0.000000   0.000000   0.000000   0.000000   0.000000
     85       0.000000   0.000000   0.000000   0.000000   0.000000   0.000000
     86       0.000000   0.000000   0.000000   0.000000   0.000000   0.000000
     87       0.000000   0.000000   0.000000   0.000000   0.000000   0.000000
     88       0.000000   0.000000   0.000000   0.000000   0.000000   0.000000
     89       0.000000   0.000000   0.000000   0.000000   0.000000   0.000000
     90       0.000000   0.000000   0.000000   0.000000   0.000000   0.000000
     91       0.000000   0.000000   0.000000   0.000000   0.000000   0.000000
     92       0.000000   0.000000   0.000000   0.000000   0.000000   0.000000
     93       0.000000   0.000000   0.000000   0.000000   0.000000   0.000000
     94       0.000000   0.000000   0.000000   0.000000   0.000000   0.000000
     95       0.000000   0.000000   0.000000   0.000000   0.000000   0.000000
     96       0.000000   0.000000   0.000000   0.000000   0.000000   0.000000
     97       0.000000   0.000000   0.000000   0.000000   0.000000   0.000000
     98       0.000000   0.000000   0.000000   0.000000   0.000000   0.000000
     99       0.000000   0.000000   0.000000   0.000000   0.000000   0.000000
    100       0.000000   0.000000   0.000000   0.000000   0.000000   0.000000
    101       0.000000   0.000000   0.000000   0.000000   0.000000   0.000000
    102       0.000000   0.000000   0.000000   0.000000   0.000000   0.000000
    103       0.000000   0.000000   0.000000   0.000000   0.000000   0.000000
    104       0.000000   0.000000   0.000000   0.000000   0.000000   0.000000
    105       0.000000   0.000000   0.000000   0.000000   0.000000   0.000000
    106       0.000000   0.000000   0.000000   0.000000   0.000000   0.000000
    107       0.000000   0.000000   0.000000   0.000000   0.000000   0.000000
    108       0.000000   0.000000   0.000000   0.000000   0.000000   0.000000
    109       0.000000   0.000000   0.000000   0.000000   0.000000   0.000000
    110       0.000000   0.000000   0.000000   0.000000   0.000000   0.000000
    111       0.000000   0.000000   0.000000   0.000000   0.000000   0.000000
    112       0.000000   0.000000   0.000000   0.000000   0.000000   0.000000
    113       0.000000   0.000000   0.000000   0.000000   0.000000   0.000000
    114       0.000000   0.000000   0.000000   0.000000   0.000000   0.000000
    115       0.000000   0.000000   0.000000   0.000000   0.000000   0.000000
    116       0.000000   0.000000   0.000000   0.000000   0.000000   0.000000
    117       0.000000   0.000000   0.000000   0.000000   0.000000   0.000000
    118       0.000000   0.000000   0.000000   0.000000   0.000000   0.000000
    119       0.000000   0.000000   0.000000   0.000000   0.000000   0.000000
    120       0.000000   0.000000   0.000000   0.000000   0.000000   0.000000
    121       0.000000   0.000000   0.000000   0.000000   0.000000   0.000000
    122       0.000000   0.000000   0.000000   0.000000   0.000000   0.000000
    123       0.000000   0.000000   0.000000   0.000000   0.000000   0.000000
    124       0.000000   0.000000   0.000000   0.000000   0.000000   0.000000
    125       0.000000   0.000000   0.000000   0.000000   0.000000   0.000000
    126       0.000000   0.000000   0.000000   0.000000   0.000000   0.000000
    127       0.000000   0.000000   0.000000   0.000000   0.000000   0.000000
    128       0.000000   0.000000   0.000000   0.000000   0.000000   0.000000
    129       0.000000   0.000000   0.000000   0.000000   0.000000   0.000000
    130       0.000000   0.000000   0.000000   0.000000   0.000000   0.000000
    131       0.000000   0.000000   0.000000   0.000000   0.000000   0.000000
    132       0.000000   0.000000   0.000000   0.000000   0.000000   0.000000
    133       0.000000   0.000000   0.000000   0.000000   0.000000   0.000000
    134       0.000000   0.000000   0.000000   0.000000   0.000000   0.000000
    135       0.000000   0.000000   0.000000   0.000000   0.000000   0.000000
    136       0.000000   0.000000   0.000000   0.000000   0.000000   0.000000
    137       0.000000   0.000000   0.000000   0.000000   0.000000   0.000000
                  6          7          8          9         10         11    
      0       0.000880  -0.004083   0.017757  -0.014743  -0.148127   0.034340
      1       0.000506  -0.033426   0.166087   0.068121   0.044283  -0.020396
      2      -0.000637  -0.034362   0.051245   0.012941   0.083054  -0.040282
      3       0.002089   0.002693   0.024531  -0.020414  -0.080633  -0.013770
      4       0.001670  -0.015268   0.120708   0.043186  -0.006424  -0.062942
      5      -0.001042  -0.025515   0.040768   0.002330   0.100637  -0.076913
      6      -0.004149   0.006847   0.029657  -0.027184  -0.018261  -0.027966
      7      -0.000790  -0.002339   0.081774   0.015791  -0.027260  -0.018324
      8       0.001710  -0.019519   0.010092  -0.011356   0.040588  -0.035534
[...]
freq.     937.74  E(vib)   ...       0.03 
freq.     938.31  E(vib)   ...       0.03 
freq.     946.77  E(vib)   ...       0.03 
freq.     949.57  E(vib)   ...       0.03 
freq.     956.52  E(vib)   ...       0.03 
freq.     983.43  E(vib)   ...       0.02 
freq.    1014.94  E(vib)   ...       0.02 
freq.    1034.18  E(vib)   ...       0.02 
freq.    1048.45  E(vib)   ...       0.02 
freq.    1079.43  E(vib)   ...       0.02 
freq.    1080.24  E(vib)   ...       0.02 
freq.    1084.32  E(vib)   ...       0.02 
freq.    1102.71  E(vib)   ...       0.02 
freq.    1109.97  E(vib)   ...       0.02 
freq.    1115.44  E(vib)   ...       0.01 
freq.    1119.71  E(vib)   ...       0.01 
freq.    1122.47  E(vib)   ...       0.01 
freq.    1130.36  E(vib)   ...       0.01 
freq.    1142.71  E(vib)   ...       0.01 
freq.    1170.48  E(vib)   ...       0.01 
freq.    1178.97  E(vib)   ...       0.01 
freq.    1197.33  E(vib)   ...       0.01 
freq.    1204.54  E(vib)   ...       0.01 
freq.    1204.92  E(vib)   ...       0.01 
freq.    1225.92  E(vib)   ...       0.01 
freq.    1241.96  E(vib)   ...       0.01 
freq.    1246.52  E(vib)   ...       0.01 
freq.    1267.47  E(vib)   ...       0.01 
freq.    1274.70  E(vib)   ...       0.01 
freq.    1275.39  E(vib)   ...       0.01 
freq.    1277.16  E(vib)   ...       0.01 
freq.    1278.74  E(vib)   ...       0.01 
freq.    1282.30  E(vib)   ...       0.01 
freq.    1293.11  E(vib)   ...       0.01 
freq.    1297.85  E(vib)   ...       0.01 
freq.    1314.05  E(vib)   ...       0.01 
freq.    1339.69  E(vib)   ...       0.01 
freq.    1347.15  E(vib)   ...       0.01 
freq.    1349.77  E(vib)   ...       0.01 
freq.    1367.97  E(vib)   ...       0.01 
freq.    1370.42  E(vib)   ...       0.01 
freq.    1404.05  E(vib)   ...       0.00 
freq.    1413.55  E(vib)   ...       0.00 
freq.    1413.99  E(vib)   ...       0.00 
freq.    1434.83  E(vib)   ...       0.00 
freq.    1468.20  E(vib)   ...       0.00 
freq.    1471.39  E(vib)   ...       0.00 
freq.    1485.42  E(vib)   ...       0.00 
freq.    1487.85  E(vib)   ...       0.00 
freq.    1491.03  E(vib)   ...       0.00 
freq.    1493.79  E(vib)   ...       0.00 
freq.    1495.51  E(vib)   ...       0.00 
freq.    1497.37  E(vib)   ...       0.00 
freq.    1499.82  E(vib)   ...       0.00 
freq.    1500.80  E(vib)   ...       0.00 
freq.    1501.87  E(vib)   ...       0.00 
freq.    1502.67  E(vib)   ...       0.00 
freq.    1509.42  E(vib)   ...       0.00 
freq.    1591.14  E(vib)   ...       0.00 
freq.    1599.11  E(vib)   ...       0.00 
freq.    2433.67  E(vib)   ...       0.00 
freq.    2621.90  E(vib)   ...       0.00 
freq.    2920.46  E(vib)   ...       0.00 
freq.    2932.04  E(vib)   ...       0.00 
freq.    2954.02  E(vib)   ...       0.00 
freq.    2963.18  E(vib)   ...       0.00 
freq.    2969.76  E(vib)   ...       0.00 
freq.    2973.45  E(vib)   ...       0.00 
freq.    2976.49  E(vib)   ...       0.00 
freq.    2979.69  E(vib)   ...       0.00 
freq.    2981.31  E(vib)   ...       0.00 
freq.    2982.23  E(vib)   ...       0.00 
freq.    2985.24  E(vib)   ...       0.00 
freq.    2987.62  E(vib)   ...       0.00 
freq.    3026.60  E(vib)   ...       0.00 
freq.    3029.71  E(vib)   ...       0.00 
freq.    3030.32  E(vib)   ...       0.00 
freq.    3033.61  E(vib)   ...       0.00 
freq.    3039.41  E(vib)   ...       0.00 
freq.    3039.97  E(vib)   ...       0.00 
freq.    3047.94  E(vib)   ...       0.00 
freq.    3069.28  E(vib)   ...       0.00 
freq.    3072.69  E(vib)   ...       0.00 
freq.    3078.23  E(vib)   ...       0.00 
freq.    3089.35  E(vib)   ...       0.00 
freq.    3325.20  E(vib)   ...       0.00 
freq.    3405.51  E(vib)   ...       0.00 

------------
INNER ENERGY
------------

The inner energy is: U= E(el) + E(ZPE) + E(vib) + E(rot) + E(trans)
    E(el)   - is the total energy from the electronic structure calculation
              = E(kin-el) + E(nuc-el) + E(el-el) + E(nuc-nuc)
    E(ZPE)  - the the zero temperature vibrational energy from the frequency calculation
    E(vib)  - the the finite temperature correction to E(ZPE) due to population
              of excited vibrational states
    E(rot)  - is the rotational thermal energy
    E(trans)- is the translational thermal energy

Summary of contributions to the inner energy U:
Electronic energy                ...    -56.28159088 Eh
Zero point energy                ...      0.40029649 Eh     251.19 kcal/mol
Thermal vibrational correction   ...      0.01824328 Eh      11.45 kcal/mol
Thermal rotational correction    ...      0.00141627 Eh       0.89 kcal/mol
Thermal translational correction ...      0.00141627 Eh       0.89 kcal/mol
-----------------------------------------------------------------------
Total thermal energy                    -55.86021857 Eh


Summary of corrections to the electronic energy:
(perhaps to be used in another calculation)
Total thermal correction                  0.02107583 Eh      13.23 kcal/mol
Non-thermal (ZPE) correction              0.40029649 Eh     251.19 kcal/mol
-----------------------------------------------------------------------
Total correction                          0.42137231 Eh     264.41 kcal/mol


--------
ENTHALPY
--------

The enthalpy is H = U + kB*T
                kB is Boltzmann's constant
Total free energy                 ...    -55.86021857 Eh 
Thermal Enthalpy correction       ...      0.00094421 Eh       0.59 kcal/mol
-----------------------------------------------------------------------
Total Enthalpy                    ...    -55.85927436 Eh


Note: Only C1 symmetry has been detected, increase convergence thresholds 
      if your molecule has a higher symmetry. Symmetry factor of 1.0 is   
      used for the rotational entropy correction. 
 

Note: Rotational entropy computed according to Herzberg 
Infrared and Raman Spectra, Chapter V,1, Van Nostrand Reinhold, 1945 
Point Group:  C1, Symmetry Number:   1  
Rotational constants in cm-1:     0.012749     0.007383     0.005618 

Vibrational entropy computed according to the QRRHO of S. Grimme
Chem.Eur.J. 2012 18 9955


-------
ENTROPY
-------

The entropy contributions are T*S = T*(S(el)+S(vib)+S(rot)+S(trans))
     S(el)   - electronic entropy
     S(vib)  - vibrational entropy
     S(rot)  - rotational entropy
     S(trans)- translational entropy
The entropies will be listed as mutliplied by the temperature to get
units of energy

Electronic entropy                ...      0.00000000 Eh      0.00 kcal/mol
Vibrational entropy               ...      0.03350072 Eh     21.02 kcal/mol
Rotational entropy                ...      0.01633377 Eh     10.25 kcal/mol
Translational entropy             ...      0.02018250 Eh     12.66 kcal/mol
-----------------------------------------------------------------------
Final entropy term                ...      0.07001699 Eh     43.94 kcal/mol

In case the symmetry of your molecule has not been determined correctly
or in case you have a reason to use a different symmetry number we print 
out the resulting rotational entropy values for sn=1,12 :
 --------------------------------------------------------
|  sn= 1 | S(rot)=       0.01633377 Eh     10.25 kcal/mol|
|  sn= 2 | S(rot)=       0.01567931 Eh      9.84 kcal/mol|
|  sn= 3 | S(rot)=       0.01529648 Eh      9.60 kcal/mol|
|  sn= 4 | S(rot)=       0.01502486 Eh      9.43 kcal/mol|
|  sn= 5 | S(rot)=       0.01481417 Eh      9.30 kcal/mol|
|  sn= 6 | S(rot)=       0.01464202 Eh      9.19 kcal/mol|
|  sn= 7 | S(rot)=       0.01449648 Eh      9.10 kcal/mol|
|  sn= 8 | S(rot)=       0.01437040 Eh      9.02 kcal/mol|
|  sn= 9 | S(rot)=       0.01425919 Eh      8.95 kcal/mol|
|  sn=10 | S(rot)=       0.01415971 Eh      8.89 kcal/mol|
|  sn=11 | S(rot)=       0.01406972 Eh      8.83 kcal/mol|
|  sn=12 | S(rot)=       0.01398757 Eh      8.78 kcal/mol|
 --------------------------------------------------------


-------------------
GIBBS FREE ENERGY
-------------------

The Gibbs free energy is G = H - T*S

Total enthalpy                    ...    -55.85927436 Eh 
Total entropy correction          ...     -0.07001699 Eh    -43.94 kcal/mol
-----------------------------------------------------------------------
Final Gibbs free energy         ...    -55.92929135 Eh

For completeness - the Gibbs free energy minus the electronic energy
G-E(el)                           ...      0.35229953 Eh    221.07 kcal/mol


Total Time for Numerical Frequencies  :       150.442 sec



------------------------------------------------------------------------------- 
                    Intrinsic Reaction Coordinate Calculation                  
------------------------------------------------------------------------------- 

System:
Nr. of atoms                        .... 46
Algorithm: SD (steepest descent step) plus correction
Settings:
Max. no of cycles        MaxIter    .... 1000
Direction                           .... Forward and backward
Initial displacement Hessian type   .... Read
Hessian Filename                    .... optts+freq.hess
Following Hessian mode              .... 0
Initial displacement type           .... Energy
  Initial displacement energy change.... 0.250 mEh
Coordinate system following type    .... Cartesian
Length of steepest descent step     .... 0.150 bohr
Do parabolic fit 
  if SD step is uphill              .... YES
Do Correction to SD step            .... YES
Scaling for length of correction
  compared to SD step               .... 0.333
Do parabolic fit to SD correction   .... YES
Only interpolate for parabolic fit  .... YES
Do update to length of
  SD step and correction            .... YES
Convergence Tolerances:
  Max. Gradient            TolMAXG  ....  1.0000e-03 Eh/bohr
  RMS Gradient             TolRMSG  ....  2.0000e-04 Eh/bohr
Storing full IRC trajectory in      .... optts+freq_IRC_Full_trj.xyz
Storing forward trajectory in       .... optts+freq_IRC_F_trj.xyz
Storing backward trajectory in      .... optts+freq_IRC_B_trj.xyz


 ...good, the file optts+freq.hess exists
Reading the hessian file           ...... done
Determining length of initial displacement:
  Requested energy change (quadratic behavior): 0.250 mEh
  Resulting scaling factor for initial displacement along normalized TS mode: 0.1036

         *************************************************************
         *                          FORWARD IRC                      *
         *************************************************************

Iteration    E(Eh)      dE(kcal/mol)  max(|G|)   RMS(G) 
Convergence thresholds                0.001000  0.000200            
    0       -56.281860   -0.168650    0.003632  0.000623
    1       -56.283182   -0.998361    0.009509  0.001427
    2       -56.285266   -2.306210    0.011186  0.001642
    3       -56.288084   -4.074650    0.014031  0.001925
    4       -56.291416   -6.165652    0.017656  0.002159
    5       -56.295439   -8.689642    0.022179  0.002521
    6       -56.300029   -11.569857    0.025235  0.002747
    7       -56.304572   -14.421038    0.021639  0.002456
    8       -56.307968   -16.552159    0.010918  0.001773
    9       -56.310457   -18.114025    0.007040  0.001304
   10       -56.312343   -19.297218    0.005693  0.001068
   11       -56.313729   -20.166974    0.006066  0.001179
   12       -56.313957   -20.309904    0.003689  0.000887
   13       -56.314528   -20.668482    0.003780  0.000748
   14       -56.315077   -21.012686    0.002795  0.000686
   15       -56.315559   -21.315221    0.003081  0.000643
   16       -56.315967   -21.571318    0.003204  0.000742
   17       -56.316058   -21.628389    0.002088  0.000567
   18       -56.316255   -21.752307    0.001901  0.000491
   19       -56.316458   -21.879117    0.001781  0.000461
   20       -56.316650   -21.999802    0.001647  0.000436
   21       -56.316831   -22.113610    0.001533  0.000410
   22       -56.317003   -22.221325    0.001393  0.000389
   23       -56.317164   -22.322353    0.001294  0.000370
   24       -56.317314   -22.416842    0.001183  0.000356
   25       -56.317454   -22.504136    0.001128  0.000358
   26       -56.317576   -22.581100    0.001492  0.000363
   27       -56.317682   -22.647751    0.001325  0.000425
   28       -56.317713   -22.666979    0.000947  0.000324
   29       -56.317770   -22.702621    0.000938  0.000284
   30       -56.317830   -22.740300    0.000918  0.000274
   31       -56.317889   -22.777111    0.000904  0.000265
   32       -56.317946   -22.812830    0.000884  0.000258
   33       -56.318001   -22.847455    0.000870  0.000250
   34       -56.318054   -22.881069    0.000850  0.000242
   35       -56.318106   -22.913653    0.000835  0.000235
   36       -56.318157   -22.945270    0.000815  0.000228
   37       -56.318205   -22.975916    0.000801  0.000221
   38       -56.318253   -23.005639    0.000781  0.000214
   39       -56.318299   -23.034442    0.000766  0.000207
   40       -56.318343   -23.062356    0.000746  0.000201
   41       -56.318386   -23.089364    0.000731  0.000196

                      ***********************HURRAY********************
                      ***            THE IRC HAS CONVERGED          ***
                      *************************************************


         *************************************************************
         *                          BACKWARD IRC                     *
         *************************************************************

Iteration    E(Eh)      dE(kcal/mol)  max(|G|)   RMS(G) 
Convergence thresholds                0.001000  0.000200            
    0       -56.281801   -0.131739    0.003473  0.000577
    1       -56.281945   -0.222002    0.003235  0.000575
    2       -56.282120   -0.332028    0.003548  0.000596
    3       -56.282370   -0.488665    0.003972  0.000619
    4       -56.282652   -0.665649    0.004064  0.000657
    5       -56.282940   -0.846350    0.003875  0.000660
    6       -56.283227   -1.026956    0.003491  0.000650
    7       -56.283506   -1.201533    0.003065  0.000626
    8       -56.283771   -1.368216    0.002592  0.000596
    9       -56.284022   -1.525304    0.002411  0.000561
   10       -56.284257   -1.672910    0.002116  0.000526
   11       -56.284477   -1.810752    0.002077  0.000491
   12       -56.284681   -1.939373    0.001793  0.000458
   13       -56.284872   -2.059133    0.001810  0.000425
   14       -56.285050   -2.170489    0.001532  0.000395
   15       -56.285215   -2.273916    0.001558  0.000367
   16       -56.285368   -2.369900    0.001362  0.000341
   17       -56.285509   -2.458869    0.001236  0.000316
   18       -56.285641   -2.541300    0.001159  0.000292
   19       -56.285762   -2.617689    0.001046  0.000270
   20       -56.285875   -2.688274    0.000946  0.000251
   21       -56.285979   -2.753272    0.000910  0.000241
   22       -56.286069   -2.810007    0.001004  0.000273
   23       -56.286091   -2.823822    0.000764  0.000251
   24       -56.286109   -2.834887    0.000710  0.000218
   25       -56.286130   -2.848431    0.000708  0.000203
   26       -56.286152   -2.862288    0.000682  0.000199

                      ***********************HURRAY********************
                      ***            THE IRC HAS CONVERGED          ***
                      *************************************************


---------------------------------------------------------------
                       IRC PATH SUMMARY              
---------------------------------------------------------------
All gradients are in Eh/Bohr.

Step        E(Eh)      dE(kcal/mol)  max(|G|)   RMS(G) 
   1       -56.286152   -2.862288    0.000682  0.000199
   2       -56.286130   -2.848431    0.000708  0.000203
   3       -56.286109   -2.834887    0.000710  0.000218
   4       -56.286091   -2.823822    0.000764  0.000251
   5       -56.286069   -2.810007    0.001004  0.000273
   6       -56.285979   -2.753272    0.000910  0.000241
   7       -56.285875   -2.688274    0.000946  0.000251
   8       -56.285762   -2.617689    0.001046  0.000270
   9       -56.285641   -2.541300    0.001159  0.000292
  10       -56.285509   -2.458869    0.001236  0.000316
  11       -56.285368   -2.369900    0.001362  0.000341
  12       -56.285215   -2.273916    0.001558  0.000367
  13       -56.285050   -2.170489    0.001532  0.000395
  14       -56.284872   -2.059133    0.001810  0.000425
  15       -56.284681   -1.939373    0.001793  0.000458
  16       -56.284477   -1.810752    0.002077  0.000491
  17       -56.284257   -1.672910    0.002116  0.000526
  18       -56.284022   -1.525304    0.002411  0.000561
  19       -56.283771   -1.368216    0.002592  0.000596
  20       -56.283506   -1.201533    0.003065  0.000626
  21       -56.283227   -1.026956    0.003491  0.000650
  22       -56.282940   -0.846350    0.003875  0.000660
  23       -56.282652   -0.665649    0.004064  0.000657
  24       -56.282370   -0.488665    0.003972  0.000619
  25       -56.282120   -0.332028    0.003548  0.000596
  26       -56.281945   -0.222002    0.003235  0.000575
  27       -56.281801   -0.131739    0.003473  0.000577
  28       -56.281591    0.000000    0.000048  0.000009 <= TS
  29       -56.281860   -0.168650    0.003632  0.000623
  30       -56.283182   -0.998361    0.009509  0.001427
  31       -56.285266   -2.306210    0.011186  0.001642
  32       -56.288084   -4.074650    0.014031  0.001925
  33       -56.291416   -6.165652    0.017656  0.002159
  34       -56.295439   -8.689642    0.022179  0.002521
  35       -56.300029   -11.569857    0.025235  0.002747
  36       -56.304572   -14.421038    0.021639  0.002456
  37       -56.307968   -16.552159    0.010918  0.001773
  38       -56.310457   -18.114025    0.007040  0.001304
  39       -56.312343   -19.297218    0.005693  0.001068
  40       -56.313729   -20.166974    0.006066  0.001179
  41       -56.313957   -20.309904    0.003689  0.000887
  42       -56.314528   -20.668482    0.003780  0.000748
  43       -56.315077   -21.012686    0.002795  0.000686
  44       -56.315559   -21.315221    0.003081  0.000643
  45       -56.315967   -21.571318    0.003204  0.000742
  46       -56.316058   -21.628389    0.002088  0.000567
  47       -56.316255   -21.752307    0.001901  0.000491
  48       -56.316458   -21.879117    0.001781  0.000461
  49       -56.316650   -21.999802    0.001647  0.000436
  50       -56.316831   -22.113610    0.001533  0.000410
  51       -56.317003   -22.221325    0.001393  0.000389
  52       -56.317164   -22.322353    0.001294  0.000370
  53       -56.317314   -22.416842    0.001183  0.000356
  54       -56.317454   -22.504136    0.001128  0.000358
  55       -56.317576   -22.581100    0.001492  0.000363
  56       -56.317682   -22.647751    0.001325  0.000425
  57       -56.317713   -22.666979    0.000947  0.000324
  58       -56.317770   -22.702621    0.000938  0.000284
  59       -56.317830   -22.740300    0.000918  0.000274
  60       -56.317889   -22.777111    0.000904  0.000265
  61       -56.317946   -22.812830    0.000884  0.000258
  62       -56.318001   -22.847455    0.000870  0.000250
  63       -56.318054   -22.881069    0.000850  0.000242
  64       -56.318106   -22.913653    0.000835  0.000235
  65       -56.318157   -22.945270    0.000815  0.000228
  66       -56.318205   -22.975916    0.000801  0.000221
  67       -56.318253   -23.005639    0.000781  0.000214
  68       -56.318299   -23.034442    0.000766  0.000207
  69       -56.318343   -23.062356    0.000746  0.000201
  70       -56.318386   -23.089364    0.000731  0.000196

Timings for individual modules:

Sum of individual times         ...       67.118 sec (=   1.119 min)
Geometry relaxation             ...       10.391 sec (=   0.173 min)  15.5 %
XTB module                      ...       56.727 sec (=   0.945 min)  84.5 %
                             ****ORCA TERMINATED NORMALLY****
TOTAL RUN TIME: 0 days 0 hours 6 minutes 32 seconds 789 msec
