
                                 *****************
                                 * O   R   C   A *
                                 *****************

           --- An Ab Initio, DFT and Semiempirical electronic structure package ---

                  #######################################################
                  #                        -***-                        #
                  #          Department of theory and spectroscopy      #
                  #               Directorship: Frank Neese             #
                  #        Max Planck Institute fuer Kohlenforschung    #
                  #                Kaiser Wilhelm Platz 1               #
                  #                 D-45470 Muelheim/Ruhr               #
                  #                      Germany                        #
                  #                                                     #
                  #                  All rights reserved                #
                  #                        -***-                        #
                  #######################################################


                         Program Version 4.2.1 -  RELEASE  -


 With contributions from (in alphabetic order):
   Daniel Aravena         : Magnetic Suceptibility
   Michael Atanasov       : Ab Initio Ligand Field Theory (pilot matlab implementation)
   Alexander A. Auer      : GIAO ZORA, VPT2
   Ute Becker             : Parallelization
   Giovanni Bistoni       : ED, misc. LED, open-shell LED, HFLD
   Martin Brehm           : Molecular dynamics
   Dmytro Bykov           : SCF Hessian
   Vijay G. Chilkuri      : MRCI spin determinant printing, contributions to CSF-ICE
   Dipayan Datta          : RHF DLPNO-CCSD density
   Achintya Kumar Dutta   : EOM-CC, STEOM-CC
   Dmitry Ganyushin       : Spin-Orbit,Spin-Spin,Magnetic field MRCI
   Miquel Garcia          : C-PCM Hessian, Gaussian charge scheme
   Yang Guo               : DLPNO-NEVPT2, CIM, IAO-localization
   Andreas Hansen         : Spin unrestricted coupled pair/coupled cluster methods
   Benjamin Helmich-Paris : CASSCF linear response (MC-RPA)
   Lee Huntington         : MR-EOM, pCC
   Robert Izsak           : Overlap fitted RIJCOSX, COSX-SCS-MP3, EOM
   Christian Kollmar      : KDIIS, OOCD, Brueckner-CCSD(T), CCSD density
   Simone Kossmann        : Meta GGA functionals, TD-DFT gradient, OOMP2, MP2 Hessian
   Martin Krupicka        : AUTO-CI
   Lucas Lang             : DCDCAS
   Dagmar Lenk            : GEPOL surface, SMD
   Dimitrios Liakos       : Extrapolation schemes; Compound Job, initial MDCI parallelization
   Dimitrios Manganas     : Further ROCIS development; embedding schemes
   Dimitrios Pantazis     : SARC Basis sets
   Taras Petrenko         : DFT Hessian,TD-DFT gradient, ASA, ECA, R-Raman, ABS, FL, XAS/XES, NRVS
   Peter Pinski           : DLPNO-MP2, DLPNO-MP2 Gradient
   Christoph Reimann      : Effective Core Potentials
   Marius Retegan         : Local ZFS, SOC
   Christoph Riplinger    : Optimizer, TS searches, QM/MM, DLPNO-CCSD(T), (RO)-DLPNO pert. Triples
   Tobias Risthaus        : Range-separated hybrids, TD-DFT gradient, RPA, STAB
   Michael Roemelt        : Original ROCIS implementation
   Masaaki Saitow         : Open-shell DLPNO-CCSD energy and density
   Barbara Sandhoefer     : DKH picture change effects
   Avijit Sen             : IP-ROCIS
   Kantharuban Sivalingam : CASSCF convergence, NEVPT2, FIC-MRCI
   Bernardo de Souza      : ESD, SOC TD-DFT
   Georgi Stoychev        : AutoAux, RI-MP2 NMR
   Willem Van den Heuvel  : Paramagnetic NMR
   Boris Wezisla          : Elementary symmetry handling
   Frank Wennmohs         : Technical directorship


 We gratefully acknowledge several colleagues who have allowed us to
 interface, adapt or use parts of their codes:
   Stefan Grimme, W. Hujo, H. Kruse,             : VdW corrections, initial TS optimization,
                  C. Bannwarth                     DFT functionals, gCP, sTDA/sTD-DF
   Ed Valeev, F. Pavosevic, A. Kumar             : LibInt (2-el integral package), F12 methods
   Garnet Chan, S. Sharma, J. Yang, R. Olivares  : DMRG
   Ulf Ekstrom                                   : XCFun DFT Library
   Mihaly Kallay                                 : mrcc  (arbitrary order and MRCC methods)
   Andreas Klamt, Michael Diedenhofen            : otool_cosmo (COSMO solvation model)
   Jiri Pittner, Ondrej Demel                    : Mk-CCSD
   Frank Weinhold                                : gennbo (NPA and NBO analysis)
   Christopher J. Cramer and Donald G. Truhlar   : smd solvation model
   Lars Goerigk                                  : TD-DFT with DH, B97 family of functionals
   V. Asgeirsson, H. Jonsson                     : NEB implementation
   FAccTs GmbH                                   : IRC, NEB, NEB-TS, Multilevel, MM, QM/MM, CI optimization
   S Lehtola, MJT Oliveira, MAL Marques          : LibXC Library


 Your calculation uses the libint2 library for the computation of 2-el integrals
 For citations please refer to: http://libint.valeyev.net

 Your ORCA version has been built with support for libXC version: 4.2.3
 For citations please refer to: https://tddft.org/programs/libxc/

 This ORCA versions uses:
   CBLAS   interface :  Fast vector & matrix operations
   LAPACKE interface :  Fast linear algebra routines
   SCALAPACK package :  Parallel linear algebra routines




***************************************
The coordinates will be read from file: init.xyz
***************************************


Your calculation utilizes the SMD solvation module
Please cite in your paper:
A.V. Marenich, C.J. Cramer, D.G. Truhlar J. Phys. Chem. B, 113, (2009), 6378 

Your calculation utilizes the semiempirical GFN2-xTB method
Please cite in your paper:
C. Bannwarth, Ehlert S., S. Grimme,  J. Chem. Theory Comput., 15, (2019), 1652.
   

----- Orbital basis set information -----
Your calculation utilizes the basis: def2-SVP
   F. Weigend and R. Ahlrichs, Phys. Chem. Chem. Phys. 7, 3297 (2005).

================================================================================
                                        WARNINGS
                       Please study these warnings very carefully!
================================================================================


WARNING: The environment variable RSH_COMMAND is not set!
  ===> : All Displacements for the Numerical Hessian calculation
         will be started on localhost

WARNING: Geometry Optimization
  ===> : Switching off AutoStart
         For restart on a previous wavefunction, please use MOREAD

WARNING: Found dipole moment calculation with XTB calculation
  ===> : Switching off dipole moment calculation


INFO   : the flag for use of LIBINT has been found!

================================================================================
                                       INPUT FILE
================================================================================
NAME = optts+freq.inp
|  1> ! XTB2 OptTS NumFreq IRC
|  2> 
|  3> %geom
|  4>  ts_mode
|  5>   {B 6 10}
|  6>  end
|  7>  ts_active_atoms
|  8>   {0 6 10 12 18 19 20 22 48}
|  9>  end
| 10>  calc_hess true
| 11>  numhess true
| 12> end
| 13> 
| 14> %irc
| 15>  maxiter 1000
| 16>  de_init_displ 0.25
| 17>  TolMAXG 1e-3
| 18>  TolRMSG 2e-4
| 19> end
| 20> 
| 21> %cpcm
| 22>  smd true
| 23>  smdsolvent "ch2cl2"
| 24> end
| 25> 
| 26> %pal
| 27>  nprocs 12
| 28> end
| 29> 
| 30> *xyzfile 0 1 init.xyz
| 31> 
| 32>                          ****END OF INPUT****
================================================================================

                       *****************************
                       * Geometry Optimization Run *
                       *****************************

Geometry optimization settings:
Update method            Update   .... Bofill
Choice of coordinates    CoordSys .... Z-matrix Internals
Initial Hessian          InHess   .... Almoef's Model

Convergence Tolerances:
Energy Change            TolE     ....  5.0000e-06 Eh
Max. Gradient            TolMAXG  ....  3.0000e-04 Eh/bohr
RMS Gradient             TolRMSG  ....  1.0000e-04 Eh/bohr
Max. Displacement        TolMAXD  ....  4.0000e-03 bohr
RMS Displacement         TolRMSD  ....  2.0000e-03 bohr
Strict Convergence                ....  False
------------------------------------------------------------------------------
                        ORCA OPTIMIZATION COORDINATE SETUP
------------------------------------------------------------------------------

The optimization will be done in new redundant internal coordinates
Making redundant internal coordinates   ...  (new redundants) done
Following TS mode number                ...    internal coordinate number: 17
TS-active-atoms for coordinate setup... 0 6 10 12 18 19 20 22 48 
Evaluating the initial hessian          ...  (Is done on the fly) done
Evaluating the coordinates              ...  done
Calculating the B-matrix                .... done
Calculating the G-matrix                .... done
Diagonalizing the G-matrix              .... done
Small eigenvalue found = 4.525e-03
Small eigenvalue found = 6.386e-03
Small eigenvalue found = 1.074e-02
Small eigenvalue found = 1.963e-02
Small eigenvalue found = 2.872e-02
The first mode is                       ....  151
The number of degrees of freedom        ....  141

    -----------------------------------------------------------------
                    Redundant Internal Coordinates


    -----------------------------------------------------------------
         Definition                    Initial Value    d2E/dq (diagonal element)
    -----------------------------------------------------------------
      1. B(C   1,C   0)                  1.3912         0.000000   
      2. B(C   2,C   0)                  2.4103         0.000000   
      3. B(C   2,C   1)                  1.3830         0.000000   
      4. B(C   3,C   0)                  2.7850         0.000000   
      5. B(C   3,C   2)                  1.3856         0.000000   
      6. B(C   4,C   3)                  1.3841         0.000000   
      7. B(C   4,C   0)                  2.4064         0.000000   
      8. B(C   5,C   4)                  1.3855         0.000000   
      9. B(C   5,C   0)                  1.3871         0.000000   
     10. B(C   6,C   0)                  1.5305         0.000000   
     11. B(C   6,C   5)                  2.5464         0.000000   
     12. B(C   6,C   1)                  2.5252         0.000000   
     13. B(H   7,C   1)                  1.0831         0.000000   
     14. B(H   8,C   5)                  1.0791         0.000000   
     15. B(H   9,C   3)                  1.0800         0.000000   
     16. B(N  10,C   0)                  2.4324         0.000000   
     17. B(N  10,C   6)                  1.5671         0.000000   
     18. B(C  11,N  10)                  1.4688         0.000000   
     19. B(C  11,C   6)                  2.5597         0.000000   
     20. B(H  12,N  10)                  1.3000         0.000000   
     21. B(C  13,C  11)                  1.5259         0.000000   
     22. B(C  13,N  10)                  2.4818         0.000000   
     23. B(H  14,C  11)                  1.0952         0.000000   
     24. B(H  15,C  11)                  1.0974         0.000000   
     25. B(H  16,C  13)                  1.0912         0.000000   
     26. B(H  17,C  13)                  1.0916         0.000000   
     27. B(O  18,C   0)                  2.4359         0.000000   
     28. B(O  18,N  10)                  2.4003         0.000000   
     29. B(O  18,C   5)                  2.8861         0.000000   
     30. B(O  18,C   6)                  1.3124         0.000000   
     31. B(O  19,O  18)                  2.4995         0.000000   
     32. B(H  20,O  18)                  1.4376         0.000000   
     33. B(H  20,O  19)                  1.0634         0.000000   
     34. B(H  21,O  19)                  0.9588         0.000000   
     35. B(H  22,O  19)                  1.6590         0.000000   
     36. B(H  23,O  18)                  2.0103         0.000000   
     37. B(H  23,C   6)                  1.1208         0.000000   
     38. B(H  24,N  10)                  1.0188         0.000000   
     39. B(H  24,C   6)                  2.0915         0.000000   
     40. B(H  25,C   2)                  1.0804         0.000000   
     41. B(H  26,C   4)                  1.0803         0.000000   
     42. B(C  27,C  13)                  1.5269         0.000000   
     43. B(H  28,C  27)                  1.0929         0.000000   
     44. B(H  29,C  27)                  1.0922         0.000000   
     45. B(C  30,C  27)                  1.5241         0.000000   
     46. B(H  31,C  30)                  1.0879         0.000000   
     47. B(H  32,C  30)                  1.0875         0.000000   
     48. B(H  33,C  30)                  1.0879         0.000000   
     49. B(C  35,H  22)                  2.0837         0.000000   
     50. B(H  36,C  35)                  1.0919         0.000000   
     51. B(H  37,C  35)                  1.0947         0.000000   
     52. B(C  38,C  35)                  1.5258         0.000000   
     53. B(H  39,C  38)                  1.0916         0.000000   
     54. B(H  40,C  38)                  1.0924         0.000000   
     55. B(C  41,C  38)                  1.5279         0.000000   
     56. B(H  42,C   3)                  4.0643         0.000000   
     57. B(H  42,C  41)                  1.0918         0.000000   
     58. B(H  43,C  41)                  1.0917         0.000000   
     59. B(C  44,C  41)                  1.5245         0.000000   
     60. B(H  45,C  44)                  1.0879         0.000000   
     61. B(H  46,C  44)                  1.0873         0.000000   
     62. B(H  47,C  44)                  1.0879         0.000000   
     63. B(N  48,C  35)                  1.4680         0.000000   
     64. B(N  48,H  34)                  1.0175         0.000000   
     65. B(N  48,H  22)                  1.0446         0.000000   
     66. B(N  48,H  12)                  1.2744         0.000000   
     67. B(N  48,C  38)                  2.4701         0.000000   
     68. B(N  48,O  19)                  2.6740         0.000000   
     69. B(N  48,N  10)                  2.5738         0.000000   
     70. A(C   1,C   0,C   6)          119.5319         0.000000   
     71. A(C   5,C   0,C   6)          121.4864         0.000000   
     72. A(C   1,C   0,C   5)          118.9780         0.000000   
     73. A(C   2,C   1,H   7)          119.6349         0.000000   
     74. A(C   0,C   1,H   7)          119.7077         0.000000   
     75. A(C   0,C   1,C   2)          120.6498         0.000000   
     76. A(C   3,C   2,H  25)          120.1603         0.000000   
     77. A(C   1,C   2,C   3)          120.0008         0.000000   
     78. A(C   1,C   2,H  25)          119.8371         0.000000   
     79. A(C   2,C   3,C   4)          119.7034         0.000000   
     80. A(C   4,C   3,H   9)          120.2123         0.000000   
     81. A(C   2,C   3,H   9)          120.0828         0.000000   
     82. A(C   3,C   4,H  26)          120.2129         0.000000   
     83. A(C   3,C   4,C   5)          120.2335         0.000000   
     84. A(C   5,C   4,H  26)          119.5536         0.000000   
     85. A(C   0,C   5,C   4)          120.4309         0.000000   
     86. A(C   4,C   5,H   8)          120.5126         0.000000   
     87. A(C   0,C   5,H   8)          119.0522         0.000000   
     88. A(C   0,C   6,N  10)          103.4820         0.000000   
     89. A(C   0,C   6,O  18)          117.7297         0.000000   
     90. A(N  10,C   6,H  23)          103.7160         0.000000   
     91. A(O  18,C   6,H  23)          111.1778         0.000000   
     92. A(C   0,C   6,H  23)          106.9022         0.000000   
     93. A(N  10,C   6,O  18)          112.6405         0.000000   
     94. A(C  11,N  10,H  12)          111.0820         0.000000   
     95. A(C  11,N  10,H  24)          109.0386         0.000000   
     96. A(H  12,N  10,H  24)          108.3842         0.000000   
     97. A(C   6,N  10,H  24)          106.0084         0.000000   
     98. A(C   6,N  10,C  11)          114.9070         0.000000   
     99. A(C   6,N  10,H  12)          107.1341         0.000000   
    100. A(H  14,C  11,H  15)          108.2171         0.000000   
    101. A(N  10,C  11,H  14)          108.0848         0.000000   
    102. A(C  13,C  11,H  15)          109.0202         0.000000   
    103. A(N  10,C  11,H  15)          109.5433         0.000000   
    104. A(C  13,C  11,H  14)          109.9834         0.000000   
    105. A(N  10,C  11,C  13)          111.9183         0.000000   
    106. L(N  10,H  12,N  48,C   6, 2) 182.4735         0.000000   
    107. L(N  10,H  12,N  48,C   6, 1) 178.1093         0.000000   
    108. A(H  16,C  13,H  17)          107.9004         0.000000   
    109. A(C  11,C  13,H  17)          109.4468         0.000000   
    110. A(C  11,C  13,H  16)          108.0450         0.000000   
    111. A(H  17,C  13,C  27)          109.3608         0.000000   
    112. A(C  11,C  13,C  27)          111.7602         0.000000   
    113. A(H  16,C  13,C  27)          110.2403         0.000000   
    114. A(C   6,O  18,H  20)          119.9958         0.000000   
    115. A(H  20,O  19,H  21)          104.4432         0.000000   
    116. A(H  21,O  19,H  22)          122.4853         0.000000   
    117. A(H  20,O  19,H  22)           90.2989         0.000000   
    118. L(O  18,H  20,O  19,H  22, 2) 184.6533         0.000000   
    119. L(O  18,H  20,O  19,H  22, 1) 179.3683         0.000000   
    120. A(O  19,H  22,N  48)          162.5674         0.000000   
    121. A(H  29,C  27,C  30)          109.3209         0.000000   
    122. A(H  28,C  27,C  30)          109.5114         0.000000   
    123. A(C  13,C  27,C  30)          111.4640         0.000000   
    124. A(H  28,C  27,H  29)          107.7760         0.000000   
    125. A(C  13,C  27,H  29)          109.3087         0.000000   
    126. A(C  13,C  27,H  28)          109.3834         0.000000   
    127. A(H  32,C  30,H  33)          108.4644         0.000000   
    128. A(H  31,C  30,H  33)          108.3312         0.000000   
    129. A(C  27,C  30,H  33)          110.6235         0.000000   
    130. A(H  31,C  30,H  32)          108.4950         0.000000   
    131. A(C  27,C  30,H  32)          110.5530         0.000000   
    132. A(C  27,C  30,H  31)          110.3028         0.000000   
    133. A(H  37,C  35,C  38)          109.7482         0.000000   
    134. A(H  36,C  35,C  38)          110.1291         0.000000   
    135. A(H  36,C  35,H  37)          108.0765         0.000000   
    136. A(C  38,C  35,N  48)          111.1746         0.000000   
    137. A(H  37,C  35,N  48)          110.3656         0.000000   
    138. A(H  36,C  35,N  48)          107.2692         0.000000   
    139. A(H  39,C  38,C  41)          109.1662         0.000000   
    140. A(C  35,C  38,C  41)          111.5405         0.000000   
    141. A(H  39,C  38,H  40)          107.9744         0.000000   
    142. A(C  35,C  38,H  40)          109.5239         0.000000   
    143. A(C  35,C  38,H  39)          109.2553         0.000000   
    144. A(H  40,C  38,C  41)          109.3083         0.000000   
    145. A(H  43,C  41,C  44)          109.4380         0.000000   
    146. A(H  42,C  41,C  44)          109.5413         0.000000   
    147. A(C  38,C  41,C  44)          111.7238         0.000000   
    148. A(H  42,C  41,H  43)          107.7263         0.000000   
    149. A(C  38,C  41,H  43)          109.2802         0.000000   
    150. A(C  38,C  41,H  42)          109.0437         0.000000   
    151. A(H  46,C  44,H  47)          108.3642         0.000000   
    152. A(H  45,C  44,H  47)          108.4258         0.000000   
    153. A(C  41,C  44,H  47)          110.6582         0.000000   
    154. A(H  45,C  44,H  46)          108.3216         0.000000   
    155. A(C  41,C  44,H  46)          110.4073         0.000000   
    156. A(C  41,C  44,H  45)          110.5863         0.000000   
    157. A(H  34,N  48,C  35)          110.7364         0.000000   
    158. A(H  22,N  48,C  35)          110.9353         0.000000   
    159. A(H  12,N  48,C  35)          111.6838         0.000000   
    160. A(H  22,N  48,H  34)          109.6073         0.000000   
    161. A(H  12,N  48,H  34)          112.1836         0.000000   
    162. A(H  12,N  48,H  22)          101.3443         0.000000   
    163. D(C   2,C   1,C   0,C   5)      0.6831         0.000000   
    164. D(H   7,C   1,C   0,C   6)      1.0069         0.000000   
    165. D(C   2,C   1,C   0,C   6)    179.9979         0.000000   
    166. D(H   7,C   1,C   0,C   5)   -178.3079         0.000000   
    167. D(C   3,C   2,C   1,H   7)    178.5842         0.000000   
    168. D(H  25,C   2,C   1,C   0)   -179.9147         0.000000   
    169. D(H  25,C   2,C   1,H   7)     -0.9229         0.000000   
    170. D(C   3,C   2,C   1,C   0)     -0.4076         0.000000   
    171. D(H   9,C   3,C   2,H  25)     -0.2046         0.000000   
    172. D(C   4,C   3,C   2,C   1)     -0.1478         0.000000   
    173. D(C   4,C   3,C   2,H  25)    179.3577         0.000000   
    174. D(H   9,C   3,C   2,C   1)   -179.7101         0.000000   
    175. D(H  26,C   4,C   3,C   2)   -179.5560         0.000000   
    176. D(C   5,C   4,C   3,C   2)      0.4189         0.000000   
    177. D(C   5,C   4,C   3,H   9)    179.9806         0.000000   
    178. D(H  26,C   4,C   3,H   9)      0.0057         0.000000   
    179. D(H   8,C   5,C   4,C   3)   -179.3754         0.000000   
    180. D(H   8,C   5,C   4,H  26)      0.5996         0.000000   
    181. D(C   0,C   5,C   4,C   3)     -0.1372         0.000000   
    182. D(H   8,C   5,C   0,C   6)     -0.4617         0.000000   
    183. D(C   4,C   5,C   0,C   1)     -0.4101         0.000000   
    184. D(C   4,C   5,C   0,C   6)   -179.7110         0.000000   
    185. D(C   0,C   5,C   4,H  26)    179.8379         0.000000   
    186. D(H   8,C   5,C   0,C   1)    178.8392         0.000000   
    187. D(H  23,C   6,C   0,C   1)    -36.5922         0.000000   
    188. D(H  23,C   6,C   0,C   5)    142.7049         0.000000   
    189. D(N  10,C   6,C   0,C   5)   -108.1666         0.000000   
    190. D(N  10,C   6,C   0,C   1)     72.5363         0.000000   
    191. D(O  18,C   6,C   0,C   1)   -162.4868         0.000000   
    192. D(O  18,C   6,C   0,C   5)     16.8103         0.000000   
    193. D(C  11,N  10,C   6,C   0)   -161.0016         0.000000   
    194. D(H  24,N  10,C   6,O  18)   -168.7138         0.000000   
    195. D(H  24,N  10,C   6,C   0)    -40.5119         0.000000   
    196. D(H  12,N  10,C   6,H  23)   -173.4444         0.000000   
    197. D(H  12,N  10,C   6,O  18)    -53.1320         0.000000   
    198. D(H  12,N  10,C   6,C   0)     75.0699         0.000000   
    199. D(C  11,N  10,C   6,H  23)    -49.5160         0.000000   
    200. D(H  24,N  10,C   6,H  23)     70.9738         0.000000   
    201. D(C  11,N  10,C   6,O  18)     70.7965         0.000000   
    202. D(H  15,C  11,N  10,H  24)    -70.3974         0.000000   
    203. D(H  15,C  11,N  10,C   6)     48.4111         0.000000   
    204. D(H  14,C  11,N  10,H  12)    -72.0746         0.000000   
    205. D(H  14,C  11,N  10,C   6)    166.1141         0.000000   
    206. D(C  13,C  11,N  10,H  24)    168.5651         0.000000   
    207. D(H  14,C  11,N  10,H  24)     47.3056         0.000000   
    208. D(H  15,C  11,N  10,H  12)    170.2224         0.000000   
    209. D(C  13,C  11,N  10,H  12)     49.1850         0.000000   
    210. D(C  13,C  11,N  10,C   6)    -72.6263         0.000000   
    211. D(C  27,C  13,C  11,H  15)     53.3253         0.000000   
    212. D(C  27,C  13,C  11,H  14)    -65.1783         0.000000   
    213. D(C  27,C  13,C  11,N  10)    174.6650         0.000000   
    214. D(H  17,C  13,C  11,H  14)     56.1192         0.000000   
    215. D(H  17,C  13,C  11,H  15)    174.6227         0.000000   
    216. D(H  17,C  13,C  11,N  10)    -64.0375         0.000000   
    217. D(H  16,C  13,C  11,H  15)    -68.1288         0.000000   
    218. D(H  16,C  13,C  11,H  14)    173.3676         0.000000   
    219. D(H  16,C  13,C  11,N  10)     53.2109         0.000000   
    220. D(H  20,O  18,C   6,N  10)     62.4727         0.000000   
    221. D(H  20,O  18,C   6,H  23)    178.3920         0.000000   
    222. D(H  20,O  18,C   6,C   0)    -57.8344         0.000000   
    223. D(H  21,O  19,O  18,C   6)   -154.8046         0.000000   
    224. D(H  22,O  19,O  18,C   6)    -31.3989         0.000000   
    225. D(N  48,H  22,O  19,H  20)      5.3410         0.000000   
    226. D(N  48,H  22,O  19,H  21)    112.7393         0.000000   
    227. D(C  30,C  27,C  13,H  17)     57.9933         0.000000   
    228. D(C  30,C  27,C  13,H  16)    -60.4829         0.000000   
    229. D(C  30,C  27,C  13,C  11)    179.3406         0.000000   
    230. D(H  29,C  27,C  13,H  17)    178.9549         0.000000   
    231. D(H  29,C  27,C  13,H  16)     60.4786         0.000000   
    232. D(H  29,C  27,C  13,C  11)    -59.6978         0.000000   
    233. D(H  28,C  27,C  13,H  17)    -63.2573         0.000000   
    234. D(H  28,C  27,C  13,H  16)    178.2664         0.000000   
    235. D(H  28,C  27,C  13,C  11)     58.0900         0.000000   
    236. D(H  33,C  30,C  27,H  29)    178.1355         0.000000   
    237. D(H  33,C  30,C  27,H  28)     60.2659         0.000000   
    238. D(H  33,C  30,C  27,C  13)    -60.9101         0.000000   
    239. D(H  32,C  30,C  27,H  29)     57.9691         0.000000   
    240. D(H  32,C  30,C  27,H  28)    -59.9004         0.000000   
    241. D(H  32,C  30,C  27,C  13)    178.9235         0.000000   
    242. D(H  31,C  30,C  27,H  29)    -62.0271         0.000000   
    243. D(H  31,C  30,C  27,H  28)   -179.8967         0.000000   
    244. D(H  31,C  30,C  27,C  13)     58.9273         0.000000   
    245. D(C  41,C  38,C  35,H  37)    -59.4844         0.000000   
    246. D(C  41,C  38,C  35,H  36)     59.3779         0.000000   
    247. D(H  40,C  38,C  35,N  48)    -60.7285         0.000000   
    248. D(H  40,C  38,C  35,H  37)     61.6556         0.000000   
    249. D(H  40,C  38,C  35,H  36)   -179.4822         0.000000   
    250. D(H  39,C  38,C  35,N  48)     57.3502         0.000000   
    251. D(H  39,C  38,C  35,H  37)    179.7343         0.000000   
    252. D(C  41,C  38,C  35,N  48)    178.1315         0.000000   
    253. D(H  39,C  38,C  35,H  36)    -61.4035         0.000000   
    254. D(C  44,C  41,C  38,H  40)     59.3771         0.000000   
    255. D(C  44,C  41,C  38,H  39)    -58.5241         0.000000   
    256. D(C  44,C  41,C  38,C  35)   -179.3575         0.000000   
    257. D(H  43,C  41,C  38,H  40)    -61.8804         0.000000   
    258. D(H  43,C  41,C  38,H  39)   -179.7816         0.000000   
    259. D(H  43,C  41,C  38,C  35)     59.3849         0.000000   
    260. D(H  42,C  41,C  38,H  40)   -179.3956         0.000000   
    261. D(H  42,C  41,C  38,H  39)     62.7032         0.000000   
    262. D(H  42,C  41,C  38,C  35)    -58.1302         0.000000   
    263. D(H  47,C  44,C  41,H  43)     61.4304         0.000000   
    264. D(H  47,C  44,C  41,H  42)    179.3260         0.000000   
    265. D(H  47,C  44,C  41,C  38)    -59.7357         0.000000   
    266. D(H  46,C  44,C  41,H  43)    -58.5382         0.000000   
    267. D(H  46,C  44,C  41,H  42)     59.3574         0.000000   
    268. D(H  46,C  44,C  41,C  38)   -179.7043         0.000000   
    269. D(H  45,C  44,C  41,H  43)   -178.4072         0.000000   
    270. D(H  45,C  44,C  41,H  42)    -60.5117         0.000000   
    271. D(H  45,C  44,C  41,C  38)     60.4267         0.000000   
    272. D(H  22,N  48,C  35,H  37)     60.7565         0.000000   
    273. D(H  22,N  48,C  35,H  36)    -56.7599         0.000000   
    274. D(H  12,N  48,C  35,C  38)    -64.9602         0.000000   
    275. D(H  12,N  48,C  35,H  36)     55.4973         0.000000   
    276. D(C  35,N  48,H  22,O  19)    108.1890         0.000000   
    277. D(H  34,N  48,H  22,O  19)   -129.2151         0.000000   
    278. D(H  12,N  48,H  22,O  19)    -10.5118         0.000000   
    279. D(C  35,N  48,N  10,H  24)     23.1761         0.000000   
    280. D(C  35,N  48,N  10,C  11)    143.4362         0.000000   
    281. D(C  35,N  48,N  10,C   6)    -90.1806         0.000000   
    282. D(H  34,N  48,N  10,H  24)   -102.1418         0.000000   
    283. D(H  34,N  48,N  10,C  11)     18.1183         0.000000   
    284. D(H  12,N  48,C  35,H  37)    173.0136         0.000000   
    285. D(H  34,N  48,N  10,C   6)    144.5015         0.000000   
    286. D(H  22,N  48,N  10,H  24)    140.7363         0.000000   
    287. D(H  22,N  48,N  10,C  11)    -99.0035         0.000000   
    288. D(H  22,N  48,C  35,C  38)   -177.2173         0.000000   
    289. D(H  22,N  48,N  10,C   6)     27.3796         0.000000   
    290. D(H  34,N  48,C  35,C  38)     60.8437         0.000000   
    291. D(H  34,N  48,C  35,H  37)    -61.1825         0.000000   
    292. D(H  34,N  48,C  35,H  36)   -178.6989         0.000000   
    -----------------------------------------------------------------

Number of atoms                         .... 49
Number of degrees of freedom            .... 292

         *************************************************************
         *                GEOMETRY OPTIMIZATION CYCLE   1            *
         *************************************************************
      -----------------------------------------------------------      
     |                   =====================                   |     
     |                           x T B                           |     
     |                   =====================                   |     
     |                         S. Grimme                         |     
     |          Mulliken Center for Theoretical Chemistry        |     
     |                    University of Bonn                     |     
      -----------------------------------------------------------      

   * xtb version 6.3.0 (49875a8) compiled by 'schneider@apollo14' on 2020-05-23

   xtb is free software: you can redistribute it and/or modify it under
   the terms of the GNU Lesser General Public License as published by
   the Free Software Foundation, either version 3 of the License, or
   (at your option) any later version.
   
   xtb is distributed in the hope that it will be useful,
   but WITHOUT ANY WARRANTY; without even the implied warranty of
   MERCHANTABILITY or FITNESS FOR A PARTICULAR PURPOSE.  See the
   GNU Lesser General Public License for more details.
   
   Cite this work as:
   * S. Grimme, C. Bannwarth, P. Shushkov, J. Chem. Theory Comput., 2017,
     13, 1989-2009. DOI: 10.1021/acs.jctc.7b00118
   * C. Bannwarth, S. Ehlert and S. Grimme., J. Chem. Theory Comput., 2019,
     15, 1652-1671. DOI: 10.1021/acs.jctc.8b01176
   * P. Pracht, E. Caldeweyher, S. Ehlert, S. Grimme, ChemRxiv, 2019, preprint.
     DOI: 10.26434/chemrxiv.8326202.v1
   
   for GFN-FF:
   * S. Spicher and S. Grimme, Angew. Chem. Int. Ed., 2020,
     DOI: 10.1002/anie.202004239
   
   for DFT-D4:
   * E. Caldeweyher, C. Bannwarth and S. Grimme, J. Chem. Phys., 2017,
     147, 034112. DOI: 10.1063/1.4993215
   * E. Caldeweyher, S. Ehlert, A. Hansen, H. Neugebauer, S. Spicher,
     C. Bannwarth and S. Grimme, J. Chem. Phys., 2019, 150, 154122.
     DOI: 10.1063/1.5090222
   
   for sTDA-xTB:
   * S. Grimme and C. Bannwarth, J. Chem. Phys., 2016, 145, 054103.
     DOI: 10.1063/1.4959605
   
   in the mass-spec context:
   * V. Asgeirsson, C. Bauer and S. Grimme, Chem. Sci., 2017, 8, 4879.
     DOI: 10.1039/c7sc00601b
   * J. Koopman and S. Grimme, ACS Omega 2019, 4, 12, 15120-15133.
     DOI: 10.1021/acsomega.9b02011
   
   for metadynamics refer to:
   * S. Grimme, J. Chem. Theory Comput., 2019, 155, 2847-2862
     DOI: 10.1021/acs.jctc.9b00143
   
   with help from (in alphabetical order)
   C. Bannwarth, F. Bohle, G. Brandenburg, E. Caldeweyher, M. Checinski,
   S. Dohm, S. Ehlert, S. Ehrlich, F. März, H. Neugebauer, J. Pisarek,
   P. Pracht, P. Shushkov, and S. Spicher.
   
 * started run on 2020/06/24 at 12:04:35.093     

           -------------------------------------------------
          |                Calculation Setup                |
           -------------------------------------------------

          program call               : /opt/orca/otool_xtb optts+freq_XTB.xyz --grad -c 0 -u 0 -P 12 --namespace optts+freq --gbsa CH2Cl2
          calculation namespace      : optts+freq
          coordinate file            : optts+freq_XTB.xyz
          number of atoms            :                    49
          number of electrons        :                   112
          charge                     :                     0
          spin                       :                   0.0
          first test random number   :      0.36728354075102

   ID    Z sym.   atoms
    1    6 C      1-7, 12, 14, 28, 31, 36, 39, 42, 45
    2    1 H      8-10, 13, 15-18, 21-27, 29, 30, 32-35, 37, 38, 40, 41, 43,
                  44, 46-48
    3    7 N      11, 49
    4    8 O      19, 20

molecular fragmentation (1/2 indicates fragments):
1111111111111111111222211111111111222222222222222
# atoms in fragment 1/2:    30    19
 fragment masses (1/2) :      179.26       91.15
CMA distance (Bohr)    :   6.645
constraining FC (au)   :  0.0500
########################################################################
[WARNING] Please study the warnings concerning your input carefully
-1- prog_main_parseArguments: Process number higher than OMP_NUM_THREADS, I hope you know what you are doing.
########################################################################
 Solvent             : CH2Cl2
 Using internal parameter file: .param_gbsa2_CH2Cl2
 Gsolv ref. state (COSMO-RS): gsolv [1 M gas/solution]
 temperature (mdtemp)       :    298.14999999999998     
 dielectric constant        :    8.9299999999999997     
 rho                        :    1.3300000000000003     
 mass                       :    84.930000000000007     
 surface tension            :    15.568945408385856     
 probe radius               :   0.71987590000000001     
 Gshift (Eh)                :    4.4408291734517593E-003
 c1                         :    1.4917377599999999     
 soset                      :    0.0000000000000000     
 HB correction              :  F

           -------------------------------------------------
          |                 G F N 2 - x T B                 |
           -------------------------------------------------

        Reference                      10.1021/acs.jctc.8b01176
      * Hamiltonian:
        H0-scaling (s, p, d)           1.850000    2.230000    2.230000
        zeta-weighting                 0.500000
      * Dispersion:
        s8                             2.700000
        a1                             0.520000
        a2                             5.000000
        s9                             5.000000
      * Repulsion:
        kExp                           1.500000    1.000000
        rExp                           1.000000
      * Coulomb:
        alpha                          2.000000
        third order                    shell-resolved
        anisotropic                    true
        a3                             3.000000
        a5                             4.000000
        cn-shift                       1.200000
        cn-exp                         4.000000
        max-rad                        5.000000


          ...................................................
          :                      SETUP                      :
          :.................................................:
          :  # basis functions                 106          :
          :  # atomic orbitals                 106          :
          :  # shells                           68          :
          :  # electrons                       112          :
          :  max. iterations                   250          :
          :  Hamiltonian                  GFN2-xTB          :
          :  restarted?                      false          :
          :  GBSA solvation                   true          :
          :  PC potential                    false          :
          :  electronic temp.          300.0000000     K    :
          :  accuracy                    1.0000000          :
          :  -> integral cutoff          0.2500000E+02      :
          :  -> integral neglect         0.1000000E-07      :
          :  -> SCF convergence          0.1000000E-05 Eh   :
          :  -> wf. convergence          0.1000000E-03 e    :
          :  Broyden damping             0.4000000          :
          ...................................................

 iter      E             dE          RMSdq      gap      omega  full diag
   1    -62.0555487 -0.620555E+02  0.365E+00    3.76       0.0  T
   2    -62.1728569 -0.117308E+00  0.206E+00    3.72       1.0  T
   3    -62.1755952 -0.273831E-02  0.854E-01    3.15       1.0  T
   4    -62.1766160 -0.102078E-02  0.322E-01    3.11       1.0  T
   5    -62.1805534 -0.393740E-02  0.770E-02    3.23       1.0  T
   6    -62.1805987 -0.452871E-04  0.369E-02    3.26       1.0  T
   7    -62.1806089 -0.102355E-04  0.151E-02    3.27       1.0  T
   8    -62.1806111 -0.224518E-05  0.565E-03    3.27       2.5  T
   9    -62.1806116 -0.503820E-06  0.256E-03    3.27       5.6  T
  10    -62.1806117 -0.355600E-07  0.108E-03    3.27      13.2  T
  11    -62.1806117 -0.762793E-08  0.535E-04    3.27      26.7  T
  12    -62.1806117 -0.386606E-08  0.131E-04    3.27     109.3  T

   *** convergence criteria satisfied after 12 iterations ***

         #    Occupation            Energy/Eh            Energy/eV
      -------------------------------------------------------------
         1        2.0000           -0.6684418             -18.1892
       ...           ...                  ...                  ...
        50        2.0000           -0.4250757             -11.5669
        51        2.0000           -0.4209530             -11.4547
        52        2.0000           -0.4100746             -11.1587
        53        2.0000           -0.4062602             -11.0549
        54        2.0000           -0.4026189             -10.9558
        55        2.0000           -0.3624994              -9.8641
        56        2.0000           -0.3497732              -9.5178 (HOMO)
        57                         -0.2297116              -6.2508 (LUMO)
        58                         -0.2264457              -6.1619
        59                         -0.1039532              -2.8287
        60                         -0.0495926              -1.3495
        61                         -0.0198441              -0.5400
       ...                                ...                  ...
       106                          0.6594450              17.9444
      -------------------------------------------------------------
                  HL-Gap            0.1200615 Eh            3.2670 eV
             Fermi-level           -0.2897424 Eh           -7.8843 eV

 SCC (total)                   0 d,  0 h,  0 min,  0.144 sec
 SCC setup                      ...        0 min,  0.003 sec (  1.940%)
 Dispersion                     ...        0 min,  0.001 sec (  0.625%)
 classical contributions        ...        0 min,  0.000 sec (  0.211%)
 integral evaluation            ...        0 min,  0.026 sec ( 18.266%)
 iterations                     ...        0 min,  0.052 sec ( 36.272%)
 molecular gradient             ...        0 min,  0.059 sec ( 41.158%)
 printout                       ...        0 min,  0.002 sec (  1.514%)

         :::::::::::::::::::::::::::::::::::::::::::::::::::::
         ::                     SUMMARY                     ::
         :::::::::::::::::::::::::::::::::::::::::::::::::::::
         :: total energy             -61.377905654169 Eh    ::
         :: total w/o Gsasa/hb       -61.355073682122 Eh    ::
         :: gradient norm              0.000185075391 Eh/a0 ::
         :: HOMO-LUMO gap              3.267040870129 eV    ::
         ::.................................................::
         :: SCC energy               -62.203443662917 Eh    ::
         :: -> isotropic ES            0.141045190525 Eh    ::
         :: -> anisotropic ES         -0.005983115926 Eh    ::
         :: -> anisotropic XC          0.029207022053 Eh    ::
         :: -> dispersion             -0.043245112194 Eh    ::
         :: -> Gsolv                  -0.041708900414 Eh    ::
         ::    -> Gborn               -0.018876928367 Eh    ::
         ::    -> Gsasa               -0.027272801220 Eh    ::
         ::    -> Ghb                  0.000000000000 Eh    ::
         ::    -> Gshift               0.004440829173 Eh    ::
         :: repulsion energy           0.824388447275 Eh    ::
         :: add. restraining           0.000000000000 Eh    ::
         :::::::::::::::::::::::::::::::::::::::::::::::::::::

           -------------------------------------------------
          |                Property Printout                |
           -------------------------------------------------

    * Orbital Energies and Occupations

         #    Occupation            Energy/Eh            Energy/eV
      -------------------------------------------------------------
         1        2.0000           -0.6684418             -18.1892
       ...           ...                  ...                  ...
        44        2.0000           -0.4463334             -12.1453
        45        2.0000           -0.4434865             -12.0679
        46        2.0000           -0.4396672             -11.9640
        47        2.0000           -0.4324688             -11.7681
        48        2.0000           -0.4317191             -11.7477
        49        2.0000           -0.4277947             -11.6409
        50        2.0000           -0.4250757             -11.5669
        51        2.0000           -0.4209530             -11.4547
        52        2.0000           -0.4100746             -11.1587
        53        2.0000           -0.4062602             -11.0549
        54        2.0000           -0.4026189             -10.9558
        55        2.0000           -0.3624994              -9.8641
        56        2.0000           -0.3497732              -9.5178 (HOMO)
        57                         -0.2297116              -6.2508 (LUMO)
        58                         -0.2264457              -6.1619
        59                         -0.1039532              -2.8287
        60                         -0.0495926              -1.3495
        61                         -0.0198441              -0.5400
        62                          0.0268736               0.7313
        63                          0.0556609               1.5146
        64                          0.0650293               1.7695
        65                          0.0715614               1.9473
        66                          0.0878308               2.3900
        67                          0.0970392               2.6406
       ...                                ...                  ...
       106                          0.6594450              17.9444
      -------------------------------------------------------------
                  HL-Gap            0.1200615 Eh            3.2670 eV
             Fermi-level           -0.2897424 Eh           -7.8843 eV

     #   Z        covCN         q      C6AA      α(0)
     1   6 C      2.969    -0.031    28.775     8.799
     2   6 C      2.924    -0.046    29.137     8.852
     3   6 C      2.918    -0.032    28.810     8.802
     4   6 C      2.920    -0.033    28.826     8.804
     5   6 C      2.919    -0.033    28.827     8.805
     6   6 C      2.923    -0.036    28.898     8.816
     7   6 C      3.648     0.214    17.526     6.015
     8   1 H      0.925     0.021     2.720     2.579
     9   1 H      0.926     0.049     2.334     2.389
    10   1 H      0.926     0.039     2.458     2.452
    11   7 N      3.280    -0.241    26.272     7.613
    12   6 C      3.733     0.007    20.550     6.470
    13   1 H      1.287     0.249     0.874     1.460
    14   6 C      3.803    -0.074    21.921     6.666
    15   1 H      0.924     0.046     2.365     2.405
    16   1 H      0.924     0.038     2.471     2.458
    17   1 H      0.924     0.064     2.151     2.293
    18   1 H      0.924     0.037     2.484     2.464
    19   8 O      0.917    -0.698    28.613     7.173
    20   8 O      1.579    -0.682    27.263     7.046
    21   1 H      0.835     0.332     0.627     1.242
    22   1 H      0.805     0.265     0.835     1.435
    23   1 H      0.858     0.246     0.901     1.487
    24   1 H      0.920    -0.039     3.831     3.061
    25   1 H      0.860     0.170     1.274     1.768
    26   1 H      0.926     0.038     2.478     2.462
    27   1 H      0.926     0.037     2.483     2.464
    28   6 C      3.801    -0.056    21.588     6.615
    29   1 H      0.924     0.037     2.484     2.465
    30   1 H      0.924     0.033     2.550     2.497
    31   6 C      3.752    -0.107    22.605     6.780
    32   1 H      0.925     0.036     2.496     2.471
    33   1 H      0.925     0.041     2.441     2.443
    34   1 H      0.925     0.040     2.453     2.449
    35   1 H      0.860     0.189     1.164     1.690
    36   6 C      3.732    -0.009    20.820     6.513
    37   1 H      0.924     0.058     2.218     2.329
    38   1 H      0.924     0.056     2.248     2.345
    39   6 C      3.803    -0.074    21.921     6.666
    40   1 H      0.924     0.041     2.436     2.441
    41   1 H      0.924     0.052     2.293     2.368
    42   6 C      3.801    -0.058    21.623     6.620
    43   1 H      0.924     0.037     2.491     2.468
    44   1 H      0.924     0.041     2.431     2.438
    45   6 C      3.752    -0.108    22.629     6.784
    46   1 H      0.925     0.038     2.469     2.457
    47   1 H      0.925     0.041     2.436     2.441
    48   1 H      0.925     0.042     2.428     2.437
    49   7 N      3.296    -0.277    27.152     7.739

 Mol. C6AA /au·bohr⁶  :      19012.652893
 Mol. C8AA /au·bohr⁸  :     412890.634995
 Mol. α(0) /au        :        209.736532


Wiberg/Mayer (AO) data.
largest (>0.10) Wiberg bond orders for each atom
          total WBO             WBO to atom ...
     1  C   3.984        C    6 1.422    C    2 1.407    C    7 0.951    C    4 0.110
     2  C   3.992        C    3 1.451    C    1 1.407    H    8 0.967    C    5 0.112
     3  C   3.992        C    2 1.451    C    4 1.432    H   26 0.970    C    6 0.110
     4  C   3.991        C    5 1.445    C    3 1.432    H   10 0.971    C    1 0.110
     5  C   3.992        C    4 1.445    C    6 1.435    H   27 0.970    C    2 0.112
     6  C   3.991        C    5 1.435    C    1 1.422    H    9 0.962    C    3 0.110
     7  C   3.956        O   19 1.197    C    1 0.951    H   24 0.931    N   11 0.819
     8  H   1.000        C    2 0.967
     9  H   0.998        C    6 0.962
    10  H   0.998        C    4 0.971
    11  N   3.477        C   12 0.988    H   25 0.944    C    7 0.819    H   13 0.443    N   49 0.135
    12  C   3.967        C   14 1.006    N   11 0.988    H   15 0.972    H   16 0.969
    13  H   0.938        N   49 0.471    N   11 0.443
    14  C   3.991        C   12 1.006    C   28 1.006    H   18 0.975    H   17 0.968
    15  H   0.997        C   12 0.972
    16  H   0.998        C   12 0.969
    17  H   0.996        C   14 0.968
    18  H   0.999        C   14 0.975
    19  O   1.664        C    7 1.197    H   21 0.195
    20  O   1.824        H   22 0.923    H   21 0.681
    21  H   0.889        O   20 0.681    O   19 0.195
    22  H   0.929        O   20 0.923
    23  H   0.939        N   49 0.839
    24  H   0.998        C    7 0.931
    25  H   0.971        N   11 0.944
    26  H   0.998        C    3 0.970
    27  H   0.998        C    5 0.970
    28  C   3.997        C   31 1.019    C   14 1.006    H   30 0.978    H   29 0.978
    29  H   0.999        C   28 0.978
    30  H   0.999        C   28 0.978
    31  C   3.996        C   28 1.019    H   32 0.988    H   34 0.988    H   33 0.987
    32  H   0.999        C   31 0.988
    33  H   0.998        C   31 0.987
    34  H   0.998        C   31 0.988
    35  H   0.964        N   49 0.949
    36  C   3.961        C   39 1.006    N   49 0.991    H   38 0.972    H   37 0.969
    37  H   0.997        C   36 0.969
    38  H   0.997        C   36 0.972
    39  C   3.994        C   36 1.006    C   42 1.005    H   40 0.975    H   41 0.975
    40  H   0.998        C   39 0.975
    41  H   0.997        C   39 0.975
    42  C   3.996        C   45 1.020    C   39 1.005    H   43 0.978    H   44 0.978
    43  H   0.999        C   42 0.978
    44  H   0.998        C   42 0.978
    45  C   3.996        C   42 1.020    H   46 0.988    H   48 0.987    H   47 0.987
    46  H   0.999        C   45 0.988
    47  H   0.998        C   45 0.987
    48  H   0.998        C   45 0.987
    49  N   3.470        C   36 0.991    H   35 0.949    H   23 0.839    H   13 0.471    N   11 0.135
Topologies differ in total number of bonds
Writing topology from bond orders to xtbtopo.mol

molecular dipole:
                 x           y           z       tot (Debye)
 q only:        0.167       1.014       3.348
   full:        0.238       1.264       3.192       8.747
molecular quadrupole (traceless):
                xx          xy          yy          xz          yz          zz
 q only:        6.478       2.761      -8.231      11.459      -5.293       1.753
  q+dip:        5.148       2.533      -4.197      13.028      -8.151      -0.951
   full:        5.117       2.108      -5.779      12.816      -7.178       0.662


           -------------------------------------------------
          | TOTAL ENERGY              -61.377905654169 Eh   |
          | GRADIENT NORM               0.000185075391 Eh/α |
          | HOMO-LUMO GAP               3.267040870129 eV   |
           -------------------------------------------------

------------------------------------------------------------------------
 * finished run on 2020/06/24 at 12:04:35.304     
------------------------------------------------------------------------
 total:
 * wall-time:     0 d,  0 h,  0 min,  0.210 sec
 *  cpu-time:     0 d,  0 h,  0 min,  2.169 sec
 * ratio c/w:    10.306 speedup
 SCF:
 * wall-time:     0 d,  0 h,  0 min,  0.145 sec
 *  cpu-time:     0 d,  0 h,  0 min,  1.498 sec
 * ratio c/w:    10.330 speedup


-------------------------   --------------------
FINAL SINGLE POINT ENERGY       -61.377905654170
-------------------------   --------------------


----------------------------------------------------------------------------
                           ORCA NUMERICAL FREQUENCIES
                              (12-process run)
----------------------------------------------------------------------------

Number of atoms                ... 49
Central differences            ... used
Number of displacements        ... 294
Numerical increment            ... 5.000e-03 bohr
IR-spectrum generation         ... on
Raman-spectrum generation      ... off
Surface Crossing Hessian       ... off
List of participating nodes    ...  optts+freq.hostnames

The output will be reduced. Please look at the following files:
SCF program output             ... >optts+freq.lastscf
Integral program output        ... >optts+freq.lastint
Gradient program output        ... >optts+freq.lastgrad
Dipole moment program output   ... >optts+freq.lastmom
AutoCI program output          ... >optts+freq.lastautoci


         <<< Energy and Gradient at the input geometry >>>

        <<< Energy and Gradient at displaced geometries >>>
             <<<Displacing   3/coordinate 3 (+)>>>
             <<<Displacing   1/coordinate 2 (+)>>>
             <<<Displacing   3/coordinate 1 (+)>>>
             <<<Displacing   3/coordinate 2 (+)>>>
             <<<Displacing   4/coordinate 1 (+)>>>
             <<<Displacing   1/coordinate 3 (+)>>>
             <<<Displacing   2/coordinate 1 (+)>>>
             <<<Displacing   4/coordinate 3 (+)>>>
             <<<Displacing   2/coordinate 3 (+)>>>
             <<<Displacing   4/coordinate 2 (+)>>>
             <<<Displacing   1/coordinate 1 (+)>>>
             <<<Displacing   3/coordinate 3 (-)>>>
             <<<Displacing   2/coordinate 2 (+)>>>
             <<<Displacing   1/coordinate 3 (-)>>>
             <<<Displacing   4/coordinate 1 (-)>>>
             <<<Displacing   3/coordinate 1 (-)>>>
             <<<Displacing   3/coordinate 2 (-)>>>
             <<<Displacing   2/coordinate 1 (-)>>>
             <<<Displacing   1/coordinate 2 (-)>>>
             <<<Displacing   2/coordinate 3 (-)>>>
             <<<Displacing   1/coordinate 1 (-)>>>
             <<<Displacing   4/coordinate 3 (-)>>>
             <<<Displacing   4/coordinate 2 (-)>>>
             <<<Displacing   2/coordinate 2 (-)>>>
             <<<Displacing   5/coordinate 1 (+)>>>
             <<<Displacing   6/coordinate 1 (+)>>>
             <<<Displacing   5/coordinate 2 (+)>>>
             <<<Displacing   7/coordinate 1 (+)>>>
             <<<Displacing   7/coordinate 3 (+)>>>
             <<<Displacing   6/coordinate 2 (+)>>>
             <<<Displacing   6/coordinate 1 (-)>>>
             <<<Displacing   5/coordinate 3 (+)>>>
             <<<Displacing   6/coordinate 3 (+)>>>
             <<<Displacing   5/coordinate 1 (-)>>>
             <<<Displacing   5/coordinate 2 (-)>>>
             <<<Displacing   7/coordinate 3 (-)>>>
             <<<Displacing   5/coordinate 3 (-)>>>
             <<<Displacing   7/coordinate 2 (+)>>>
             <<<Displacing   8/coordinate 1 (+)>>>
             <<<Displacing   6/coordinate 2 (-)>>>
             <<<Displacing   8/coordinate 2 (+)>>>
             <<<Displacing   7/coordinate 1 (-)>>>
             <<<Displacing   6/coordinate 3 (-)>>>
             <<<Displacing   8/coordinate 1 (-)>>>
             <<<Displacing   7/coordinate 2 (-)>>>
             <<<Displacing   8/coordinate 3 (+)>>>
             <<<Displacing   8/coordinate 2 (-)>>>
             <<<Displacing   8/coordinate 3 (-)>>>
             <<<Displacing   9/coordinate 2 (+)>>>
             <<<Displacing   9/coordinate 1 (+)>>>
             <<<Displacing  10/coordinate 1 (+)>>>
             <<<Displacing   9/coordinate 3 (+)>>>
             <<<Displacing  10/coordinate 3 (+)>>>
             <<<Displacing  10/coordinate 2 (+)>>>
             <<<Displacing   9/coordinate 1 (-)>>>
             <<<Displacing   9/coordinate 2 (-)>>>
             <<<Displacing   9/coordinate 3 (-)>>>
             <<<Displacing  10/coordinate 1 (-)>>>
             <<<Displacing  11/coordinate 3 (+)>>>
             <<<Displacing  11/coordinate 2 (+)>>>
             <<<Displacing  10/coordinate 3 (-)>>>
             <<<Displacing  11/coordinate 1 (+)>>>
             <<<Displacing  10/coordinate 2 (-)>>>
             <<<Displacing  11/coordinate 2 (-)>>>
             <<<Displacing  12/coordinate 2 (+)>>>
             <<<Displacing  11/coordinate 3 (-)>>>
             <<<Displacing  12/coordinate 3 (+)>>>
             <<<Displacing  12/coordinate 1 (+)>>>
             <<<Displacing  11/coordinate 1 (-)>>>
             <<<Displacing  12/coordinate 2 (-)>>>
             <<<Displacing  12/coordinate 3 (-)>>>
             <<<Displacing  12/coordinate 1 (-)>>>
             <<<Displacing  13/coordinate 2 (+)>>>
             <<<Displacing  13/coordinate 1 (+)>>>
             <<<Displacing  13/coordinate 1 (-)>>>
             <<<Displacing  13/coordinate 2 (-)>>>
             <<<Displacing  13/coordinate 3 (+)>>>
             <<<Displacing  14/coordinate 1 (+)>>>
             <<<Displacing  15/coordinate 3 (+)>>>
             <<<Displacing  14/coordinate 2 (+)>>>
             <<<Displacing  14/coordinate 3 (+)>>>
             <<<Displacing  13/coordinate 3 (-)>>>
             <<<Displacing  14/coordinate 1 (-)>>>
             <<<Displacing  15/coordinate 2 (+)>>>
             <<<Displacing  14/coordinate 3 (-)>>>
             <<<Displacing  14/coordinate 2 (-)>>>
             <<<Displacing  15/coordinate 3 (-)>>>
             <<<Displacing  15/coordinate 1 (+)>>>
             <<<Displacing  16/coordinate 1 (+)>>>
             <<<Displacing  15/coordinate 2 (-)>>>
             <<<Displacing  16/coordinate 2 (+)>>>
             <<<Displacing  15/coordinate 1 (-)>>>
             <<<Displacing  16/coordinate 1 (-)>>>
             <<<Displacing  16/coordinate 2 (-)>>>
             <<<Displacing  16/coordinate 3 (+)>>>
             <<<Displacing  16/coordinate 3 (-)>>>
             <<<Displacing  17/coordinate 1 (+)>>>
             <<<Displacing  17/coordinate 2 (+)>>>
             <<<Displacing  18/coordinate 1 (+)>>>
             <<<Displacing  17/coordinate 1 (-)>>>
             <<<Displacing  17/coordinate 2 (-)>>>
             <<<Displacing  18/coordinate 3 (+)>>>
             <<<Displacing  18/coordinate 1 (-)>>>
             <<<Displacing  17/coordinate 3 (+)>>>
             <<<Displacing  18/coordinate 2 (+)>>>
             <<<Displacing  17/coordinate 3 (-)>>>
             <<<Displacing  18/coordinate 3 (-)>>>
             <<<Displacing  19/coordinate 2 (+)>>>
             <<<Displacing  20/coordinate 1 (+)>>>
             <<<Displacing  18/coordinate 2 (-)>>>
             <<<Displacing  19/coordinate 1 (+)>>>
             <<<Displacing  20/coordinate 1 (-)>>>
             <<<Displacing  19/coordinate 1 (-)>>>
             <<<Displacing  19/coordinate 2 (-)>>>
             <<<Displacing  20/coordinate 2 (+)>>>
             <<<Displacing  20/coordinate 2 (-)>>>
             <<<Displacing  20/coordinate 3 (+)>>>
             <<<Displacing  19/coordinate 3 (+)>>>
             <<<Displacing  20/coordinate 3 (-)>>>
             <<<Displacing  19/coordinate 3 (-)>>>
             <<<Displacing  21/coordinate 1 (+)>>>
             <<<Displacing  22/coordinate 1 (+)>>>
             <<<Displacing  21/coordinate 3 (+)>>>
             <<<Displacing  21/coordinate 1 (-)>>>
             <<<Displacing  21/coordinate 2 (+)>>>
             <<<Displacing  21/coordinate 3 (-)>>>
             <<<Displacing  22/coordinate 1 (-)>>>
             <<<Displacing  22/coordinate 2 (+)>>>
             <<<Displacing  21/coordinate 2 (-)>>>
             <<<Displacing  22/coordinate 2 (-)>>>
             <<<Displacing  23/coordinate 2 (+)>>>
             <<<Displacing  22/coordinate 3 (+)>>>
             <<<Displacing  22/coordinate 3 (-)>>>
             <<<Displacing  23/coordinate 3 (+)>>>
             <<<Displacing  23/coordinate 2 (-)>>>
             <<<Displacing  23/coordinate 1 (+)>>>
             <<<Displacing  23/coordinate 3 (-)>>>
             <<<Displacing  24/coordinate 1 (+)>>>
             <<<Displacing  23/coordinate 1 (-)>>>
             <<<Displacing  24/coordinate 1 (-)>>>
             <<<Displacing  24/coordinate 2 (+)>>>
             <<<Displacing  24/coordinate 3 (+)>>>
             <<<Displacing  24/coordinate 2 (-)>>>
             <<<Displacing  24/coordinate 3 (-)>>>
             <<<Displacing  25/coordinate 1 (+)>>>
             <<<Displacing  25/coordinate 1 (-)>>>
             <<<Displacing  25/coordinate 2 (+)>>>
             <<<Displacing  25/coordinate 3 (+)>>>
             <<<Displacing  27/coordinate 1 (+)>>>
             <<<Displacing  27/coordinate 2 (+)>>>
             <<<Displacing  25/coordinate 3 (-)>>>
             <<<Displacing  25/coordinate 2 (-)>>>
             <<<Displacing  26/coordinate 1 (+)>>>
             <<<Displacing  27/coordinate 1 (-)>>>
             <<<Displacing  26/coordinate 2 (+)>>>
             <<<Displacing  26/coordinate 3 (+)>>>
             <<<Displacing  28/coordinate 1 (+)>>>
             <<<Displacing  27/coordinate 2 (-)>>>
             <<<Displacing  26/coordinate 1 (-)>>>
             <<<Displacing  26/coordinate 3 (-)>>>
             <<<Displacing  26/coordinate 2 (-)>>>
             <<<Displacing  27/coordinate 3 (+)>>>
             <<<Displacing  27/coordinate 3 (-)>>>
             <<<Displacing  28/coordinate 1 (-)>>>
             <<<Displacing  28/coordinate 2 (+)>>>
             <<<Displacing  28/coordinate 2 (-)>>>
             <<<Displacing  28/coordinate 3 (+)>>>
             <<<Displacing  28/coordinate 3 (-)>>>
             <<<Displacing  30/coordinate 2 (+)>>>
             <<<Displacing  29/coordinate 1 (+)>>>
             <<<Displacing  29/coordinate 2 (+)>>>
             <<<Displacing  29/coordinate 3 (+)>>>
             <<<Displacing  30/coordinate 1 (+)>>>
             <<<Displacing  30/coordinate 2 (-)>>>
             <<<Displacing  29/coordinate 1 (-)>>>
             <<<Displacing  29/coordinate 3 (-)>>>
             <<<Displacing  29/coordinate 2 (-)>>>
             <<<Displacing  32/coordinate 1 (+)>>>
             <<<Displacing  31/coordinate 2 (+)>>>
             <<<Displacing  30/coordinate 1 (-)>>>
             <<<Displacing  32/coordinate 1 (-)>>>
             <<<Displacing  30/coordinate 3 (+)>>>
             <<<Displacing  31/coordinate 2 (-)>>>
             <<<Displacing  31/coordinate 1 (+)>>>
             <<<Displacing  31/coordinate 1 (-)>>>
             <<<Displacing  30/coordinate 3 (-)>>>
             <<<Displacing  31/coordinate 3 (+)>>>
             <<<Displacing  31/coordinate 3 (-)>>>
             <<<Displacing  32/coordinate 2 (+)>>>
             <<<Displacing  32/coordinate 3 (+)>>>
             <<<Displacing  32/coordinate 2 (-)>>>
             <<<Displacing  32/coordinate 3 (-)>>>
             <<<Displacing  33/coordinate 1 (+)>>>
             <<<Displacing  35/coordinate 1 (+)>>>
             <<<Displacing  34/coordinate 2 (+)>>>
             <<<Displacing  33/coordinate 1 (-)>>>
             <<<Displacing  35/coordinate 1 (-)>>>
             <<<Displacing  33/coordinate 3 (+)>>>
             <<<Displacing  34/coordinate 3 (+)>>>
             <<<Displacing  34/coordinate 2 (-)>>>
             <<<Displacing  34/coordinate 1 (+)>>>
             <<<Displacing  33/coordinate 2 (+)>>>
             <<<Displacing  33/coordinate 3 (-)>>>
             <<<Displacing  34/coordinate 3 (-)>>>
             <<<Displacing  35/coordinate 3 (+)>>>
             <<<Displacing  33/coordinate 2 (-)>>>
             <<<Displacing  34/coordinate 1 (-)>>>
             <<<Displacing  35/coordinate 2 (+)>>>
             <<<Displacing  35/coordinate 3 (-)>>>
             <<<Displacing  36/coordinate 1 (+)>>>
             <<<Displacing  35/coordinate 2 (-)>>>
             <<<Displacing  36/coordinate 1 (-)>>>
             <<<Displacing  36/coordinate 2 (+)>>>
             <<<Displacing  36/coordinate 2 (-)>>>
             <<<Displacing  36/coordinate 3 (+)>>>
             <<<Displacing  36/coordinate 3 (-)>>>
             <<<Displacing  37/coordinate 1 (+)>>>
             <<<Displacing  37/coordinate 1 (-)>>>
             <<<Displacing  38/coordinate 1 (+)>>>
             <<<Displacing  37/coordinate 2 (+)>>>
             <<<Displacing  37/coordinate 3 (+)>>>
             <<<Displacing  38/coordinate 2 (+)>>>
             <<<Displacing  37/coordinate 2 (-)>>>
             <<<Displacing  38/coordinate 2 (-)>>>
             <<<Displacing  38/coordinate 1 (-)>>>
             <<<Displacing  37/coordinate 3 (-)>>>
             <<<Displacing  39/coordinate 1 (+)>>>
             <<<Displacing  38/coordinate 3 (+)>>>
             <<<Displacing  39/coordinate 2 (+)>>>
             <<<Displacing  39/coordinate 1 (-)>>>
             <<<Displacing  38/coordinate 3 (-)>>>
             <<<Displacing  40/coordinate 1 (+)>>>
             <<<Displacing  39/coordinate 2 (-)>>>
             <<<Displacing  39/coordinate 3 (+)>>>
             <<<Displacing  40/coordinate 1 (-)>>>
             <<<Displacing  39/coordinate 3 (-)>>>
             <<<Displacing  40/coordinate 2 (+)>>>
             <<<Displacing  40/coordinate 2 (-)>>>
             <<<Displacing  40/coordinate 3 (+)>>>
             <<<Displacing  40/coordinate 3 (-)>>>
             <<<Displacing  41/coordinate 2 (+)>>>
             <<<Displacing  41/coordinate 1 (+)>>>
             <<<Displacing  42/coordinate 1 (+)>>>
             <<<Displacing  41/coordinate 2 (-)>>>
             <<<Displacing  41/coordinate 1 (-)>>>
             <<<Displacing  41/coordinate 3 (+)>>>
             <<<Displacing  42/coordinate 1 (-)>>>
             <<<Displacing  42/coordinate 3 (+)>>>
             <<<Displacing  41/coordinate 3 (-)>>>
             <<<Displacing  42/coordinate 2 (+)>>>
             <<<Displacing  43/coordinate 2 (+)>>>
             <<<Displacing  42/coordinate 2 (-)>>>
             <<<Displacing  42/coordinate 3 (-)>>>
             <<<Displacing  43/coordinate 1 (+)>>>
             <<<Displacing  43/coordinate 3 (+)>>>
             <<<Displacing  43/coordinate 2 (-)>>>
             <<<Displacing  43/coordinate 1 (-)>>>
             <<<Displacing  43/coordinate 3 (-)>>>
             <<<Displacing  44/coordinate 1 (+)>>>
             <<<Displacing  44/coordinate 1 (-)>>>
             <<<Displacing  44/coordinate 2 (+)>>>
             <<<Displacing  44/coordinate 2 (-)>>>
             <<<Displacing  44/coordinate 3 (+)>>>
             <<<Displacing  46/coordinate 1 (+)>>>
             <<<Displacing  46/coordinate 2 (+)>>>
             <<<Displacing  45/coordinate 1 (+)>>>
             <<<Displacing  46/coordinate 3 (+)>>>
             <<<Displacing  44/coordinate 3 (-)>>>
             <<<Displacing  46/coordinate 1 (-)>>>
             <<<Displacing  46/coordinate 2 (-)>>>
             <<<Displacing  47/coordinate 3 (+)>>>
             <<<Displacing  45/coordinate 2 (+)>>>
             <<<Displacing  45/coordinate 1 (-)>>>
             <<<Displacing  45/coordinate 3 (+)>>>
             <<<Displacing  47/coordinate 1 (+)>>>
             <<<Displacing  46/coordinate 3 (-)>>>
             <<<Displacing  47/coordinate 3 (-)>>>
             <<<Displacing  45/coordinate 2 (-)>>>
             <<<Displacing  45/coordinate 3 (-)>>>
             <<<Displacing  47/coordinate 1 (-)>>>
             <<<Displacing  47/coordinate 2 (+)>>>
             <<<Displacing  47/coordinate 2 (-)>>>
             <<<Displacing  48/coordinate 1 (+)>>>
             <<<Displacing  48/coordinate 1 (-)>>>
             <<<Displacing  48/coordinate 2 (+)>>>
             <<<Displacing  48/coordinate 2 (-)>>>
             <<<Displacing  48/coordinate 3 (+)>>>
             <<<Displacing  49/coordinate 2 (+)>>>
             <<<Displacing  48/coordinate 3 (-)>>>
             <<<Displacing  49/coordinate 1 (+)>>>
             <<<Displacing  49/coordinate 2 (-)>>>
             <<<Displacing  49/coordinate 3 (+)>>>
             <<<Displacing  49/coordinate 1 (-)>>>
             <<<Displacing  49/coordinate 3 (-)>>>

-----------------------
VIBRATIONAL FREQUENCIES
-----------------------

Scaling factor for frequencies =  1.000000000 (already applied!)

   0:         0.00 cm**-1
   1:         0.00 cm**-1
   2:         0.00 cm**-1
   3:         0.00 cm**-1
   4:         0.00 cm**-1
   5:         0.00 cm**-1
   6:      -927.99 cm**-1 ***imaginary mode***
   7:        16.02 cm**-1
   8:        30.83 cm**-1
   9:        35.18 cm**-1
  10:        38.62 cm**-1
  11:        50.06 cm**-1
  12:        59.08 cm**-1
  13:        65.84 cm**-1
  14:        71.13 cm**-1
  15:        87.80 cm**-1
  16:        99.73 cm**-1
  17:       108.91 cm**-1
  18:       124.61 cm**-1
  19:       137.25 cm**-1
  20:       170.92 cm**-1
  21:       179.73 cm**-1
  22:       184.75 cm**-1
  23:       220.79 cm**-1
  24:       230.10 cm**-1
  25:       234.62 cm**-1
  26:       247.16 cm**-1
  27:       251.62 cm**-1
  28:       264.75 cm**-1
  29:       330.78 cm**-1
  30:       364.81 cm**-1
  31:       369.62 cm**-1
  32:       394.10 cm**-1
  33:       399.79 cm**-1
  34:       414.19 cm**-1
  35:       440.58 cm**-1
  36:       456.25 cm**-1
  37:       494.12 cm**-1
  38:       528.03 cm**-1
  39:       570.65 cm**-1
  40:       589.16 cm**-1
  41:       618.20 cm**-1
  42:       661.67 cm**-1
  43:       669.78 cm**-1
  44:       701.99 cm**-1
  45:       734.49 cm**-1
  46:       777.53 cm**-1
  47:       781.23 cm**-1
  48:       786.15 cm**-1
  49:       826.65 cm**-1
  50:       831.98 cm**-1
  51:       844.95 cm**-1
  52:       882.47 cm**-1
  53:       905.93 cm**-1
  54:       909.53 cm**-1
  55:       929.32 cm**-1
  56:       934.15 cm**-1
  57:       935.70 cm**-1
  58:       944.74 cm**-1
  59:       951.44 cm**-1
  60:       959.84 cm**-1
  61:       982.52 cm**-1
  62:      1009.96 cm**-1
  63:      1033.60 cm**-1
  64:      1040.51 cm**-1
  65:      1065.79 cm**-1
  66:      1083.63 cm**-1
  67:      1089.84 cm**-1
  68:      1099.85 cm**-1
  69:      1103.88 cm**-1
  70:      1111.07 cm**-1
  71:      1121.45 cm**-1
  72:      1126.16 cm**-1
  73:      1127.89 cm**-1
  74:      1148.74 cm**-1
  75:      1167.67 cm**-1
  76:      1176.73 cm**-1
  77:      1182.53 cm**-1
  78:      1196.90 cm**-1
  79:      1200.98 cm**-1
  80:      1209.57 cm**-1
  81:      1218.87 cm**-1
  82:      1242.47 cm**-1
  83:      1254.74 cm**-1
  84:      1269.92 cm**-1
  85:      1273.79 cm**-1
  86:      1276.16 cm**-1
  87:      1277.50 cm**-1
  88:      1281.35 cm**-1
  89:      1286.07 cm**-1
  90:      1291.57 cm**-1
  91:      1297.00 cm**-1
  92:      1317.12 cm**-1
  93:      1345.78 cm**-1
  94:      1348.37 cm**-1
  95:      1352.45 cm**-1
  96:      1367.72 cm**-1
  97:      1376.05 cm**-1
  98:      1413.41 cm**-1
  99:      1414.04 cm**-1
 100:      1418.63 cm**-1
 101:      1434.82 cm**-1
 102:      1449.16 cm**-1
 103:      1469.76 cm**-1
 104:      1472.29 cm**-1
 105:      1475.39 cm**-1
 106:      1486.55 cm**-1
 107:      1488.66 cm**-1
 108:      1491.48 cm**-1
 109:      1493.46 cm**-1
 110:      1494.86 cm**-1
 111:      1498.72 cm**-1
 112:      1499.11 cm**-1
 113:      1500.61 cm**-1
 114:      1503.04 cm**-1
 115:      1565.70 cm**-1
 116:      1591.09 cm**-1
 117:      1598.32 cm**-1
 118:      1851.39 cm**-1
 119:      2588.88 cm**-1
 120:      2909.05 cm**-1
 121:      2910.65 cm**-1
 122:      2935.80 cm**-1
 123:      2948.83 cm**-1
 124:      2960.02 cm**-1
 125:      2967.96 cm**-1
 126:      2977.25 cm**-1
 127:      2978.05 cm**-1
 128:      2982.98 cm**-1
 129:      2984.95 cm**-1
 130:      2989.24 cm**-1
 131:      2998.22 cm**-1
 132:      3003.53 cm**-1
 133:      3028.63 cm**-1
 134:      3029.06 cm**-1
 135:      3031.74 cm**-1
 136:      3032.39 cm**-1
 137:      3037.35 cm**-1
 138:      3040.95 cm**-1
 139:      3041.37 cm**-1
 140:      3072.18 cm**-1
 141:      3077.18 cm**-1
 142:      3088.44 cm**-1
 143:      3109.54 cm**-1
 144:      3309.16 cm**-1
 145:      3375.28 cm**-1
 146:      3659.48 cm**-1


------------
NORMAL MODES
------------

These modes are the cartesian displacements weighted by the diagonal matrix
M(i,i)=1/sqrt(m[i]) where m[i] is the mass of the displaced atom
Thus, these vectors are normalized but *not* orthogonal

                  0          1          2          3          4          5    
      0       0.000000   0.000000   0.000000   0.000000   0.000000   0.000000
      1       0.000000   0.000000   0.000000   0.000000   0.000000   0.000000
      2       0.000000   0.000000   0.000000   0.000000   0.000000   0.000000
      3       0.000000   0.000000   0.000000   0.000000   0.000000   0.000000
      4       0.000000   0.000000   0.000000   0.000000   0.000000   0.000000
      5       0.000000   0.000000   0.000000   0.000000   0.000000   0.000000
      6       0.000000   0.000000   0.000000   0.000000   0.000000   0.000000
      7       0.000000   0.000000   0.000000   0.000000   0.000000   0.000000
      8       0.000000   0.000000   0.000000   0.000000   0.000000   0.000000
      9       0.000000   0.000000   0.000000   0.000000   0.000000   0.000000
     10       0.000000   0.000000   0.000000   0.000000   0.000000   0.000000
     11       0.000000   0.000000   0.000000   0.000000   0.000000   0.000000
     12       0.000000   0.000000   0.000000   0.000000   0.000000   0.000000
     13       0.000000   0.000000   0.000000   0.000000   0.000000   0.000000
     14       0.000000   0.000000   0.000000   0.000000   0.000000   0.000000
     15       0.000000   0.000000   0.000000   0.000000   0.000000   0.000000
     16       0.000000   0.000000   0.000000   0.000000   0.000000   0.000000
     17       0.000000   0.000000   0.000000   0.000000   0.000000   0.000000
     18       0.000000   0.000000   0.000000   0.000000   0.000000   0.000000
     19       0.000000   0.000000   0.000000   0.000000   0.000000   0.000000
     20       0.000000   0.000000   0.000000   0.000000   0.000000   0.000000
     21       0.000000   0.000000   0.000000   0.000000   0.000000   0.000000
     22       0.000000   0.000000   0.000000   0.000000   0.000000   0.000000
     23       0.000000   0.000000   0.000000   0.000000   0.000000   0.000000
     24       0.000000   0.000000   0.000000   0.000000   0.000000   0.000000
     25       0.000000   0.000000   0.000000   0.000000   0.000000   0.000000
     26       0.000000   0.000000   0.000000   0.000000   0.000000   0.000000
     27       0.000000   0.000000   0.000000   0.000000   0.000000   0.000000
     28       0.000000   0.000000   0.000000   0.000000   0.000000   0.000000
     29       0.000000   0.000000   0.000000   0.000000   0.000000   0.000000
     30       0.000000   0.000000   0.000000   0.000000   0.000000   0.000000
     31       0.000000   0.000000   0.000000   0.000000   0.000000   0.000000
     32       0.000000   0.000000   0.000000   0.000000   0.000000   0.000000
     33       0.000000   0.000000   0.000000   0.000000   0.000000   0.000000
     34       0.000000   0.000000   0.000000   0.000000   0.000000   0.000000
     35       0.000000   0.000000   0.000000   0.000000   0.000000   0.000000
     36       0.000000   0.000000   0.000000   0.000000   0.000000   0.000000
     37       0.000000   0.000000   0.000000   0.000000   0.000000   0.000000
     38       0.000000   0.000000   0.000000   0.000000   0.000000   0.000000
     39       0.000000   0.000000   0.000000   0.000000   0.000000   0.000000
     40       0.000000   0.000000   0.000000   0.000000   0.000000   0.000000
     41       0.000000   0.000000   0.000000   0.000000   0.000000   0.000000
     42       0.000000   0.000000   0.000000   0.000000   0.000000   0.000000
     43       0.000000   0.000000   0.000000   0.000000   0.000000   0.000000
     44       0.000000   0.000000   0.000000   0.000000   0.000000   0.000000
     45       0.000000   0.000000   0.000000   0.000000   0.000000   0.000000
     46       0.000000   0.000000   0.000000   0.000000   0.000000   0.000000
     47       0.000000   0.000000   0.000000   0.000000   0.000000   0.000000
     48       0.000000   0.000000   0.000000   0.000000   0.000000   0.000000
     49       0.000000   0.000000   0.000000   0.000000   0.000000   0.000000
     50       0.000000   0.000000   0.000000   0.000000   0.000000   0.000000
     51       0.000000   0.000000   0.000000   0.000000   0.000000   0.000000
     52       0.000000   0.000000   0.000000   0.000000   0.000000   0.000000
     53       0.000000   0.000000   0.000000   0.000000   0.000000   0.000000
     54       0.000000   0.000000   0.000000   0.000000   0.000000   0.000000
     55       0.000000   0.000000   0.000000   0.000000   0.000000   0.000000
     56       0.000000   0.000000   0.000000   0.000000   0.000000   0.000000
     57       0.000000   0.000000   0.000000   0.000000   0.000000   0.000000
     58       0.000000   0.000000   0.000000   0.000000   0.000000   0.000000
     59       0.000000   0.000000   0.000000   0.000000   0.000000   0.000000
     60       0.000000   0.000000   0.000000   0.000000   0.000000   0.000000
     61       0.000000   0.000000   0.000000   0.000000   0.000000   0.000000
     62       0.000000   0.000000   0.000000   0.000000   0.000000   0.000000
     63       0.000000   0.000000   0.000000   0.000000   0.000000   0.000000
     64       0.000000   0.000000   0.000000   0.000000   0.000000   0.000000
     65       0.000000   0.000000   0.000000   0.000000   0.000000   0.000000
     66       0.000000   0.000000   0.000000   0.000000   0.000000   0.000000
     67       0.000000   0.000000   0.000000   0.000000   0.000000   0.000000
     68       0.000000   0.000000   0.000000   0.000000   0.000000   0.000000
     69       0.000000   0.000000   0.000000   0.000000   0.000000   0.000000
     70       0.000000   0.000000   0.000000   0.000000   0.000000   0.000000
     71       0.000000   0.000000   0.000000   0.000000   0.000000   0.000000
     72       0.000000   0.000000   0.000000   0.000000   0.000000   0.000000
     73       0.000000   0.000000   0.000000   0.000000   0.000000   0.000000
     74       0.000000   0.000000   0.000000   0.000000   0.000000   0.000000
     75       0.000000   0.000000   0.000000   0.000000   0.000000   0.000000
     76       0.000000   0.000000   0.000000   0.000000   0.000000   0.000000
     77       0.000000   0.000000   0.000000   0.000000   0.000000   0.000000
     78       0.000000   0.000000   0.000000   0.000000   0.000000   0.000000
     79       0.000000   0.000000   0.000000   0.000000   0.000000   0.000000
     80       0.000000   0.000000   0.000000   0.000000   0.000000   0.000000
     81       0.000000   0.000000   0.000000   0.000000   0.000000   0.000000
     82       0.000000   0.000000   0.000000   0.000000   0.000000   0.000000
     83       0.000000   0.000000   0.000000   0.000000   0.000000   0.000000
     84       0.000000   0.000000   0.000000   0.000000   0.000000   0.000000
     85       0.000000   0.000000   0.000000   0.000000   0.000000   0.000000
     86       0.000000   0.000000   0.000000   0.000000   0.000000   0.000000
     87       0.000000   0.000000   0.000000   0.000000   0.000000   0.000000
     88       0.000000   0.000000   0.000000   0.000000   0.000000   0.000000
     89       0.000000   0.000000   0.000000   0.000000   0.000000   0.000000
     90       0.000000   0.000000   0.000000   0.000000   0.000000   0.000000
     91       0.000000   0.000000   0.000000   0.000000   0.000000   0.000000
     92       0.000000   0.000000   0.000000   0.000000   0.000000   0.000000
     93       0.000000   0.000000   0.000000   0.000000   0.000000   0.000000
     94       0.000000   0.000000   0.000000   0.000000   0.000000   0.000000
     95       0.000000   0.000000   0.000000   0.000000   0.000000   0.000000
     96       0.000000   0.000000   0.000000   0.000000   0.000000   0.000000
     97       0.000000   0.000000   0.000000   0.000000   0.000000   0.000000
     98       0.000000   0.000000   0.000000   0.000000   0.000000   0.000000
     99       0.000000   0.000000   0.000000   0.000000   0.000000   0.000000
    100       0.000000   0.000000   0.000000   0.000000   0.000000   0.000000
    101       0.000000   0.000000   0.000000   0.000000   0.000000   0.000000
    102       0.000000   0.000000   0.000000   0.000000   0.000000   0.000000
    103       0.000000   0.000000   0.000000   0.000000   0.000000   0.000000
    104       0.000000   0.000000   0.000000   0.000000   0.000000   0.000000
    105       0.000000   0.000000   0.000000   0.000000   0.000000   0.000000
[...]
Storing full IRC trajectory in      .... optts+freq_IRC_Full_trj.xyz
Storing forward trajectory in       .... optts+freq_IRC_F_trj.xyz
Storing backward trajectory in      .... optts+freq_IRC_B_trj.xyz


 ...good, the file optts+freq.hess exists
Reading the hessian file           ...... done
Determining length of initial displacement:
  Requested energy change (quadratic behavior): 0.250 mEh
  Resulting scaling factor for initial displacement along normalized TS mode: 0.1182

         *************************************************************
         *                          FORWARD IRC                      *
         *************************************************************

Iteration    E(Eh)      dE(kcal/mol)  max(|G|)   RMS(G) 
Convergence thresholds                0.001000  0.000200            
    0       -61.378152   -0.154254    0.002614  0.000470
    1       -61.378319   -0.259364    0.003577  0.000638
    2       -61.378406   -0.313557    0.003812  0.000513
    3       -61.378627   -0.452388    0.004153  0.000531
    4       -61.378873   -0.606972    0.004182  0.000551
    5       -61.379120   -0.762060    0.003912  0.000541
    6       -61.379359   -0.911831    0.003389  0.000517
    7       -61.379577   -1.048668    0.002831  0.000472
    8       -61.379777   -1.174314    0.002217  0.000430
    9       -61.379957   -1.287034    0.001742  0.000386
   10       -61.380120   -1.389331    0.001331  0.000349
   11       -61.380266   -1.481167    0.001170  0.000315
   12       -61.380398   -1.564042    0.001105  0.000283
   13       -61.380517   -1.638710    0.000983  0.000254
   14       -61.380623   -1.705218    0.000864  0.000231
   15       -61.380715   -1.762780    0.000832  0.000236
   16       -61.380743   -1.780587    0.001011  0.000262
   17       -61.380755   -1.787864    0.000712  0.000203
   18       -61.380775   -1.800530    0.000691  0.000185

                      ***********************HURRAY********************
                      ***            THE IRC HAS CONVERGED          ***
                      *************************************************


         *************************************************************
         *                          BACKWARD IRC                     *
         *************************************************************

Iteration    E(Eh)      dE(kcal/mol)  max(|G|)   RMS(G) 
Convergence thresholds                0.001000  0.000200            
    0       -61.378114   -0.130764    0.002075  0.000413
    1       -61.378210   -0.191022    0.002427  0.000474
    2       -61.378258   -0.221098    0.002580  0.000375
    3       -61.378412   -0.317477    0.002766  0.000372
    4       -61.378577   -0.421056    0.002556  0.000373
    5       -61.378736   -0.521180    0.002296  0.000360
    6       -61.378887   -0.615484    0.001858  0.000345
    7       -61.379026   -0.702658    0.001906  0.000336
    8       -61.379154   -0.783110    0.001937  0.000353
    9       -61.379208   -0.817174    0.001976  0.000338
   10       -61.379270   -0.855737    0.002016  0.000298
   11       -61.379337   -0.898110    0.002062  0.000297
   12       -61.379405   -0.940674    0.002118  0.000300
   13       -61.379473   -0.983509    0.002193  0.000303
   14       -61.379543   -1.027266    0.002276  0.000311
   15       -61.379614   -1.071685    0.002376  0.000317
   16       -61.379687   -1.117849    0.002493  0.000331
   17       -61.379763   -1.165051    0.002628  0.000339
   18       -61.379842   -1.214935    0.002782  0.000361
   19       -61.379924   -1.266199    0.002955  0.000371
   20       -61.380011   -1.321208    0.003150  0.000401
   21       -61.380102   -1.377871    0.003360  0.000413
   22       -61.380200   -1.439451    0.003595  0.000451
   23       -61.380301   -1.502830    0.003840  0.000464
   24       -61.380412   -1.572407    0.004113  0.000512
   25       -61.380525   -1.643772    0.004388  0.000524
   26       -61.380651   -1.722701    0.004693  0.000582
   27       -61.380780   -1.803229    0.004992  0.000592
   28       -61.380922   -1.892701    0.005323  0.000660
   29       -61.381067   -1.983414    0.005637  0.000667
   30       -61.381228   -2.084405    0.005983  0.000744
   31       -61.381390   -2.186113    0.006301  0.000746
   32       -61.381570   -2.299245    0.006647  0.000831
   33       -61.381750   -2.412467    0.006953  0.000828
   34       -61.381950   -2.537950    0.007285  0.000918
   35       -61.382149   -2.662860    0.007567  0.000910
   36       -61.382369   -2.800472    0.007870  0.001002
   37       -61.382586   -2.936899    0.008115  0.000990
   38       -61.382823   -3.085791    0.008366  0.001078
   39       -61.383058   -3.233080    0.008542  0.001062
   40       -61.383312   -3.392254    0.008740  0.001148
   41       -61.383562   -3.549418    0.008857  0.001129
   42       -61.383831   -3.717782    0.009001  0.001209
   43       -61.384096   -3.884088    0.009056  0.001191
   44       -61.384377   -4.060834    0.009154  0.001265
   45       -61.384656   -4.235506    0.009127  0.001246
   46       -61.384949   -4.419711    0.009173  0.001315
   47       -61.385240   -4.602033    0.009083  0.001297
   48       -61.385545   -4.793359    0.009103  0.001363
   49       -61.385847   -4.983012    0.008960  0.001347
   50       -61.386163   -5.181569    0.008966  0.001414
   51       -61.386477   -5.378590    0.008782  0.001398
   52       -61.386806   -5.584840    0.008784  0.001468
   53       -61.387132   -5.789606    0.008572  0.001453
   54       -61.387474   -6.004237    0.008843  0.001527
   55       -61.387814   -6.217334    0.009222  0.001512
   56       -61.388171   -6.441135    0.009549  0.001592
   57       -61.388525   -6.663279    0.009940  0.001575
   58       -61.388897   -6.897083    0.010289  0.001663
   59       -61.389267   -7.129046    0.010690  0.001644
   60       -61.389656   -7.373546    0.011055  0.001738
   61       -61.390043   -7.615974    0.011457  0.001717
   62       -61.390450   -7.871310    0.011823  0.001813
   63       -61.390853   -8.124371    0.012207  0.001790
   64       -61.391275   -8.389509    0.012541  0.001878
   65       -61.391694   -8.652393    0.012871  0.001856
   66       -61.392129   -8.925080    0.013138  0.001927
   67       -61.392560   -9.195849    0.013384  0.001907
   68       -61.393001   -9.472529    0.013551  0.001949
   69       -61.393441   -9.748078    0.013671  0.001935
   70       -61.393881   -10.024524    0.013705  0.001940
   71       -61.394321   -10.300680    0.013652  0.001932
   72       -61.394759   -10.575444    0.013499  0.001919
   73       -61.395193   -10.847578    0.013244  0.001896
   74       -61.395620   -11.115781    0.012886  0.001863
   75       -61.396039   -11.378767    0.012428  0.001823
   76       -61.396448   -11.635339    0.012052  0.001774
   77       -61.396845   -11.884426    0.011686  0.001718
   78       -61.397229   -12.125159    0.011257  0.001657
   79       -61.397598   -12.356919    0.010776  0.001593
   80       -61.397952   -12.579350    0.010260  0.001527
   81       -61.398292   -12.792364    0.009725  0.001461
   82       -61.398617   -12.996111    0.009189  0.001397
   83       -61.398927   -13.190915    0.008667  0.001336
   84       -61.399224   -13.377191    0.008171  0.001277
   85       -61.399508   -13.555402    0.007709  0.001222
   86       -61.399780   -13.726015    0.007284  0.001171
   87       -61.400040   -13.889473    0.006895  0.001122
   88       -61.400290   -14.046192    0.006540  0.001076
   89       -61.400530   -14.196565    0.006215  0.001033
   90       -61.400760   -14.340947    0.005916  0.000992
   91       -61.400981   -14.479663    0.005641  0.000953
   92       -61.401193   -14.613011    0.005385  0.000917
   93       -61.401398   -14.741263    0.005147  0.000882
   94       -61.401594   -14.864657    0.004923  0.000849
   95       -61.401784   -14.983413    0.004714  0.000817
   96       -61.401966   -15.097729    0.004516  0.000786
   97       -61.402141   -15.207793    0.004329  0.000757
   98       -61.402310   -15.313782    0.004152  0.000729
   99       -61.402473   -15.415859    0.003982  0.000702
  100       -61.402629   -15.514178    0.003820  0.000676
  101       -61.402780   -15.608887    0.003664  0.000652
  102       -61.402926   -15.700123    0.003514  0.000628
  103       -61.403066   -15.788021    0.003368  0.000605
  104       -61.403201   -15.872709    0.003227  0.000583
  105       -61.403331   -15.954310    0.003090  0.000562
  106       -61.403456   -16.032947    0.002957  0.000541
  107       -61.403577   -16.108740    0.002829  0.000522
  108       -61.403693   -16.181800    0.002702  0.000503
  109       -61.403806   -16.252233    0.002582  0.000485
  110       -61.403914   -16.320126    0.002458  0.000468
  111       -61.404018   -16.385447    0.002355  0.000455
  112       -61.404117   -16.447876    0.002231  0.000436
  113       -61.404214   -16.508465    0.002135  0.000423
  114       -61.404307   -16.566634    0.002019  0.000406
  115       -61.404397   -16.623091    0.001929  0.000394
  116       -61.404483   -16.677325    0.001818  0.000379
  117       -61.404567   -16.729963    0.001737  0.000367
  118       -61.404648   -16.780554    0.001629  0.000353
  119       -61.404726   -16.829657    0.001557  0.000342
  120       -61.404801   -16.876883    0.001453  0.000329
  121       -61.404874   -16.922725    0.001393  0.000320
  122       -61.404944   -16.966843    0.001289  0.000308
  123       -61.405013   -17.009652    0.001243  0.000298
  124       -61.405078   -17.050882    0.001138  0.000287
  125       -61.405142   -17.090876    0.001102  0.000279
  126       -61.405204   -17.129444    0.001003  0.000269
  127       -61.405263   -17.166852    0.001020  0.000261
  128       -61.405321   -17.202929    0.000889  0.000251
  129       -61.405376   -17.237916    0.000963  0.000244
  130       -61.405430   -17.271626    0.000839  0.000235
  131       -61.405482   -17.304330    0.000905  0.000228
  132       -61.405532   -17.335827    0.000788  0.000219
  133       -61.405581   -17.366389    0.000848  0.000213
  134       -61.405628   -17.395805    0.000738  0.000205
  135       -61.405673   -17.424344    0.000786  0.000199

                      ***********************HURRAY********************
                      ***            THE IRC HAS CONVERGED          ***
                      *************************************************


---------------------------------------------------------------
                       IRC PATH SUMMARY              
---------------------------------------------------------------
All gradients are in Eh/Bohr.

Step        E(Eh)      dE(kcal/mol)  max(|G|)   RMS(G) 
   1       -61.405673   -17.424344    0.000786  0.000199
   2       -61.405628   -17.395805    0.000738  0.000205
   3       -61.405581   -17.366389    0.000848  0.000213
   4       -61.405532   -17.335827    0.000788  0.000219
   5       -61.405482   -17.304330    0.000905  0.000228
   6       -61.405430   -17.271626    0.000839  0.000235
   7       -61.405376   -17.237916    0.000963  0.000244
   8       -61.405321   -17.202929    0.000889  0.000251
   9       -61.405263   -17.166852    0.001020  0.000261
  10       -61.405204   -17.129444    0.001003  0.000269
  11       -61.405142   -17.090876    0.001102  0.000279
  12       -61.405078   -17.050882    0.001138  0.000287
  13       -61.405013   -17.009652    0.001243  0.000298
  14       -61.404944   -16.966843    0.001289  0.000308
  15       -61.404874   -16.922725    0.001393  0.000320
  16       -61.404801   -16.876883    0.001453  0.000329
  17       -61.404726   -16.829657    0.001557  0.000342
  18       -61.404648   -16.780554    0.001629  0.000353
  19       -61.404567   -16.729963    0.001737  0.000367
  20       -61.404483   -16.677325    0.001818  0.000379
  21       -61.404397   -16.623091    0.001929  0.000394
  22       -61.404307   -16.566634    0.002019  0.000406
  23       -61.404214   -16.508465    0.002135  0.000423
  24       -61.404117   -16.447876    0.002231  0.000436
  25       -61.404018   -16.385447    0.002355  0.000455
  26       -61.403914   -16.320126    0.002458  0.000468
  27       -61.403806   -16.252233    0.002582  0.000485
  28       -61.403693   -16.181800    0.002702  0.000503
  29       -61.403577   -16.108740    0.002829  0.000522
  30       -61.403456   -16.032947    0.002957  0.000541
  31       -61.403331   -15.954310    0.003090  0.000562
  32       -61.403201   -15.872709    0.003227  0.000583
  33       -61.403066   -15.788021    0.003368  0.000605
  34       -61.402926   -15.700123    0.003514  0.000628
  35       -61.402780   -15.608887    0.003664  0.000652
  36       -61.402629   -15.514178    0.003820  0.000676
  37       -61.402473   -15.415859    0.003982  0.000702
  38       -61.402310   -15.313782    0.004152  0.000729
  39       -61.402141   -15.207793    0.004329  0.000757
  40       -61.401966   -15.097729    0.004516  0.000786
  41       -61.401784   -14.983413    0.004714  0.000817
  42       -61.401594   -14.864657    0.004923  0.000849
  43       -61.401398   -14.741263    0.005147  0.000882
  44       -61.401193   -14.613011    0.005385  0.000917
  45       -61.400981   -14.479663    0.005641  0.000953
  46       -61.400760   -14.340947    0.005916  0.000992
  47       -61.400530   -14.196565    0.006215  0.001033
  48       -61.400290   -14.046192    0.006540  0.001076
  49       -61.400040   -13.889473    0.006895  0.001122
  50       -61.399780   -13.726015    0.007284  0.001171
  51       -61.399508   -13.555402    0.007709  0.001222
  52       -61.399224   -13.377191    0.008171  0.001277
  53       -61.398927   -13.190915    0.008667  0.001336
  54       -61.398617   -12.996111    0.009189  0.001397
  55       -61.398292   -12.792364    0.009725  0.001461
  56       -61.397952   -12.579350    0.010260  0.001527
  57       -61.397598   -12.356919    0.010776  0.001593
  58       -61.397229   -12.125159    0.011257  0.001657
  59       -61.396845   -11.884426    0.011686  0.001718
  60       -61.396448   -11.635339    0.012052  0.001774
  61       -61.396039   -11.378767    0.012428  0.001823
  62       -61.395620   -11.115781    0.012886  0.001863
  63       -61.395193   -10.847578    0.013244  0.001896
  64       -61.394759   -10.575444    0.013499  0.001919
  65       -61.394321   -10.300680    0.013652  0.001932
  66       -61.393881   -10.024524    0.013705  0.001940
  67       -61.393441   -9.748078    0.013671  0.001935
  68       -61.393001   -9.472529    0.013551  0.001949
  69       -61.392560   -9.195849    0.013384  0.001907
  70       -61.392129   -8.925080    0.013138  0.001927
  71       -61.391694   -8.652393    0.012871  0.001856
  72       -61.391275   -8.389509    0.012541  0.001878
  73       -61.390853   -8.124371    0.012207  0.001790
  74       -61.390450   -7.871310    0.011823  0.001813
  75       -61.390043   -7.615974    0.011457  0.001717
  76       -61.389656   -7.373546    0.011055  0.001738
  77       -61.389267   -7.129046    0.010690  0.001644
  78       -61.388897   -6.897083    0.010289  0.001663
  79       -61.388525   -6.663279    0.009940  0.001575
  80       -61.388171   -6.441135    0.009549  0.001592
  81       -61.387814   -6.217334    0.009222  0.001512
  82       -61.387474   -6.004237    0.008843  0.001527
  83       -61.387132   -5.789606    0.008572  0.001453
  84       -61.386806   -5.584840    0.008784  0.001468
  85       -61.386477   -5.378590    0.008782  0.001398
  86       -61.386163   -5.181569    0.008966  0.001414
  87       -61.385847   -4.983012    0.008960  0.001347
  88       -61.385545   -4.793359    0.009103  0.001363
  89       -61.385240   -4.602033    0.009083  0.001297
  90       -61.384949   -4.419711    0.009173  0.001315
  91       -61.384656   -4.235506    0.009127  0.001246
  92       -61.384377   -4.060834    0.009154  0.001265
  93       -61.384096   -3.884088    0.009056  0.001191
  94       -61.383831   -3.717782    0.009001  0.001209
  95       -61.383562   -3.549418    0.008857  0.001129
  96       -61.383312   -3.392254    0.008740  0.001148
  97       -61.383058   -3.233080    0.008542  0.001062
  98       -61.382823   -3.085791    0.008366  0.001078
  99       -61.382586   -2.936899    0.008115  0.000990
 100       -61.382369   -2.800472    0.007870  0.001002
 101       -61.382149   -2.662860    0.007567  0.000910
 102       -61.381950   -2.537950    0.007285  0.000918
 103       -61.381750   -2.412467    0.006953  0.000828
 104       -61.381570   -2.299245    0.006647  0.000831
 105       -61.381390   -2.186113    0.006301  0.000746
 106       -61.381228   -2.084405    0.005983  0.000744
 107       -61.381067   -1.983414    0.005637  0.000667
 108       -61.380922   -1.892701    0.005323  0.000660
 109       -61.380780   -1.803229    0.004992  0.000592
 110       -61.380651   -1.722701    0.004693  0.000582
 111       -61.380525   -1.643772    0.004388  0.000524
 112       -61.380412   -1.572407    0.004113  0.000512
 113       -61.380301   -1.502830    0.003840  0.000464
 114       -61.380200   -1.439451    0.003595  0.000451
 115       -61.380102   -1.377871    0.003360  0.000413
 116       -61.380011   -1.321208    0.003150  0.000401
 117       -61.379924   -1.266199    0.002955  0.000371
 118       -61.379842   -1.214935    0.002782  0.000361
 119       -61.379763   -1.165051    0.002628  0.000339
 120       -61.379687   -1.117849    0.002493  0.000331
 121       -61.379614   -1.071685    0.002376  0.000317
 122       -61.379543   -1.027266    0.002276  0.000311
 123       -61.379473   -0.983509    0.002193  0.000303
 124       -61.379405   -0.940674    0.002118  0.000300
 125       -61.379337   -0.898110    0.002062  0.000297
 126       -61.379270   -0.855737    0.002016  0.000298
 127       -61.379208   -0.817174    0.001976  0.000338
 128       -61.379154   -0.783110    0.001937  0.000353
 129       -61.379026   -0.702658    0.001906  0.000336
 130       -61.378887   -0.615484    0.001858  0.000345
 131       -61.378736   -0.521180    0.002296  0.000360
 132       -61.378577   -0.421056    0.002556  0.000373
 133       -61.378412   -0.317477    0.002766  0.000372
 134       -61.378258   -0.221098    0.002580  0.000375
 135       -61.378210   -0.191022    0.002427  0.000474
 136       -61.378114   -0.130764    0.002075  0.000413
 137       -61.377906    0.000000    0.000049  0.000008 <= TS
 138       -61.378152   -0.154254    0.002614  0.000470
 139       -61.378319   -0.259364    0.003577  0.000638
 140       -61.378406   -0.313557    0.003812  0.000513
 141       -61.378627   -0.452388    0.004153  0.000531
 142       -61.378873   -0.606972    0.004182  0.000551
 143       -61.379120   -0.762060    0.003912  0.000541
 144       -61.379359   -0.911831    0.003389  0.000517
 145       -61.379577   -1.048668    0.002831  0.000472
 146       -61.379777   -1.174314    0.002217  0.000430
 147       -61.379957   -1.287034    0.001742  0.000386
 148       -61.380120   -1.389331    0.001331  0.000349
 149       -61.380266   -1.481167    0.001170  0.000315
 150       -61.380398   -1.564042    0.001105  0.000283
 151       -61.380517   -1.638710    0.000983  0.000254
 152       -61.380623   -1.705218    0.000864  0.000231
 153       -61.380715   -1.762780    0.000832  0.000236
 154       -61.380743   -1.780587    0.001011  0.000262
 155       -61.380755   -1.787864    0.000712  0.000203
 156       -61.380775   -1.800530    0.000691  0.000185

Timings for individual modules:

Sum of individual times         ...      141.530 sec (=   2.359 min)
Geometry relaxation             ...        4.132 sec (=   0.069 min)   2.9 %
XTB module                      ...      137.398 sec (=   2.290 min)  97.1 %
                             ****ORCA TERMINATED NORMALLY****
TOTAL RUN TIME: 0 days 0 hours 8 minutes 32 seconds 860 msec
