
                                 *****************
                                 * O   R   C   A *
                                 *****************

           --- An Ab Initio, DFT and Semiempirical electronic structure package ---

                  #######################################################
                  #                        -***-                        #
                  #          Department of theory and spectroscopy      #
                  #               Directorship: Frank Neese             #
                  #        Max Planck Institute fuer Kohlenforschung    #
                  #                Kaiser Wilhelm Platz 1               #
                  #                 D-45470 Muelheim/Ruhr               #
                  #                      Germany                        #
                  #                                                     #
                  #                  All rights reserved                #
                  #                        -***-                        #
                  #######################################################


                         Program Version 4.2.1 -  RELEASE  -


 With contributions from (in alphabetic order):
   Daniel Aravena         : Magnetic Suceptibility
   Michael Atanasov       : Ab Initio Ligand Field Theory (pilot matlab implementation)
   Alexander A. Auer      : GIAO ZORA, VPT2
   Ute Becker             : Parallelization
   Giovanni Bistoni       : ED, misc. LED, open-shell LED, HFLD
   Martin Brehm           : Molecular dynamics
   Dmytro Bykov           : SCF Hessian
   Vijay G. Chilkuri      : MRCI spin determinant printing, contributions to CSF-ICE
   Dipayan Datta          : RHF DLPNO-CCSD density
   Achintya Kumar Dutta   : EOM-CC, STEOM-CC
   Dmitry Ganyushin       : Spin-Orbit,Spin-Spin,Magnetic field MRCI
   Miquel Garcia          : C-PCM Hessian, Gaussian charge scheme
   Yang Guo               : DLPNO-NEVPT2, CIM, IAO-localization
   Andreas Hansen         : Spin unrestricted coupled pair/coupled cluster methods
   Benjamin Helmich-Paris : CASSCF linear response (MC-RPA)
   Lee Huntington         : MR-EOM, pCC
   Robert Izsak           : Overlap fitted RIJCOSX, COSX-SCS-MP3, EOM
   Christian Kollmar      : KDIIS, OOCD, Brueckner-CCSD(T), CCSD density
   Simone Kossmann        : Meta GGA functionals, TD-DFT gradient, OOMP2, MP2 Hessian
   Martin Krupicka        : AUTO-CI
   Lucas Lang             : DCDCAS
   Dagmar Lenk            : GEPOL surface, SMD
   Dimitrios Liakos       : Extrapolation schemes; Compound Job, initial MDCI parallelization
   Dimitrios Manganas     : Further ROCIS development; embedding schemes
   Dimitrios Pantazis     : SARC Basis sets
   Taras Petrenko         : DFT Hessian,TD-DFT gradient, ASA, ECA, R-Raman, ABS, FL, XAS/XES, NRVS
   Peter Pinski           : DLPNO-MP2, DLPNO-MP2 Gradient
   Christoph Reimann      : Effective Core Potentials
   Marius Retegan         : Local ZFS, SOC
   Christoph Riplinger    : Optimizer, TS searches, QM/MM, DLPNO-CCSD(T), (RO)-DLPNO pert. Triples
   Tobias Risthaus        : Range-separated hybrids, TD-DFT gradient, RPA, STAB
   Michael Roemelt        : Original ROCIS implementation
   Masaaki Saitow         : Open-shell DLPNO-CCSD energy and density
   Barbara Sandhoefer     : DKH picture change effects
   Avijit Sen             : IP-ROCIS
   Kantharuban Sivalingam : CASSCF convergence, NEVPT2, FIC-MRCI
   Bernardo de Souza      : ESD, SOC TD-DFT
   Georgi Stoychev        : AutoAux, RI-MP2 NMR
   Willem Van den Heuvel  : Paramagnetic NMR
   Boris Wezisla          : Elementary symmetry handling
   Frank Wennmohs         : Technical directorship


 We gratefully acknowledge several colleagues who have allowed us to
 interface, adapt or use parts of their codes:
   Stefan Grimme, W. Hujo, H. Kruse,             : VdW corrections, initial TS optimization,
                  C. Bannwarth                     DFT functionals, gCP, sTDA/sTD-DF
   Ed Valeev, F. Pavosevic, A. Kumar             : LibInt (2-el integral package), F12 methods
   Garnet Chan, S. Sharma, J. Yang, R. Olivares  : DMRG
   Ulf Ekstrom                                   : XCFun DFT Library
   Mihaly Kallay                                 : mrcc  (arbitrary order and MRCC methods)
   Andreas Klamt, Michael Diedenhofen            : otool_cosmo (COSMO solvation model)
   Jiri Pittner, Ondrej Demel                    : Mk-CCSD
   Frank Weinhold                                : gennbo (NPA and NBO analysis)
   Christopher J. Cramer and Donald G. Truhlar   : smd solvation model
   Lars Goerigk                                  : TD-DFT with DH, B97 family of functionals
   V. Asgeirsson, H. Jonsson                     : NEB implementation
   FAccTs GmbH                                   : IRC, NEB, NEB-TS, Multilevel, MM, QM/MM, CI optimization
   S Lehtola, MJT Oliveira, MAL Marques          : LibXC Library


 Your calculation uses the libint2 library for the computation of 2-el integrals
 For citations please refer to: http://libint.valeyev.net

 Your ORCA version has been built with support for libXC version: 4.2.3
 For citations please refer to: https://tddft.org/programs/libxc/

 This ORCA versions uses:
   CBLAS   interface :  Fast vector & matrix operations
   LAPACKE interface :  Fast linear algebra routines
   SCALAPACK package :  Parallel linear algebra routines




***************************************
The coordinates will be read from file: init.xyz
***************************************


Your calculation utilizes the SMD solvation module
Please cite in your paper:
A.V. Marenich, C.J. Cramer, D.G. Truhlar J. Phys. Chem. B, 113, (2009), 6378 

Your calculation utilizes the semiempirical GFN2-xTB method
Please cite in your paper:
C. Bannwarth, Ehlert S., S. Grimme,  J. Chem. Theory Comput., 15, (2019), 1652.
   

----- Orbital basis set information -----
Your calculation utilizes the basis: def2-SVP
   F. Weigend and R. Ahlrichs, Phys. Chem. Chem. Phys. 7, 3297 (2005).

================================================================================
                                        WARNINGS
                       Please study these warnings very carefully!
================================================================================


WARNING: The environment variable RSH_COMMAND is not set!
  ===> : All Displacements for the Numerical Hessian calculation
         will be started on localhost

WARNING: Geometry Optimization
  ===> : Switching off AutoStart
         For restart on a previous wavefunction, please use MOREAD

WARNING: Found dipole moment calculation with XTB calculation
  ===> : Switching off dipole moment calculation


INFO   : the flag for use of LIBINT has been found!

================================================================================
                                       INPUT FILE
================================================================================
NAME = optts+freq.inp
|  1> ! XTB2 OptTS NumFreq IRC
|  2> 
|  3> %geom
|  4>  ts_mode
|  5>   {B 9 17}
|  6>  end
|  7>  ts_active_atoms
|  8>   {0 9 10 16 17 19 23}
|  9>  end
| 10>  calc_hess true
| 11>  numhess true
| 12> end
| 13> 
| 14> %irc
| 15>  maxiter 1000
| 16>  de_init_displ 0.25
| 17>  TolMAXG 1e-3
| 18>  TolRMSG 2e-4
| 19> end
| 20> 
| 21> %cpcm
| 22>  smd true
| 23>  smdsolvent "ch2cl2"
| 24> end
| 25> 
| 26> %pal
| 27>  nprocs 12
| 28> end
| 29> 
| 30> *xyzfile 0 1 init.xyz
| 31> 
| 32>                          ****END OF INPUT****
================================================================================

                       *****************************
                       * Geometry Optimization Run *
                       *****************************

Geometry optimization settings:
Update method            Update   .... Bofill
Choice of coordinates    CoordSys .... Z-matrix Internals
Initial Hessian          InHess   .... Almoef's Model

Convergence Tolerances:
Energy Change            TolE     ....  5.0000e-06 Eh
Max. Gradient            TolMAXG  ....  3.0000e-04 Eh/bohr
RMS Gradient             TolRMSG  ....  1.0000e-04 Eh/bohr
Max. Displacement        TolMAXD  ....  4.0000e-03 bohr
RMS Displacement         TolRMSD  ....  2.0000e-03 bohr
Strict Convergence                ....  False
------------------------------------------------------------------------------
                        ORCA OPTIMIZATION COORDINATE SETUP
------------------------------------------------------------------------------

The optimization will be done in new redundant internal coordinates
Making redundant internal coordinates   ...  (new redundants) done
Following TS mode number                ...    internal coordinate number: 26
TS-active-atoms for coordinate setup... 0 9 10 16 17 19 23 
Evaluating the initial hessian          ...  (Is done on the fly) done
Evaluating the coordinates              ...  done
Calculating the B-matrix                .... done
Calculating the G-matrix                .... done
Diagonalizing the G-matrix              .... done
Small eigenvalue found = 6.290e-03
Small eigenvalue found = 1.813e-02
The first mode is                       ....   96
The number of degrees of freedom        ....   93

    -----------------------------------------------------------------
                    Redundant Internal Coordinates


    -----------------------------------------------------------------
         Definition                    Initial Value    d2E/dq (diagonal element)
    -----------------------------------------------------------------
      1. B(C   1,C   0)                  1.3917         0.000000   
      2. B(C   2,C   0)                  2.4181         0.000000   
      3. B(C   2,C   1)                  1.3937         0.000000   
      4. B(C   3,C   2)                  1.3941         0.000000   
      5. B(C   3,C   0)                  2.7843         0.000000   
      6. B(C   4,C   3)                  1.3899         0.000000   
      7. B(C   4,C   0)                  2.4081         0.000000   
      8. B(C   5,C   0)                  1.3911         0.000000   
      9. B(C   5,C   4)                  1.3927         0.000000   
     10. B(H   6,C   1)                  1.0838         0.000000   
     11. B(H   7,C   3)                  1.0808         0.000000   
     12. B(H   8,C   5)                  1.0821         0.000000   
     13. B(N   9,C   2)                  2.4712         0.000000   
     14. B(H  10,N   9)                  1.0780         0.000000   
     15. B(C  11,N   9)                  1.4885         0.000000   
     16. B(C  11,H  10)                  2.0939         0.000000   
     17. B(H  12,C  11)                  1.0903         0.000000   
     18. B(H  13,C  11)                  1.0889         0.000000   
     19. B(H  14,N   9)                  1.0175         0.000000   
     20. B(C  17,C   2)                  1.5219         0.000000   
     21. B(C  17,H  10)                  2.0630         0.000000   
     22. B(C  17,H  16)                  2.0028         0.000000   
     23. B(C  17,C  11)                  2.5660         0.000000   
     24. B(C  17,C   3)                  2.5346         0.000000   
     25. B(C  17,C   1)                  2.5247         0.000000   
     26. B(C  17,N   9)                  1.5622         0.000000   
     27. B(H  18,C  17)                  1.0933         0.000000   
     28. B(O  19,H  18)                  2.0330         0.000000   
     29. B(O  19,N   9)                  2.3591         0.000000   
     30. B(O  19,C   3)                  2.9132         0.000000   
     31. B(O  19,C   2)                  2.4447         0.000000   
     32. B(O  19,C  17)                  1.3585         0.000000   
     33. B(O  19,H  16)                  1.1477         0.000000   
     34. B(C  20,N   9)                  2.5083         0.000000   
     35. B(C  20,C  11)                  1.5207         0.000000   
     36. B(H  21,C  20)                  1.0924         0.000000   
     37. B(H  22,C  20)                  1.0947         0.000000   
     38. B(O  23,C  17)                  2.9185         0.000000   
     39. B(O  23,N   9)                  2.5990         0.000000   
     40. B(O  23,O  19)                  2.4199         0.000000   
     41. B(O  23,H  10)                  1.6064         0.000000   
     42. B(O  23,H  16)                  1.2982         0.000000   
     43. B(O  23,H  15)                  0.9624         0.000000   
     44. B(C  24,C  20)                  1.5287         0.000000   
     45. B(H  25,C  24)                  1.0937         0.000000   
     46. B(H  26,C  24)                  1.0939         0.000000   
     47. B(H  27,C   4)                  1.0823         0.000000   
     48. B(H  28,C   0)                  1.0822         0.000000   
     49. B(C  29,C  24)                  1.5264         0.000000   
     50. B(H  30,C  29)                  1.0913         0.000000   
     51. B(H  31,C  29)                  1.0925         0.000000   
     52. B(H  32,C  29)                  1.0926         0.000000   
     53. A(C   1,C   0,H  28)          119.9699         0.000000   
     54. A(C   5,C   0,H  28)          120.1248         0.000000   
     55. A(C   1,C   0,C   5)          119.9043         0.000000   
     56. A(C   2,C   1,H   6)          119.6249         0.000000   
     57. A(C   0,C   1,C   2)          120.4890         0.000000   
     58. A(C   0,C   1,H   6)          119.8833         0.000000   
     59. A(C   1,C   2,C   3)          119.4069         0.000000   
     60. A(C   3,C   2,C  17)          120.6726         0.000000   
     61. A(C   1,C   2,C  17)          119.9160         0.000000   
     62. A(C   2,C   3,C   4)          120.1491         0.000000   
     63. A(C   4,C   3,H   7)          120.5655         0.000000   
     64. A(C   2,C   3,H   7)          119.2811         0.000000   
     65. A(C   3,C   4,C   5)          120.2792         0.000000   
     66. A(C   3,C   4,H  27)          119.7293         0.000000   
     67. A(C   5,C   4,H  27)          119.9913         0.000000   
     68. A(C   4,C   5,H   8)          120.1041         0.000000   
     69. A(C   0,C   5,C   4)          119.7706         0.000000   
     70. A(C   0,C   5,H   8)          120.1248         0.000000   
     71. A(C  11,N   9,C  17)          114.4941         0.000000   
     72. A(H  10,N   9,C  17)          101.1853         0.000000   
     73. A(C  11,N   9,H  14)          110.8023         0.000000   
     74. A(H  14,N   9,C  17)          110.9689         0.000000   
     75. A(H  10,N   9,C  11)          108.2861         0.000000   
     76. A(H  10,N   9,H  14)          110.6691         0.000000   
     77. A(N   9,C  11,C  20)          112.9243         0.000000   
     78. A(N   9,C  11,H  13)          106.3794         0.000000   
     79. A(N   9,C  11,H  12)          107.1450         0.000000   
     80. A(H  13,C  11,C  20)          111.6634         0.000000   
     81. A(H  12,C  11,C  20)          110.5756         0.000000   
     82. A(H  12,C  11,H  13)          107.8775         0.000000   
     83. A(O  19,H  16,O  23)          163.2463         0.000000   
     84. A(H  18,C  17,O  19)          111.5746         0.000000   
     85. A(N   9,C  17,O  19)          107.5418         0.000000   
     86. A(C   2,C  17,O  19)          116.0354         0.000000   
     87. A(N   9,C  17,H  18)          105.5666         0.000000   
     88. A(C   2,C  17,H  18)          108.9775         0.000000   
     89. A(C   2,C  17,N   9)          106.4945         0.000000   
     90. A(H  16,O  19,C  17)          105.7911         0.000000   
     91. A(H  22,C  20,C  24)          109.6308         0.000000   
     92. A(H  21,C  20,C  24)          109.3158         0.000000   
     93. A(C  11,C  20,C  24)          111.7582         0.000000   
     94. A(H  21,C  20,H  22)          106.8801         0.000000   
     95. A(C  11,C  20,H  22)          109.2015         0.000000   
     96. A(C  11,C  20,H  21)          109.9313         0.000000   
     97. A(H  15,O  23,H  16)          109.1244         0.000000   
     98. A(H  26,C  24,C  29)          109.6937         0.000000   
     99. A(H  25,C  24,C  29)          109.5769         0.000000   
    100. A(C  20,C  24,C  29)          112.6278         0.000000   
    101. A(H  25,C  24,H  26)          106.4051         0.000000   
    102. A(C  20,C  24,H  26)          109.2780         0.000000   
    103. A(C  20,C  24,H  25)          109.0647         0.000000   
    104. A(H  31,C  29,H  32)          107.6232         0.000000   
    105. A(H  30,C  29,H  32)          107.7353         0.000000   
    106. A(C  24,C  29,H  32)          111.1780         0.000000   
    107. A(H  30,C  29,H  31)          107.7598         0.000000   
    108. A(C  24,C  29,H  31)          111.0491         0.000000   
    109. A(C  24,C  29,H  30)          111.3228         0.000000   
    110. D(H   6,C   1,C   0,H  28)     -0.0708         0.000000   
    111. D(C   2,C   1,C   0,C   5)      0.2039         0.000000   
    112. D(C   2,C   1,C   0,H  28)   -179.4531         0.000000   
    113. D(H   6,C   1,C   0,C   5)    179.5863         0.000000   
    114. D(C  17,C   2,C   1,H   6)      1.3463         0.000000   
    115. D(C   3,C   2,C   1,H   6)   -179.4201         0.000000   
    116. D(C   3,C   2,C   1,C   0)     -0.0362         0.000000   
    117. D(C  17,C   2,C   1,C   0)   -179.2698         0.000000   
    118. D(C   4,C   3,C   2,C  17)    178.9977         0.000000   
    119. D(H   7,C   3,C   2,C   1)   -179.4814         0.000000   
    120. D(C   4,C   3,C   2,C   1)     -0.2299         0.000000   
    121. D(H   7,C   3,C   2,C  17)     -0.2538         0.000000   
    122. D(C   5,C   4,C   3,H   7)    179.5711         0.000000   
    123. D(C   5,C   4,C   3,C   2)      0.3293         0.000000   
    124. D(H  27,C   4,C   3,C   2)   -179.8533         0.000000   
    125. D(H  27,C   4,C   3,H   7)     -0.6115         0.000000   
    126. D(H   8,C   5,C   4,H  27)     -0.2373         0.000000   
    127. D(H   8,C   5,C   0,C   1)   -179.8453         0.000000   
    128. D(C   0,C   5,C   4,C   3)     -0.1604         0.000000   
    129. D(H   8,C   5,C   0,H  28)     -0.1888         0.000000   
    130. D(H   8,C   5,C   4,C   3)    179.5796         0.000000   
    131. D(C   4,C   5,C   0,H  28)    179.5511         0.000000   
    132. D(C   4,C   5,C   0,C   1)     -0.1054         0.000000   
    133. D(C   0,C   5,C   4,H  27)   -179.9773         0.000000   
    134. D(C  20,C  11,N   9,H  10)   -167.6981         0.000000   
    135. D(H  13,C  11,N   9,C  17)    -42.5505         0.000000   
    136. D(H  13,C  11,N   9,H  10)     69.4774         0.000000   
    137. D(H  13,C  11,N   9,H  14)   -168.9750         0.000000   
    138. D(H  12,C  11,N   9,C  17)   -157.7344         0.000000   
    139. D(H  12,C  11,N   9,H  14)     75.8411         0.000000   
    140. D(H  12,C  11,N   9,H  10)    -45.7065         0.000000   
    141. D(C  20,C  11,N   9,C  17)     80.2740         0.000000   
    142. D(C  20,C  11,N   9,H  14)    -46.1504         0.000000   
    143. D(O  19,C  17,N   9,H  14)   -158.5453         0.000000   
    144. D(O  19,C  17,N   9,H  10)    -41.0869         0.000000   
    145. D(H  18,C  17,N   9,H  14)     82.2199         0.000000   
    146. D(H  18,C  17,N   9,C  11)    -44.1182         0.000000   
    147. D(C   2,C  17,N   9,H  14)    -33.5372         0.000000   
    148. D(C   2,C  17,N   9,C  11)   -159.8754         0.000000   
    149. D(C   2,C  17,N   9,H  10)     83.9212         0.000000   
    150. D(O  19,C  17,C   2,C   3)     33.3191         0.000000   
    151. D(H  18,C  17,N   9,H  10)   -160.3216         0.000000   
    152. D(O  19,C  17,C   2,C   1)   -147.4571         0.000000   
    153. D(H  18,C  17,C   2,C   3)    160.2429         0.000000   
    154. D(H  18,C  17,C   2,C   1)    -20.5333         0.000000   
    155. D(O  19,C  17,N   9,C  11)     75.1165         0.000000   
    156. D(N   9,C  17,C   2,C   3)    -86.3168         0.000000   
    157. D(N   9,C  17,C   2,C   1)     92.9069         0.000000   
    158. D(H  16,O  19,C  17,H  18)    153.7007         0.000000   
    159. D(H  16,O  19,C  17,N   9)     38.3827         0.000000   
    160. D(H  16,O  19,C  17,C   2)    -80.6832         0.000000   
    161. D(C  17,O  19,H  16,O  23)    -13.5723         0.000000   
    162. D(C  24,C  20,C  11,H  13)    -59.8385         0.000000   
    163. D(C  24,C  20,C  11,H  12)     60.2891         0.000000   
    164. D(C  24,C  20,C  11,N   9)   -179.6688         0.000000   
    165. D(H  22,C  20,C  11,H  13)    178.6923         0.000000   
    166. D(H  22,C  20,C  11,H  12)    -61.1801         0.000000   
    167. D(H  22,C  20,C  11,N   9)     58.8620         0.000000   
    168. D(H  21,C  20,C  11,H  13)     61.7334         0.000000   
    169. D(H  21,C  20,C  11,H  12)   -178.1390         0.000000   
    170. D(H  21,C  20,C  11,N   9)    -58.0970         0.000000   
    171. D(H  15,O  23,H  16,O  19)   -119.3487         0.000000   
    172. D(H  25,C  24,C  20,C  11)     57.3562         0.000000   
    173. D(C  29,C  24,C  20,H  21)     57.3093         0.000000   
    174. D(C  29,C  24,C  20,C  11)    179.2358         0.000000   
    175. D(H  26,C  24,C  20,H  22)     62.6362         0.000000   
    176. D(H  26,C  24,C  20,H  21)    179.4889         0.000000   
    177. D(H  26,C  24,C  20,C  11)    -58.5846         0.000000   
    178. D(H  25,C  24,C  20,H  22)    178.5770         0.000000   
    179. D(C  29,C  24,C  20,H  22)    -59.5434         0.000000   
    180. D(H  25,C  24,C  20,H  21)    -64.5703         0.000000   
    181. D(H  32,C  29,C  24,H  26)    -61.9838         0.000000   
    182. D(H  32,C  29,C  24,C  20)     59.9610         0.000000   
    183. D(H  31,C  29,C  24,H  26)    178.2144         0.000000   
    184. D(H  31,C  29,C  24,H  25)     61.7484         0.000000   
    185. D(H  31,C  29,C  24,C  20)    -59.8408         0.000000   
    186. D(H  30,C  29,C  24,H  26)     58.1433         0.000000   
    187. D(H  32,C  29,C  24,H  25)   -178.4498         0.000000   
    188. D(H  30,C  29,C  24,H  25)    -58.3227         0.000000   
    189. D(H  30,C  29,C  24,C  20)   -179.9119         0.000000   
    -----------------------------------------------------------------

Number of atoms                         .... 33
Number of degrees of freedom            .... 189

         *************************************************************
         *                GEOMETRY OPTIMIZATION CYCLE   1            *
         *************************************************************
      -----------------------------------------------------------      
     |                   =====================                   |     
     |                           x T B                           |     
     |                   =====================                   |     
     |                         S. Grimme                         |     
     |          Mulliken Center for Theoretical Chemistry        |     
     |                    University of Bonn                     |     
      -----------------------------------------------------------      

   * xtb version 6.3.0 (49875a8) compiled by 'schneider@apollo14' on 2020-05-23

   xtb is free software: you can redistribute it and/or modify it under
   the terms of the GNU Lesser General Public License as published by
   the Free Software Foundation, either version 3 of the License, or
   (at your option) any later version.
   
   xtb is distributed in the hope that it will be useful,
   but WITHOUT ANY WARRANTY; without even the implied warranty of
   MERCHANTABILITY or FITNESS FOR A PARTICULAR PURPOSE.  See the
   GNU Lesser General Public License for more details.
   
   Cite this work as:
   * S. Grimme, C. Bannwarth, P. Shushkov, J. Chem. Theory Comput., 2017,
     13, 1989-2009. DOI: 10.1021/acs.jctc.7b00118
   * C. Bannwarth, S. Ehlert and S. Grimme., J. Chem. Theory Comput., 2019,
     15, 1652-1671. DOI: 10.1021/acs.jctc.8b01176
   * P. Pracht, E. Caldeweyher, S. Ehlert, S. Grimme, ChemRxiv, 2019, preprint.
     DOI: 10.26434/chemrxiv.8326202.v1
   
   for GFN-FF:
   * S. Spicher and S. Grimme, Angew. Chem. Int. Ed., 2020,
     DOI: 10.1002/anie.202004239
   
   for DFT-D4:
   * E. Caldeweyher, C. Bannwarth and S. Grimme, J. Chem. Phys., 2017,
     147, 034112. DOI: 10.1063/1.4993215
   * E. Caldeweyher, S. Ehlert, A. Hansen, H. Neugebauer, S. Spicher,
     C. Bannwarth and S. Grimme, J. Chem. Phys., 2019, 150, 154122.
     DOI: 10.1063/1.5090222
   
   for sTDA-xTB:
   * S. Grimme and C. Bannwarth, J. Chem. Phys., 2016, 145, 054103.
     DOI: 10.1063/1.4959605
   
   in the mass-spec context:
   * V. Asgeirsson, C. Bauer and S. Grimme, Chem. Sci., 2017, 8, 4879.
     DOI: 10.1039/c7sc00601b
   * J. Koopman and S. Grimme, ACS Omega 2019, 4, 12, 15120-15133.
     DOI: 10.1021/acsomega.9b02011
   
   for metadynamics refer to:
   * S. Grimme, J. Chem. Theory Comput., 2019, 155, 2847-2862
     DOI: 10.1021/acs.jctc.9b00143
   
   with help from (in alphabetical order)
   C. Bannwarth, F. Bohle, G. Brandenburg, E. Caldeweyher, M. Checinski,
   S. Dohm, S. Ehlert, S. Ehrlich, F. März, H. Neugebauer, J. Pisarek,
   P. Pracht, P. Shushkov, and S. Spicher.
   
 * started run on 2020/06/19 at 20:01:46.245     

           -------------------------------------------------
          |                Calculation Setup                |
           -------------------------------------------------

          program call               : /opt/orca/otool_xtb optts+freq_XTB.xyz --grad -c 0 -u 0 -P 12 --namespace optts+freq --gbsa CH2Cl2
          calculation namespace      : optts+freq
          coordinate file            : optts+freq_XTB.xyz
          number of atoms            :                    33
          number of electrons        :                    80
          charge                     :                     0
          spin                       :                   0.0
          first test random number   :      0.16907601478597

   ID    Z sym.   atoms
    1    6 C      1-6, 12, 18, 21, 25, 30
    2    1 H      7-9, 11, 13-17, 19, 22, 23, 26-29, 31-33
    3    7 N      10
    4    8 O      20, 24

molecular fragmentation (1/2 indicates fragments):
111111111111111211111112111111111
# atoms in fragment 1/2:    31     2
 fragment masses (1/2) :      180.27       17.01
CMA distance (Bohr)    :   6.392
constraining FC (au)   :  0.0500
########################################################################
[WARNING] Please study the warnings concerning your input carefully
-1- prog_main_parseArguments: Process number higher than OMP_NUM_THREADS, I hope you know what you are doing.
########################################################################
 Solvent             : CH2Cl2
 Using internal parameter file: .param_gbsa2_CH2Cl2
 Gsolv ref. state (COSMO-RS): gsolv [1 M gas/solution]
 temperature (mdtemp)       :    298.14999999999998     
 dielectric constant        :    8.9299999999999997     
 rho                        :    1.3300000000000003     
 mass                       :    84.930000000000007     
 surface tension            :    15.568945408385856     
 probe radius               :   0.71987590000000001     
 Gshift (Eh)                :    4.4408291734517593E-003
 c1                         :    1.4917377599999999     
 soset                      :    0.0000000000000000     
 HB correction              :  F

           -------------------------------------------------
          |                 G F N 2 - x T B                 |
           -------------------------------------------------

        Reference                      10.1021/acs.jctc.8b01176
      * Hamiltonian:
        H0-scaling (s, p, d)           1.850000    2.230000    2.230000
        zeta-weighting                 0.500000
      * Dispersion:
        s8                             2.700000
        a1                             0.520000
        a2                             5.000000
        s9                             5.000000
      * Repulsion:
        kExp                           1.500000    1.000000
        rExp                           1.000000
      * Coulomb:
        alpha                          2.000000
        third order                    shell-resolved
        anisotropic                    true
        a3                             3.000000
        a5                             4.000000
        cn-shift                       1.200000
        cn-exp                         4.000000
        max-rad                        5.000000


          ...................................................
          :                      SETUP                      :
          :.................................................:
          :  # basis functions                  75          :
          :  # atomic orbitals                  75          :
          :  # shells                           47          :
          :  # electrons                        80          :
          :  max. iterations                   250          :
          :  Hamiltonian                  GFN2-xTB          :
          :  restarted?                      false          :
          :  GBSA solvation                   true          :
          :  PC potential                    false          :
          :  electronic temp.          300.0000000     K    :
          :  accuracy                    1.0000000          :
          :  -> integral cutoff          0.2500000E+02      :
          :  -> integral neglect         0.1000000E-07      :
          :  -> SCF convergence          0.1000000E-05 Eh   :
          :  -> wf. convergence          0.1000000E-03 e    :
          :  Broyden damping             0.4000000          :
          ...................................................

 iter      E             dE          RMSdq      gap      omega  full diag
   1    -44.7087299 -0.447087E+02  0.374E+00    4.63       0.0  T
   2    -44.8233263 -0.114596E+00  0.206E+00    4.22       1.0  T
   3    -44.8264288 -0.310245E-02  0.946E-01    3.65       1.0  T
   4    -44.8255453  0.883466E-03  0.328E-01    3.58       1.0  T
   5    -44.8285723 -0.302693E-02  0.831E-02    3.64       1.0  T
   6    -44.8286055 -0.332094E-04  0.283E-02    3.70       1.0  T
   7    -44.8286072 -0.172334E-05  0.140E-02    3.70       1.2  T
   8    -44.8286094 -0.216455E-05  0.443E-03    3.70       3.9  T
   9    -44.8286095 -0.111798E-06  0.193E-03    3.69       9.0  T
  10    -44.8286095 -0.371781E-07  0.784E-04    3.69      22.2  T
  11    -44.8286095 -0.235011E-08  0.374E-04    3.69      46.5  T

   *** convergence criteria satisfied after 11 iterations ***

         #    Occupation            Energy/Eh            Energy/eV
      -------------------------------------------------------------
         1        2.0000           -0.6968728             -18.9629
       ...           ...                  ...                  ...
        34        2.0000           -0.4325937             -11.7715
        35        2.0000           -0.4270645             -11.6210
        36        2.0000           -0.4121247             -11.2145
        37        2.0000           -0.4103826             -11.1671
        38        2.0000           -0.3978048             -10.8248
        39        2.0000           -0.3895918             -10.6013
        40        2.0000           -0.3745660             -10.1925 (HOMO)
        41                         -0.2387818              -6.4976 (LUMO)
        42                         -0.2315546              -6.3009
        43                         -0.1182052              -3.2165
        44                         -0.0665212              -1.8101
        45                         -0.0146539              -0.3988
       ...                                ...                  ...
        75                          0.6384298              17.3726
      -------------------------------------------------------------
                  HL-Gap            0.1357842 Eh            3.6949 eV
             Fermi-level           -0.3066739 Eh           -8.3450 eV

 SCC (total)                   0 d,  0 h,  0 min,  0.093 sec
 SCC setup                      ...        0 min,  0.001 sec (  1.458%)
 Dispersion                     ...        0 min,  0.000 sec (  0.524%)
 classical contributions        ...        0 min,  0.000 sec (  0.153%)
 integral evaluation            ...        0 min,  0.016 sec ( 17.647%)
 iterations                     ...        0 min,  0.044 sec ( 46.960%)
 molecular gradient             ...        0 min,  0.029 sec ( 30.927%)
 printout                       ...        0 min,  0.002 sec (  2.309%)

         :::::::::::::::::::::::::::::::::::::::::::::::::::::
         ::                     SUMMARY                     ::
         :::::::::::::::::::::::::::::::::::::::::::::::::::::
         :: total energy             -44.263244346057 Eh    ::
         :: total w/o Gsasa/hb       -44.246908501289 Eh    ::
         :: gradient norm              0.034857044219 Eh/a0 ::
         :: HOMO-LUMO gap              3.694876257241 eV    ::
         ::.................................................::
         :: SCC energy               -44.844945355701 Eh    ::
         :: -> isotropic ES            0.137130555619 Eh    ::
         :: -> anisotropic ES         -0.005162955170 Eh    ::
         :: -> anisotropic XC          0.018832019064 Eh    ::
         :: -> dispersion             -0.026504289478 Eh    ::
         :: -> Gsolv                  -0.037400070802 Eh    ::
         ::    -> Gborn               -0.021064226034 Eh    ::
         ::    -> Gsasa               -0.020776673942 Eh    ::
         ::    -> Ghb                  0.000000000000 Eh    ::
         ::    -> Gshift               0.004440829173 Eh    ::
         :: repulsion energy           0.581635960523 Eh    ::
         :: add. restraining           0.000000000000 Eh    ::
         :::::::::::::::::::::::::::::::::::::::::::::::::::::

           -------------------------------------------------
          |                Property Printout                |
           -------------------------------------------------

    * Orbital Energies and Occupations

         #    Occupation            Energy/Eh            Energy/eV
      -------------------------------------------------------------
         1        2.0000           -0.6968728             -18.9629
       ...           ...                  ...                  ...
        28        2.0000           -0.4792789             -13.0418
        29        2.0000           -0.4677647             -12.7285
        30        2.0000           -0.4585420             -12.4776
        31        2.0000           -0.4556891             -12.3999
        32        2.0000           -0.4457647             -12.1299
        33        2.0000           -0.4407608             -11.9937
        34        2.0000           -0.4325937             -11.7715
        35        2.0000           -0.4270645             -11.6210
        36        2.0000           -0.4121247             -11.2145
        37        2.0000           -0.4103826             -11.1671
        38        2.0000           -0.3978048             -10.8248
        39        2.0000           -0.3895918             -10.6013
        40        2.0000           -0.3745660             -10.1925 (HOMO)
        41                         -0.2387818              -6.4976 (LUMO)
        42                         -0.2315546              -6.3009
        43                         -0.1182052              -3.2165
        44                         -0.0665212              -1.8101
        45                         -0.0146539              -0.3988
        46                          0.0321402               0.8746
        47                          0.0658589               1.7921
        48                          0.0745899               2.0297
        49                          0.0926898               2.5222
        50                          0.1045796               2.8458
        51                          0.1159928               3.1563
       ...                                ...                  ...
        75                          0.6384298              17.3726
      -------------------------------------------------------------
                  HL-Gap            0.1357842 Eh            3.6949 eV
             Fermi-level           -0.3066739 Eh           -8.3450 eV

     #   Z        covCN         q      C6AA      α(0)
     1   6 C      2.914    -0.029    28.729     8.789
     2   6 C      2.918    -0.042    29.041     8.837
     3   6 C      2.965    -0.025    28.623     8.776
     4   6 C      2.917    -0.029    28.713     8.787
     5   6 C      2.915    -0.029    28.714     8.787
     6   6 C      2.915    -0.028    28.705     8.786
     7   1 H      0.925     0.042     2.426     2.436
     8   1 H      0.926     0.051     2.305     2.374
     9   1 H      0.925     0.044     2.392     2.419
    10   7 N      3.515    -0.123    23.662     7.225
    11   1 H      0.854     0.275     0.792     1.395
    12   6 C      3.733    -0.015    20.926     6.529
    13   1 H      0.924     0.076     2.025     2.226
    14   1 H      0.925     0.085     1.927     2.171
    15   1 H      0.860     0.209     1.062     1.614
    16   1 H      0.805     0.204     1.096     1.644
    17   1 H      1.001     0.342     0.595     1.205
    18   6 C      3.653     0.180    18.001     6.092
    19   1 H      0.924     0.043     2.416     2.430
    20   8 O      1.534    -0.576    24.695     6.703
    21   6 C      3.801    -0.070    21.834     6.653
    22   1 H      0.924     0.054     2.275     2.359
    23   1 H      0.924     0.054     2.266     2.354
    24   8 O      1.127    -0.822    32.020     7.596
    25   6 C      3.800    -0.056    21.576     6.613
    26   1 H      0.924     0.041     2.442     2.444
    27   1 H      0.924     0.042     2.425     2.435
    28   1 H      0.925     0.040     2.447     2.446
    29   1 H      0.925     0.047     2.359     2.402
    30   6 C      3.750    -0.106    22.592     6.779
    31   1 H      0.924     0.041     2.441     2.443
    32   1 H      0.924     0.039     2.458     2.452
    33   1 H      0.924     0.041     2.440     2.443

 Mol. C6AA /au·bohr⁶  :       9405.425089
 Mol. C8AA /au·bohr⁸  :     210089.172896
 Mol. α(0) /au        :        148.642875


Wiberg/Mayer (AO) data.
largest (>0.10) Wiberg bond orders for each atom
          total WBO             WBO to atom ...
     1  C   3.991        C    2 1.442    C    6 1.439    H   29 0.970    C    4 0.112
     2  C   3.990        C    1 1.442    C    3 1.414    H    7 0.968    C    5 0.112
     3  C   3.985        C    4 1.414    C    2 1.414    C   18 0.970    C    6 0.109
     4  C   3.990        C    5 1.444    C    3 1.414    H    8 0.965    C    1 0.112
     5  C   3.991        C    4 1.444    C    6 1.438    H   28 0.971    C    2 0.112
     6  C   3.990        C    1 1.439    C    5 1.438    H    9 0.971    C    3 0.109
     7  H   0.998        C    2 0.968
     8  H   0.997        C    4 0.965
     9  H   0.997        C    6 0.971
    10  N   3.665        C   12 0.954    H   15 0.931    C   18 0.838    H   11 0.761
    11  H   0.924        N   10 0.761    O   24 0.143
    12  C   3.934        C   21 1.010    H   13 0.969    H   14 0.968    N   10 0.954
    13  H   0.994        C   12 0.969
    14  H   0.993        C   12 0.968
    15  H   0.956        N   10 0.931
    16  H   0.958        O   24 0.953
    17  H   0.883        O   20 0.511    O   24 0.354
    18  C   3.932        O   20 1.111    C    3 0.970    H   19 0.949    N   10 0.838
    19  H   0.998        C   18 0.949
    20  O   1.855        C   18 1.111    H   17 0.511
    21  C   3.990        C   12 1.010    C   25 1.003    H   23 0.973    H   22 0.971
    22  H   0.997        C   21 0.971
    23  H   0.997        C   21 0.973
    24  O   1.635        H   16 0.953    H   17 0.354    H   11 0.143
    25  C   3.994        C   30 1.020    C   21 1.003    H   26 0.977    H   27 0.977
    26  H   0.998        C   25 0.977
    27  H   0.998        C   25 0.977
    28  H   0.998        C    5 0.971
    29  H   0.997        C    1 0.970
    30  C   3.995        C   25 1.020    H   32 0.987    H   33 0.987    H   31 0.986
    31  H   0.998        C   30 0.986
    32  H   0.998        C   30 0.987
    33  H   0.998        C   30 0.987
Topologies differ in total number of bonds
Writing topology from bond orders to xtbtopo.mol

molecular dipole:
                 x           y           z       tot (Debye)
 q only:       -3.030       0.595      -1.177
   full:       -3.068       0.326      -1.197       8.411
molecular quadrupole (traceless):
                xx          xy          yy          xz          yz          zz
 q only:        0.750      14.504       5.085     -39.631       4.279      -5.835
  q+dip:       -1.819      11.341       7.705     -39.889      -0.514      -5.886
   full:       -1.857      12.877       8.298     -39.245       0.408      -6.441


           -------------------------------------------------
          | TOTAL ENERGY              -44.263244346057 Eh   |
          | GRADIENT NORM               0.034857044219 Eh/α |
          | HOMO-LUMO GAP               3.694876257241 eV   |
           -------------------------------------------------

------------------------------------------------------------------------
 * finished run on 2020/06/19 at 20:01:46.382     
------------------------------------------------------------------------
 total:
 * wall-time:     0 d,  0 h,  0 min,  0.138 sec
 *  cpu-time:     0 d,  0 h,  0 min,  1.516 sec
 * ratio c/w:    11.024 speedup
 SCF:
 * wall-time:     0 d,  0 h,  0 min,  0.094 sec
 *  cpu-time:     0 d,  0 h,  0 min,  1.071 sec
 * ratio c/w:    11.355 speedup


-------------------------   --------------------
FINAL SINGLE POINT ENERGY       -44.263244346060
-------------------------   --------------------


----------------------------------------------------------------------------
                           ORCA NUMERICAL FREQUENCIES
                              (12-process run)
----------------------------------------------------------------------------

Number of atoms                ... 33
Central differences            ... used
Number of displacements        ... 198
Numerical increment            ... 5.000e-03 bohr
IR-spectrum generation         ... on
Raman-spectrum generation      ... off
Surface Crossing Hessian       ... off
List of participating nodes    ...  optts+freq.hostnames

The output will be reduced. Please look at the following files:
SCF program output             ... >optts+freq.lastscf
Integral program output        ... >optts+freq.lastint
Gradient program output        ... >optts+freq.lastgrad
Dipole moment program output   ... >optts+freq.lastmom
AutoCI program output          ... >optts+freq.lastautoci


         <<< Energy and Gradient at the input geometry >>>

        <<< Energy and Gradient at displaced geometries >>>
             <<<Displacing   2/coordinate 1 (+)>>>
             <<<Displacing   3/coordinate 1 (+)>>>
             <<<Displacing   1/coordinate 2 (+)>>>
             <<<Displacing   4/coordinate 2 (+)>>>
             <<<Displacing   2/coordinate 2 (+)>>>
             <<<Displacing   4/coordinate 1 (+)>>>
             <<<Displacing   2/coordinate 3 (+)>>>
             <<<Displacing   1/coordinate 1 (+)>>>
             <<<Displacing   4/coordinate 3 (+)>>>
             <<<Displacing   3/coordinate 3 (+)>>>
             <<<Displacing   1/coordinate 3 (+)>>>
             <<<Displacing   2/coordinate 1 (-)>>>
             <<<Displacing   3/coordinate 2 (+)>>>
             <<<Displacing   2/coordinate 2 (-)>>>
             <<<Displacing   3/coordinate 1 (-)>>>
             <<<Displacing   1/coordinate 2 (-)>>>
             <<<Displacing   4/coordinate 2 (-)>>>
             <<<Displacing   4/coordinate 1 (-)>>>
             <<<Displacing   1/coordinate 1 (-)>>>
             <<<Displacing   2/coordinate 3 (-)>>>
             <<<Displacing   3/coordinate 3 (-)>>>
             <<<Displacing   1/coordinate 3 (-)>>>
             <<<Displacing   3/coordinate 2 (-)>>>
             <<<Displacing   4/coordinate 3 (-)>>>
             <<<Displacing   5/coordinate 1 (+)>>>
             <<<Displacing   5/coordinate 3 (+)>>>
             <<<Displacing   5/coordinate 2 (+)>>>
             <<<Displacing   6/coordinate 3 (+)>>>
             <<<Displacing   6/coordinate 1 (+)>>>
             <<<Displacing   6/coordinate 2 (+)>>>
             <<<Displacing   7/coordinate 1 (+)>>>
             <<<Displacing   5/coordinate 2 (-)>>>
             <<<Displacing   5/coordinate 1 (-)>>>
             <<<Displacing   5/coordinate 3 (-)>>>
             <<<Displacing   6/coordinate 3 (-)>>>
             <<<Displacing   7/coordinate 2 (+)>>>
             <<<Displacing   7/coordinate 1 (-)>>>
             <<<Displacing   8/coordinate 1 (+)>>>
             <<<Displacing   6/coordinate 2 (-)>>>
             <<<Displacing   6/coordinate 1 (-)>>>
             <<<Displacing   7/coordinate 3 (+)>>>
             <<<Displacing   8/coordinate 2 (+)>>>
             <<<Displacing   7/coordinate 2 (-)>>>
             <<<Displacing   8/coordinate 3 (+)>>>
             <<<Displacing   8/coordinate 1 (-)>>>
             <<<Displacing   8/coordinate 2 (-)>>>
             <<<Displacing   7/coordinate 3 (-)>>>
             <<<Displacing   8/coordinate 3 (-)>>>
             <<<Displacing   9/coordinate 1 (+)>>>
             <<<Displacing   9/coordinate 2 (+)>>>
             <<<Displacing  10/coordinate 3 (+)>>>
             <<<Displacing  11/coordinate 1 (+)>>>
             <<<Displacing   9/coordinate 1 (-)>>>
             <<<Displacing   9/coordinate 3 (+)>>>
             <<<Displacing  12/coordinate 3 (+)>>>
             <<<Displacing   9/coordinate 2 (-)>>>
             <<<Displacing  10/coordinate 3 (-)>>>
             <<<Displacing  10/coordinate 2 (+)>>>
             <<<Displacing  10/coordinate 1 (+)>>>
             <<<Displacing  11/coordinate 1 (-)>>>
             <<<Displacing   9/coordinate 3 (-)>>>
             <<<Displacing  12/coordinate 3 (-)>>>
             <<<Displacing  11/coordinate 2 (+)>>>
             <<<Displacing  11/coordinate 3 (+)>>>
             <<<Displacing  10/coordinate 1 (-)>>>
             <<<Displacing  10/coordinate 2 (-)>>>
             <<<Displacing  11/coordinate 2 (-)>>>
             <<<Displacing  12/coordinate 1 (+)>>>
             <<<Displacing  11/coordinate 3 (-)>>>
             <<<Displacing  12/coordinate 2 (+)>>>
             <<<Displacing  12/coordinate 1 (-)>>>
             <<<Displacing  12/coordinate 2 (-)>>>
             <<<Displacing  13/coordinate 1 (+)>>>
             <<<Displacing  13/coordinate 3 (+)>>>
             <<<Displacing  13/coordinate 2 (+)>>>
             <<<Displacing  15/coordinate 2 (+)>>>
             <<<Displacing  13/coordinate 1 (-)>>>
             <<<Displacing  14/coordinate 3 (+)>>>
             <<<Displacing  14/coordinate 1 (+)>>>
             <<<Displacing  14/coordinate 2 (+)>>>
             <<<Displacing  13/coordinate 3 (-)>>>
             <<<Displacing  16/coordinate 3 (+)>>>
             <<<Displacing  13/coordinate 2 (-)>>>
             <<<Displacing  16/coordinate 2 (+)>>>
             <<<Displacing  15/coordinate 2 (-)>>>
             <<<Displacing  14/coordinate 3 (-)>>>
             <<<Displacing  14/coordinate 1 (-)>>>
             <<<Displacing  14/coordinate 2 (-)>>>
             <<<Displacing  16/coordinate 2 (-)>>>
             <<<Displacing  15/coordinate 1 (+)>>>
             <<<Displacing  16/coordinate 3 (-)>>>
             <<<Displacing  15/coordinate 3 (+)>>>
             <<<Displacing  15/coordinate 3 (-)>>>
             <<<Displacing  16/coordinate 1 (+)>>>
             <<<Displacing  15/coordinate 1 (-)>>>
             <<<Displacing  16/coordinate 1 (-)>>>
             <<<Displacing  17/coordinate 1 (+)>>>
             <<<Displacing  17/coordinate 2 (+)>>>
             <<<Displacing  17/coordinate 3 (+)>>>
             <<<Displacing  18/coordinate 1 (+)>>>
             <<<Displacing  18/coordinate 2 (+)>>>
             <<<Displacing  17/coordinate 2 (-)>>>
             <<<Displacing  17/coordinate 1 (-)>>>
             <<<Displacing  19/coordinate 2 (+)>>>
             <<<Displacing  19/coordinate 1 (+)>>>
             <<<Displacing  18/coordinate 3 (+)>>>
             <<<Displacing  17/coordinate 3 (-)>>>
             <<<Displacing  18/coordinate 1 (-)>>>
             <<<Displacing  19/coordinate 3 (+)>>>
             <<<Displacing  20/coordinate 1 (+)>>>
             <<<Displacing  18/coordinate 2 (-)>>>
             <<<Displacing  19/coordinate 2 (-)>>>
             <<<Displacing  18/coordinate 3 (-)>>>
             <<<Displacing  19/coordinate 1 (-)>>>
             <<<Displacing  20/coordinate 3 (+)>>>
             <<<Displacing  20/coordinate 1 (-)>>>
             <<<Displacing  19/coordinate 3 (-)>>>
             <<<Displacing  20/coordinate 3 (-)>>>
             <<<Displacing  20/coordinate 2 (+)>>>
             <<<Displacing  20/coordinate 2 (-)>>>
             <<<Displacing  21/coordinate 1 (+)>>>
             <<<Displacing  21/coordinate 1 (-)>>>
             <<<Displacing  22/coordinate 1 (+)>>>
             <<<Displacing  21/coordinate 2 (+)>>>
             <<<Displacing  23/coordinate 2 (+)>>>
             <<<Displacing  22/coordinate 1 (-)>>>
             <<<Displacing  21/coordinate 3 (+)>>>
             <<<Displacing  22/coordinate 2 (+)>>>
             <<<Displacing  21/coordinate 2 (-)>>>
             <<<Displacing  22/coordinate 3 (+)>>>
             <<<Displacing  23/coordinate 2 (-)>>>
             <<<Displacing  23/coordinate 3 (+)>>>
             <<<Displacing  22/coordinate 3 (-)>>>
             <<<Displacing  21/coordinate 3 (-)>>>
             <<<Displacing  22/coordinate 2 (-)>>>
             <<<Displacing  23/coordinate 1 (+)>>>
             <<<Displacing  23/coordinate 3 (-)>>>
             <<<Displacing  24/coordinate 1 (+)>>>
             <<<Displacing  24/coordinate 2 (+)>>>
             <<<Displacing  24/coordinate 1 (-)>>>
             <<<Displacing  23/coordinate 1 (-)>>>
             <<<Displacing  24/coordinate 2 (-)>>>
             <<<Displacing  24/coordinate 3 (+)>>>
             <<<Displacing  24/coordinate 3 (-)>>>
             <<<Displacing  25/coordinate 1 (+)>>>
             <<<Displacing  25/coordinate 3 (+)>>>
             <<<Displacing  25/coordinate 1 (-)>>>
             <<<Displacing  25/coordinate 2 (+)>>>
             <<<Displacing  26/coordinate 1 (+)>>>
             <<<Displacing  25/coordinate 2 (-)>>>
             <<<Displacing  25/coordinate 3 (-)>>>
             <<<Displacing  26/coordinate 1 (-)>>>
             <<<Displacing  26/coordinate 2 (+)>>>
             <<<Displacing  27/coordinate 2 (+)>>>
             <<<Displacing  27/coordinate 1 (+)>>>
             <<<Displacing  28/coordinate 1 (+)>>>
             <<<Displacing  26/coordinate 2 (-)>>>
             <<<Displacing  27/coordinate 2 (-)>>>
             <<<Displacing  26/coordinate 3 (+)>>>
             <<<Displacing  27/coordinate 3 (+)>>>
             <<<Displacing  27/coordinate 1 (-)>>>
             <<<Displacing  28/coordinate 1 (-)>>>
             <<<Displacing  26/coordinate 3 (-)>>>
             <<<Displacing  27/coordinate 3 (-)>>>
             <<<Displacing  28/coordinate 2 (+)>>>
             <<<Displacing  28/coordinate 2 (-)>>>
             <<<Displacing  28/coordinate 3 (+)>>>
             <<<Displacing  28/coordinate 3 (-)>>>
             <<<Displacing  29/coordinate 1 (+)>>>
             <<<Displacing  29/coordinate 3 (+)>>>
             <<<Displacing  29/coordinate 1 (-)>>>
             <<<Displacing  29/coordinate 2 (+)>>>
             <<<Displacing  29/coordinate 2 (-)>>>
             <<<Displacing  29/coordinate 3 (-)>>>
             <<<Displacing  30/coordinate 1 (+)>>>
             <<<Displacing  30/coordinate 2 (+)>>>
             <<<Displacing  31/coordinate 1 (+)>>>
             <<<Displacing  30/coordinate 1 (-)>>>
             <<<Displacing  31/coordinate 3 (+)>>>
             <<<Displacing  30/coordinate 2 (-)>>>
             <<<Displacing  30/coordinate 3 (+)>>>
             <<<Displacing  31/coordinate 1 (-)>>>
             <<<Displacing  31/coordinate 3 (-)>>>
             <<<Displacing  31/coordinate 2 (+)>>>
             <<<Displacing  30/coordinate 3 (-)>>>
             <<<Displacing  32/coordinate 1 (+)>>>
             <<<Displacing  31/coordinate 2 (-)>>>
             <<<Displacing  32/coordinate 2 (+)>>>
             <<<Displacing  32/coordinate 1 (-)>>>
             <<<Displacing  32/coordinate 2 (-)>>>
             <<<Displacing  32/coordinate 3 (+)>>>
             <<<Displacing  32/coordinate 3 (-)>>>
             <<<Displacing  33/coordinate 1 (+)>>>
             <<<Displacing  33/coordinate 2 (+)>>>
             <<<Displacing  33/coordinate 1 (-)>>>
             <<<Displacing  33/coordinate 3 (+)>>>
             <<<Displacing  33/coordinate 3 (-)>>>
             <<<Displacing  33/coordinate 2 (-)>>>

-----------------------
VIBRATIONAL FREQUENCIES
-----------------------

Scaling factor for frequencies =  1.000000000 (already applied!)

   0:         0.00 cm**-1
   1:         0.00 cm**-1
   2:         0.00 cm**-1
   3:         0.00 cm**-1
   4:         0.00 cm**-1
   5:         0.00 cm**-1
   6:      -622.26 cm**-1 ***imaginary mode***
   7:        50.14 cm**-1
   8:        51.27 cm**-1
   9:        66.18 cm**-1
  10:        80.40 cm**-1
  11:        90.84 cm**-1
  12:       118.78 cm**-1
  13:       129.79 cm**-1
  14:       177.96 cm**-1
  15:       212.86 cm**-1
  16:       231.30 cm**-1
  17:       255.08 cm**-1
  18:       276.89 cm**-1
  19:       341.38 cm**-1
  20:       380.29 cm**-1
  21:       383.50 cm**-1
  22:       402.29 cm**-1
  23:       466.86 cm**-1
  24:       502.75 cm**-1
  25:       519.57 cm**-1
  26:       589.31 cm**-1
  27:       603.04 cm**-1
  28:       619.67 cm**-1
  29:       627.05 cm**-1
  30:       671.89 cm**-1
  31:       691.66 cm**-1
  32:       754.79 cm**-1
  33:       768.92 cm**-1
  34:       787.58 cm**-1
  35:       825.28 cm**-1
  36:       842.93 cm**-1
  37:       884.71 cm**-1
  38:       911.25 cm**-1
  39:       926.38 cm**-1
  40:       933.16 cm**-1
  41:       940.18 cm**-1
  42:       950.08 cm**-1
  43:       957.36 cm**-1
  44:       980.72 cm**-1
  45:      1016.97 cm**-1
  46:      1060.98 cm**-1
  47:      1070.95 cm**-1
  48:      1082.93 cm**-1
  49:      1105.64 cm**-1
  50:      1112.87 cm**-1
  51:      1129.37 cm**-1
  52:      1141.54 cm**-1
  53:      1180.19 cm**-1
  54:      1187.39 cm**-1
  55:      1191.46 cm**-1
  56:      1201.19 cm**-1
  57:      1211.31 cm**-1
  58:      1233.88 cm**-1
  59:      1251.87 cm**-1
  60:      1267.14 cm**-1
  61:      1275.67 cm**-1
  62:      1280.00 cm**-1
  63:      1283.20 cm**-1
  64:      1286.94 cm**-1
  65:      1311.59 cm**-1
  66:      1335.47 cm**-1
  67:      1339.84 cm**-1
  68:      1368.74 cm**-1
  69:      1383.80 cm**-1
  70:      1425.36 cm**-1
  71:      1429.16 cm**-1
  72:      1457.24 cm**-1
  73:      1461.54 cm**-1
  74:      1492.78 cm**-1
  75:      1502.59 cm**-1
  76:      1506.37 cm**-1
  77:      1509.58 cm**-1
  78:      1527.49 cm**-1
  79:      1567.80 cm**-1
  80:      1572.17 cm**-1
  81:      2290.25 cm**-1
  82:      2921.54 cm**-1
  83:      2947.30 cm**-1
  84:      2956.82 cm**-1
  85:      2973.10 cm**-1
  86:      2981.77 cm**-1
  87:      2983.62 cm**-1
  88:      2991.07 cm**-1
  89:      3003.15 cm**-1
  90:      3004.03 cm**-1
  91:      3032.26 cm**-1
  92:      3039.49 cm**-1
  93:      3054.03 cm**-1
  94:      3059.29 cm**-1
  95:      3069.31 cm**-1
  96:      3087.27 cm**-1
  97:      3338.75 cm**-1
  98:      3621.63 cm**-1


------------
NORMAL MODES
------------

These modes are the cartesian displacements weighted by the diagonal matrix
M(i,i)=1/sqrt(m[i]) where m[i] is the mass of the displaced atom
Thus, these vectors are normalized but *not* orthogonal

                  0          1          2          3          4          5    
      0       0.000000   0.000000   0.000000   0.000000   0.000000   0.000000
      1       0.000000   0.000000   0.000000   0.000000   0.000000   0.000000
      2       0.000000   0.000000   0.000000   0.000000   0.000000   0.000000
      3       0.000000   0.000000   0.000000   0.000000   0.000000   0.000000
      4       0.000000   0.000000   0.000000   0.000000   0.000000   0.000000
      5       0.000000   0.000000   0.000000   0.000000   0.000000   0.000000
      6       0.000000   0.000000   0.000000   0.000000   0.000000   0.000000
      7       0.000000   0.000000   0.000000   0.000000   0.000000   0.000000
      8       0.000000   0.000000   0.000000   0.000000   0.000000   0.000000
      9       0.000000   0.000000   0.000000   0.000000   0.000000   0.000000
     10       0.000000   0.000000   0.000000   0.000000   0.000000   0.000000
     11       0.000000   0.000000   0.000000   0.000000   0.000000   0.000000
     12       0.000000   0.000000   0.000000   0.000000   0.000000   0.000000
     13       0.000000   0.000000   0.000000   0.000000   0.000000   0.000000
     14       0.000000   0.000000   0.000000   0.000000   0.000000   0.000000
     15       0.000000   0.000000   0.000000   0.000000   0.000000   0.000000
     16       0.000000   0.000000   0.000000   0.000000   0.000000   0.000000
     17       0.000000   0.000000   0.000000   0.000000   0.000000   0.000000
     18       0.000000   0.000000   0.000000   0.000000   0.000000   0.000000
     19       0.000000   0.000000   0.000000   0.000000   0.000000   0.000000
     20       0.000000   0.000000   0.000000   0.000000   0.000000   0.000000
     21       0.000000   0.000000   0.000000   0.000000   0.000000   0.000000
     22       0.000000   0.000000   0.000000   0.000000   0.000000   0.000000
     23       0.000000   0.000000   0.000000   0.000000   0.000000   0.000000
     24       0.000000   0.000000   0.000000   0.000000   0.000000   0.000000
     25       0.000000   0.000000   0.000000   0.000000   0.000000   0.000000
     26       0.000000   0.000000   0.000000   0.000000   0.000000   0.000000
     27       0.000000   0.000000   0.000000   0.000000   0.000000   0.000000
     28       0.000000   0.000000   0.000000   0.000000   0.000000   0.000000
     29       0.000000   0.000000   0.000000   0.000000   0.000000   0.000000
     30       0.000000   0.000000   0.000000   0.000000   0.000000   0.000000
     31       0.000000   0.000000   0.000000   0.000000   0.000000   0.000000
     32       0.000000   0.000000   0.000000   0.000000   0.000000   0.000000
     33       0.000000   0.000000   0.000000   0.000000   0.000000   0.000000
     34       0.000000   0.000000   0.000000   0.000000   0.000000   0.000000
     35       0.000000   0.000000   0.000000   0.000000   0.000000   0.000000
     36       0.000000   0.000000   0.000000   0.000000   0.000000   0.000000
     37       0.000000   0.000000   0.000000   0.000000   0.000000   0.000000
     38       0.000000   0.000000   0.000000   0.000000   0.000000   0.000000
     39       0.000000   0.000000   0.000000   0.000000   0.000000   0.000000
     40       0.000000   0.000000   0.000000   0.000000   0.000000   0.000000
     41       0.000000   0.000000   0.000000   0.000000   0.000000   0.000000
     42       0.000000   0.000000   0.000000   0.000000   0.000000   0.000000
     43       0.000000   0.000000   0.000000   0.000000   0.000000   0.000000
     44       0.000000   0.000000   0.000000   0.000000   0.000000   0.000000
     45       0.000000   0.000000   0.000000   0.000000   0.000000   0.000000
     46       0.000000   0.000000   0.000000   0.000000   0.000000   0.000000
     47       0.000000   0.000000   0.000000   0.000000   0.000000   0.000000
     48       0.000000   0.000000   0.000000   0.000000   0.000000   0.000000
     49       0.000000   0.000000   0.000000   0.000000   0.000000   0.000000
     50       0.000000   0.000000   0.000000   0.000000   0.000000   0.000000
     51       0.000000   0.000000   0.000000   0.000000   0.000000   0.000000
     52       0.000000   0.000000   0.000000   0.000000   0.000000   0.000000
     53       0.000000   0.000000   0.000000   0.000000   0.000000   0.000000
     54       0.000000   0.000000   0.000000   0.000000   0.000000   0.000000
     55       0.000000   0.000000   0.000000   0.000000   0.000000   0.000000
     56       0.000000   0.000000   0.000000   0.000000   0.000000   0.000000
     57       0.000000   0.000000   0.000000   0.000000   0.000000   0.000000
     58       0.000000   0.000000   0.000000   0.000000   0.000000   0.000000
     59       0.000000   0.000000   0.000000   0.000000   0.000000   0.000000
     60       0.000000   0.000000   0.000000   0.000000   0.000000   0.000000
     61       0.000000   0.000000   0.000000   0.000000   0.000000   0.000000
     62       0.000000   0.000000   0.000000   0.000000   0.000000   0.000000
     63       0.000000   0.000000   0.000000   0.000000   0.000000   0.000000
     64       0.000000   0.000000   0.000000   0.000000   0.000000   0.000000
     65       0.000000   0.000000   0.000000   0.000000   0.000000   0.000000
     66       0.000000   0.000000   0.000000   0.000000   0.000000   0.000000
     67       0.000000   0.000000   0.000000   0.000000   0.000000   0.000000
     68       0.000000   0.000000   0.000000   0.000000   0.000000   0.000000
     69       0.000000   0.000000   0.000000   0.000000   0.000000   0.000000
     70       0.000000   0.000000   0.000000   0.000000   0.000000   0.000000
     71       0.000000   0.000000   0.000000   0.000000   0.000000   0.000000
     72       0.000000   0.000000   0.000000   0.000000   0.000000   0.000000
     73       0.000000   0.000000   0.000000   0.000000   0.000000   0.000000
     74       0.000000   0.000000   0.000000   0.000000   0.000000   0.000000
     75       0.000000   0.000000   0.000000   0.000000   0.000000   0.000000
     76       0.000000   0.000000   0.000000   0.000000   0.000000   0.000000
     77       0.000000   0.000000   0.000000   0.000000   0.000000   0.000000
     78       0.000000   0.000000   0.000000   0.000000   0.000000   0.000000
     79       0.000000   0.000000   0.000000   0.000000   0.000000   0.000000
     80       0.000000   0.000000   0.000000   0.000000   0.000000   0.000000
     81       0.000000   0.000000   0.000000   0.000000   0.000000   0.000000
     82       0.000000   0.000000   0.000000   0.000000   0.000000   0.000000
     83       0.000000   0.000000   0.000000   0.000000   0.000000   0.000000
     84       0.000000   0.000000   0.000000   0.000000   0.000000   0.000000
     85       0.000000   0.000000   0.000000   0.000000   0.000000   0.000000
     86       0.000000   0.000000   0.000000   0.000000   0.000000   0.000000
     87       0.000000   0.000000   0.000000   0.000000   0.000000   0.000000
     88       0.000000   0.000000   0.000000   0.000000   0.000000   0.000000
     89       0.000000   0.000000   0.000000   0.000000   0.000000   0.000000
     90       0.000000   0.000000   0.000000   0.000000   0.000000   0.000000
     91       0.000000   0.000000   0.000000   0.000000   0.000000   0.000000
     92       0.000000   0.000000   0.000000   0.000000   0.000000   0.000000
     93       0.000000   0.000000   0.000000   0.000000   0.000000   0.000000
     94       0.000000   0.000000   0.000000   0.000000   0.000000   0.000000
     95       0.000000   0.000000   0.000000   0.000000   0.000000   0.000000
     96       0.000000   0.000000   0.000000   0.000000   0.000000   0.000000
     97       0.000000   0.000000   0.000000   0.000000   0.000000   0.000000
     98       0.000000   0.000000   0.000000   0.000000   0.000000   0.000000
                  6          7          8          9         10         11    
      0       0.000271   0.062349  -0.202119   0.027160   0.013830   0.023786
      1       0.000473   0.161445  -0.043658   0.007823   0.020610   0.089241
      2      -0.000624   0.094753   0.038250   0.000834   0.007904  -0.033918
      3      -0.001061   0.070293  -0.113666   0.059828   0.009180  -0.014833
      4       0.002285   0.153889  -0.068054   0.040907   0.003623  -0.012329
      5      -0.001614   0.097138   0.074724   0.025370   0.001344  -0.078167
      6      -0.002456  -0.031985   0.003881   0.050118   0.007718  -0.014362
      7       0.000744  -0.005013  -0.009465   0.017408  -0.005028  -0.042042
      8      -0.001857  -0.004967   0.057531   0.006594  -0.006930  -0.109471
      9      -0.001601  -0.143288   0.028513   0.006079   0.012059   0.021544
     10      -0.002305  -0.160355   0.073908  -0.040798   0.004740   0.024232
     11       0.003408  -0.110479   0.005059  -0.038833  -0.009233  -0.102970
     12      -0.000747  -0.147058  -0.062005  -0.026599   0.017197   0.063026
     13       0.000159  -0.144106   0.094929  -0.073696   0.021869   0.127388
     14       0.002535  -0.107853  -0.033131  -0.062931  -0.002394  -0.057605
     15       0.000395  -0.045011  -0.177569  -0.016200   0.018385   0.067478
     16      -0.000337   0.015972   0.035997  -0.049203   0.030487   0.165367
     17       0.001244  -0.005945  -0.016284  -0.043505   0.006215  -0.020277
     18      -0.002306   0.153994  -0.133298   0.093072   0.007330  -0.042006
     19      -0.001022   0.265434  -0.130951   0.084126  -0.000922  -0.060762
     20      -0.005635   0.175094   0.116753   0.058909   0.002849  -0.083273
     21      -0.011428  -0.224238   0.116872  -0.001576   0.012684   0.026237
     22      -0.023422  -0.287194   0.122594  -0.058634   0.000179   0.014279
     23      -0.011161  -0.192845  -0.001967  -0.053175  -0.014640  -0.114379
     24       0.000629  -0.048803  -0.246940  -0.041544   0.022794   0.104596
     25      -0.003676   0.025366   0.052663  -0.074025   0.044945   0.252361
     26       0.001103  -0.005487  -0.045971  -0.062285   0.012073   0.020196
     27       0.075434   0.041432   0.070804  -0.006139  -0.014787   0.007264
     28      -0.004288  -0.053196  -0.042394   0.113814   0.010902  -0.068824
     29       0.048530   0.038524   0.081938   0.056920   0.018898  -0.000482
     30       0.364647   0.068309   0.047024  -0.056557  -0.031268  -0.038186
     31      -0.052177  -0.018050  -0.064011   0.060830  -0.006162  -0.097717
     32       0.327175   0.097060   0.095590  -0.003173  -0.004793   0.134296
     33       0.013813   0.017506   0.020449   0.024318   0.018568   0.002154
     34       0.006116  -0.036540  -0.000564   0.141336   0.054147   0.014629
     35      -0.003826   0.015834   0.034874   0.096442   0.066054   0.015746
     36       0.027012   0.040787  -0.010654   0.021783   0.122848  -0.036720
     37       0.004529  -0.044131   0.007679   0.140392   0.019630   0.023174
     38      -0.037207   0.052703   0.033467   0.123900   0.243775   0.046463
     39      -0.027596  -0.015843  -0.026789   0.051119   0.014427   0.024729
     40      -0.020188   0.015492  -0.001165   0.156894   0.254193   0.020621
     41       0.019334   0.020972   0.056116   0.080682   0.029446   0.004245
     42       0.152911   0.070796   0.105047  -0.052366  -0.050427   0.023821
     43      -0.156500  -0.118717  -0.039721   0.164447   0.013449  -0.161726
     44       0.018309   0.025151   0.067669   0.076511   0.033601  -0.008500
     45      -0.186299   0.109162   0.061762  -0.074528  -0.030511  -0.336793
     46      -0.113795   0.073694  -0.085939  -0.035435  -0.035633   0.004256
     47      -0.151763   0.149330   0.053038  -0.057477  -0.029814   0.467637
     48      -0.036654   0.047424   0.102883   0.026156  -0.000149  -0.074367
     49       0.752364   0.063422  -0.103116  -0.042258  -0.041188  -0.078536
     50       0.191381   0.062755   0.021518  -0.037835  -0.029923   0.101048
     51      -0.070068  -0.012752   0.090144   0.086960   0.016753   0.014144
     52      -0.039565  -0.005838  -0.055860   0.050436  -0.007814  -0.059546
     53      -0.053252   0.002661   0.088276   0.035228  -0.003345  -0.096951
     54       0.035177  -0.046266   0.104181   0.150182   0.035270   0.012737
     55       0.001746  -0.029108  -0.066512   0.091367   0.003283  -0.056368
     56       0.032263  -0.014291   0.156959   0.076343   0.015464  -0.100289
     57       0.018365   0.005059   0.148340   0.119301   0.030318   0.070052
     58       0.020685   0.059178  -0.087004  -0.015253  -0.030533   0.003722
     59       0.034465   0.008087   0.031325  -0.009652  -0.019893  -0.119621
     60       0.004740   0.008904   0.062587   0.010686  -0.067644   0.018785
     61       0.000842  -0.067700   0.035384   0.125179  -0.100418   0.040193
     62      -0.004320  -0.057564  -0.050782   0.107479  -0.064272   0.035509
     63      -0.003300  -0.001644   0.093931  -0.040529  -0.139909   0.019694
     64       0.003366  -0.063586   0.026485   0.136556  -0.074537   0.038354
     65      -0.002990  -0.127825  -0.042651   0.271670  -0.361792   0.105870
     66       0.005462   0.020098   0.122267   0.110270  -0.131667   0.035443
     67      -0.000260  -0.139029   0.038348   0.234911  -0.387029   0.100482
     68      -0.003736  -0.047051  -0.075860   0.043340   0.021528   0.016459
     69      -0.066376   0.093567   0.046090  -0.076086  -0.036076  -0.207846
     70      -0.016753   0.045223  -0.101739  -0.033999  -0.038550  -0.158662
     71      -0.054855   0.123837   0.037590  -0.056498  -0.033104   0.361774
     72       0.003406   0.002779  -0.017187  -0.078313   0.033479   0.006195
     73      -0.000324  -0.000911   0.083801  -0.081765   0.094162  -0.034746
     74      -0.002256  -0.049071  -0.122994  -0.029772   0.083884   0.007359
     75       0.003091   0.007407  -0.078859  -0.204547   0.100534  -0.004758
     76      -0.000802   0.028324   0.082279  -0.131786   0.370355  -0.099552
     77      -0.001891  -0.056386  -0.096630   0.032692   0.003956   0.024184
     78       0.004228  -0.022168  -0.049365   0.033427   0.103650   0.013463
     79      -0.000583   0.005377   0.093226  -0.110986   0.067501  -0.035287
     80      -0.001729  -0.007607  -0.130951  -0.160627   0.370844  -0.066423
     81      -0.002169  -0.229487  -0.042731  -0.059668   0.020881   0.095183
     82      -0.002224  -0.256171   0.157455  -0.117494   0.029365   0.183762
     83       0.004119  -0.185894  -0.076231  -0.096178  -0.003135  -0.048714
     84       0.000160   0.139305  -0.289296   0.035091   0.014507   0.024357
     85      -0.001364   0.279815  -0.087575   0.026257   0.027410   0.115535
     86      -0.001196   0.171443   0.051341   0.015598   0.014935  -0.005232
     87       0.001785   0.025087   0.026485  -0.151039  -0.044505   0.000291
     88      -0.000456   0.021876   0.121399  -0.193245  -0.041994  -0.031609
     89      -0.000488  -0.082272  -0.217592  -0.078395  -0.038838   0.059163
     90       0.002850   0.014531  -0.025599  -0.185039   0.003686   0.002595
     91      -0.002254   0.057199   0.161364  -0.297175   0.049893  -0.079663
     92       0.000169  -0.084019  -0.259341  -0.137672   0.031457   0.049671
     93       0.000553   0.048375   0.058209  -0.255805  -0.121958  -0.007054
     94      -0.000234   0.016933   0.113396  -0.169186  -0.011851  -0.032469
     95       0.000107  -0.105070  -0.221328  -0.015335  -0.254815   0.117240
     96       0.000776   0.028958   0.078622  -0.066123  -0.073125   0.000537
     97      -0.000646   0.008787   0.117114  -0.195880  -0.264224   0.019158
     98       0.000045  -0.081598  -0.241085  -0.117457   0.016305   0.049529
                 12         13         14         15         16         17    
      0      -0.047324   0.010292   0.009072  -0.051712  -0.005159  -0.063416
      1      -0.040747  -0.006419   0.007206   0.000165   0.007345  -0.043368
      2      -0.004405  -0.012835  -0.028691   0.046713   0.012983   0.062764
      3       0.041876   0.005875   0.001610   0.038038   0.104438  -0.113225
      4       0.070018  -0.011279   0.070106  -0.060948  -0.050634  -0.199460
      5       0.066796  -0.015897  -0.014852   0.068052   0.048765  -0.009530
      6       0.077437   0.008017  -0.024976   0.095294   0.147683  -0.014824
      7       0.106304  -0.005421   0.075192  -0.075788  -0.071075  -0.122855
      8       0.080756  -0.010948   0.009750   0.014893   0.002101  -0.006678
      9       0.040517   0.014204  -0.029581   0.095414   0.157785  -0.075841
     10       0.058132   0.003343   0.050233  -0.031304  -0.005009  -0.198486
     11       0.044984  -0.007644   0.040231  -0.056977  -0.102069  -0.064835
     12      -0.052508   0.018975  -0.025724   0.013412   0.057391  -0.020250
     13      -0.057269   0.007935  -0.016934   0.035101   0.052607  -0.032256
     14      -0.029133  -0.004289   0.026921  -0.088135  -0.149488   0.005268
     15      -0.106303   0.018402  -0.015100  -0.058542  -0.023951   0.056154
     16      -0.120859   0.005450  -0.048639   0.038474   0.044509   0.142112
     17      -0.061072  -0.006434  -0.014648  -0.035773  -0.103122   0.140245
     18       0.075783   0.001804   0.013084   0.039526   0.113784  -0.163851
     19       0.112467  -0.016011   0.102403  -0.096971  -0.072815  -0.295581
     20       0.102803  -0.020756  -0.031604   0.133477   0.118958  -0.009798
     21       0.070956   0.018255  -0.042352   0.145398   0.238970  -0.113149
     22       0.099079   0.007890   0.072201  -0.048465  -0.010879  -0.275632
     23       0.069460  -0.005656   0.072935  -0.108129  -0.161645  -0.125220
     24      -0.188285   0.023393  -0.021239  -0.117486  -0.102698   0.171479
     25      -0.225635   0.012337  -0.109550   0.069288   0.068137   0.361414
     26      -0.127968  -0.002226  -0.033267  -0.056648  -0.135196   0.252507
     27       0.057004  -0.008718  -0.028147  -0.008535  -0.025599  -0.003339
     28       0.109658   0.028563   0.040328  -0.042024   0.032365   0.128604
     29      -0.082876   0.056537  -0.054449  -0.067063   0.023330  -0.016842
     30       0.020156  -0.017376  -0.031608  -0.013178  -0.004834  -0.037735
     31       0.075389   0.019316   0.038238  -0.042782   0.035934   0.106894
     32      -0.062013   0.034952  -0.186775  -0.040192   0.007502  -0.138420
     33      -0.004054   0.014359   0.142294   0.086964  -0.068268   0.029834
     34       0.004704   0.064096  -0.050655   0.171779  -0.144419   0.007870
     35      -0.177093   0.093584   0.101322   0.064202  -0.024753  -0.046184
     36       0.051009   0.141810   0.214851   0.098213  -0.043832   0.055810
     37      -0.006887   0.022878  -0.072222   0.156510  -0.141835   0.003087
     38      -0.260963   0.276855   0.176835   0.380266  -0.249841  -0.114488
     39      -0.076059  -0.010118   0.250627   0.181493  -0.094453   0.004722
     40      -0.041137   0.283732   0.026200   0.442644  -0.332033  -0.037025
     41      -0.134501   0.062001   0.036683  -0.029999   0.022728  -0.025732
     42       0.133395  -0.040270  -0.180911  -0.072128  -0.003798  -0.029186
     43       0.191424   0.016260   0.129040  -0.084537   0.080797   0.292516
     44      -0.111496   0.069054   0.010413  -0.041333   0.016421  -0.002302
     45      -0.271828   0.030860  -0.261721  -0.009194  -0.072352  -0.170504
     46      -0.013185   0.007153  -0.013057  -0.038007   0.046734   0.097184
     47       0.098934  -0.019714  -0.023781  -0.031697  -0.030114  -0.060314
     48      -0.058952   0.033448  -0.123671  -0.118835  -0.016254  -0.014736
     49      -0.042623   0.001086  -0.064585   0.009203   0.063904  -0.020871
     50       0.085509  -0.027222  -0.013384   0.102934   0.072931   0.005490
     51       0.067773   0.027272  -0.045146  -0.033618   0.064275   0.062098
     52       0.076779   0.016431   0.045017  -0.058787   0.010519   0.069019
     53       0.067294   0.006055  -0.010559  -0.047587   0.013294   0.062527
     54       0.066191   0.047665  -0.060742  -0.061901   0.090472   0.104580
     55       0.066621   0.031333   0.031774  -0.032844   0.069455   0.122035
     56       0.098471   0.017997  -0.005511  -0.191822  -0.093201   0.017607
     57       0.030974   0.056532  -0.080398  -0.261938  -0.037341   0.057735
     58      -0.003384   0.011129  -0.006061  -0.051028   0.043818   0.086004
     59       0.070109  -0.018859  -0.004203   0.139292   0.093715   0.043255
     60      -0.042864  -0.088100   0.107884   0.051257  -0.080211   0.040399
     61      -0.051050  -0.118644  -0.114569   0.085538  -0.110573  -0.005075
     62      -0.166251  -0.063828   0.123754  -0.052218   0.116550  -0.048252
     63      -0.075493  -0.208236   0.087135  -0.041200  -0.015444   0.038194
     64      -0.040160  -0.082217  -0.107367   0.110817  -0.127177  -0.004191
     65      -0.257845  -0.165152   0.117742  -0.087833   0.146039  -0.052276
     66      -0.116254  -0.015422   0.145588   0.101900  -0.122690   0.031066
     67      -0.132135  -0.273329  -0.127561   0.001197  -0.040953  -0.011400
     68      -0.118085  -0.061044   0.108371  -0.055458   0.118419  -0.043306
     69      -0.141989   0.001350  -0.153499   0.011557  -0.043121  -0.127748
     70      -0.036574   0.004189  -0.022295   0.020028   0.084643   0.115140
     71       0.104502  -0.027488  -0.010797   0.018160   0.005425  -0.037294
     72       0.076917  -0.112146   0.033131   0.063164  -0.125853   0.082330
     73      -0.037587  -0.125509  -0.069601  -0.000739  -0.014570  -0.026288
     74      -0.039372  -0.087609   0.039765  -0.064663   0.103702  -0.029524
     75       0.196949  -0.067002  -0.057942   0.071641  -0.166736   0.104094
     76      -0.021533  -0.344236  -0.080889  -0.054896   0.029523  -0.023971
     77      -0.092571  -0.065294   0.079223  -0.057857   0.112006  -0.039173
     78       0.083274  -0.272046  -0.042565   0.101976  -0.194024   0.090291
     79      -0.040639  -0.075414  -0.046491  -0.010792   0.004559  -0.028464
     80       0.012915  -0.247023   0.019318  -0.130103   0.156183  -0.025816
     81      -0.089173   0.024481  -0.036175   0.012023   0.054768  -0.010045
     82      -0.104739   0.015043  -0.048005   0.072778   0.088876   0.006281
     83      -0.067494   0.001474   0.045722  -0.157315  -0.220987  -0.026433
     84      -0.077797   0.008127   0.027960  -0.112665  -0.081244  -0.076606
     85      -0.076947  -0.009158  -0.004788   0.006475   0.018189  -0.029882
     86      -0.022810  -0.014409  -0.055482   0.097394   0.078993   0.087444
     87       0.042837   0.025858   0.153976   0.023462  -0.049056   0.091503
     88      -0.052219   0.106879   0.046481  -0.039365   0.068307  -0.025597
     89       0.110408   0.086581  -0.161356   0.029333  -0.050682  -0.022709
     90       0.129874  -0.003488   0.013974   0.025382  -0.090824   0.106277
     91      -0.073292   0.073607   0.154209  -0.173539   0.241602   0.017649
     92       0.191525   0.049436  -0.273941  -0.001638  -0.049656   0.002459
     93       0.034677   0.189238   0.260644  -0.032376   0.045282   0.110663
     94      -0.049342   0.055026   0.018656  -0.031266   0.050348  -0.028088
     95       0.094376   0.292514  -0.152767   0.162704  -0.185785  -0.071235
     96      -0.062200  -0.003586   0.285256   0.043721  -0.035077   0.065439
     97      -0.044474   0.366989   0.064889   0.057071  -0.023066  -0.055604
     98       0.157974   0.051388  -0.226245   0.001683  -0.040033  -0.005043
                 18         19         20         21         22         23    
[...]
freq.    3040.62  E(vib)   ...       0.00 
freq.    3067.76  E(vib)   ...       0.00 
freq.    3076.37  E(vib)   ...       0.00 
freq.    3081.41  E(vib)   ...       0.00 
freq.    3091.67  E(vib)   ...       0.00 
freq.    3100.77  E(vib)   ...       0.00 
freq.    3284.92  E(vib)   ...       0.00 
freq.    3669.83  E(vib)   ...       0.00 

------------
INNER ENERGY
------------

The inner energy is: U= E(el) + E(ZPE) + E(vib) + E(rot) + E(trans)
    E(el)   - is the total energy from the electronic structure calculation
              = E(kin-el) + E(nuc-el) + E(el-el) + E(nuc-nuc)
    E(ZPE)  - the the zero temperature vibrational energy from the frequency calculation
    E(vib)  - the the finite temperature correction to E(ZPE) due to population
              of excited vibrational states
    E(rot)  - is the rotational thermal energy
    E(trans)- is the translational thermal energy

Summary of contributions to the inner energy U:
Electronic energy                ...    -44.26680880 Eh
Zero point energy                ...      0.27614182 Eh     173.28 kcal/mol
Thermal vibrational correction   ...      0.01237350 Eh       7.76 kcal/mol
Thermal rotational correction    ...      0.00141627 Eh       0.89 kcal/mol
Thermal translational correction ...      0.00141627 Eh       0.89 kcal/mol
-----------------------------------------------------------------------
Total thermal energy                    -43.97546093 Eh


Summary of corrections to the electronic energy:
(perhaps to be used in another calculation)
Total thermal correction                  0.01520605 Eh       9.54 kcal/mol
Non-thermal (ZPE) correction              0.27614182 Eh     173.28 kcal/mol
-----------------------------------------------------------------------
Total correction                          0.29134787 Eh     182.82 kcal/mol


--------
ENTHALPY
--------

The enthalpy is H = U + kB*T
                kB is Boltzmann's constant
Total free energy                 ...    -43.97546093 Eh 
Thermal Enthalpy correction       ...      0.00094421 Eh       0.59 kcal/mol
-----------------------------------------------------------------------
Total Enthalpy                    ...    -43.97451672 Eh


Note: Only C1 symmetry has been detected, increase convergence thresholds 
      if your molecule has a higher symmetry. Symmetry factor of 1.0 is   
      used for the rotational entropy correction. 
 

Note: Rotational entropy computed according to Herzberg 
Infrared and Raman Spectra, Chapter V,1, Van Nostrand Reinhold, 1945 
Point Group:  C1, Symmetry Number:   1  
Rotational constants in cm-1:     0.031761     0.011199     0.009079 

Vibrational entropy computed according to the QRRHO of S. Grimme
Chem.Eur.J. 2012 18 9955


-------
ENTROPY
-------

The entropy contributions are T*S = T*(S(el)+S(vib)+S(rot)+S(trans))
     S(el)   - electronic entropy
     S(vib)  - vibrational entropy
     S(rot)  - rotational entropy
     S(trans)- translational entropy
The entropies will be listed as mutliplied by the temperature to get
units of energy

Electronic entropy                ...      0.00000000 Eh      0.00 kcal/mol
Vibrational entropy               ...      0.02196675 Eh     13.78 kcal/mol
Rotational entropy                ...      0.01547956 Eh      9.71 kcal/mol
Translational entropy             ...      0.01983352 Eh     12.45 kcal/mol
-----------------------------------------------------------------------
Final entropy term                ...      0.05727983 Eh     35.94 kcal/mol

In case the symmetry of your molecule has not been determined correctly
or in case you have a reason to use a different symmetry number we print 
out the resulting rotational entropy values for sn=1,12 :
 --------------------------------------------------------
|  sn= 1 | S(rot)=       0.01547956 Eh      9.71 kcal/mol|
|  sn= 2 | S(rot)=       0.01482511 Eh      9.30 kcal/mol|
|  sn= 3 | S(rot)=       0.01444228 Eh      9.06 kcal/mol|
|  sn= 4 | S(rot)=       0.01417065 Eh      8.89 kcal/mol|
|  sn= 5 | S(rot)=       0.01395996 Eh      8.76 kcal/mol|
|  sn= 6 | S(rot)=       0.01378782 Eh      8.65 kcal/mol|
|  sn= 7 | S(rot)=       0.01364227 Eh      8.56 kcal/mol|
|  sn= 8 | S(rot)=       0.01351620 Eh      8.48 kcal/mol|
|  sn= 9 | S(rot)=       0.01340499 Eh      8.41 kcal/mol|
|  sn=10 | S(rot)=       0.01330551 Eh      8.35 kcal/mol|
|  sn=11 | S(rot)=       0.01321552 Eh      8.29 kcal/mol|
|  sn=12 | S(rot)=       0.01313336 Eh      8.24 kcal/mol|
 --------------------------------------------------------


-------------------
GIBBS FREE ENERGY
-------------------

The Gibbs free energy is G = H - T*S

Total enthalpy                    ...    -43.97451672 Eh 
Total entropy correction          ...     -0.05727983 Eh    -35.94 kcal/mol
-----------------------------------------------------------------------
Final Gibbs free energy         ...    -44.03179655 Eh

For completeness - the Gibbs free energy minus the electronic energy
G-E(el)                           ...      0.23501225 Eh    147.47 kcal/mol


Total Time for Numerical Frequencies  :        88.270 sec



------------------------------------------------------------------------------- 
                    Intrinsic Reaction Coordinate Calculation                  
------------------------------------------------------------------------------- 

System:
Nr. of atoms                        .... 33
Algorithm: SD (steepest descent step) plus correction
Settings:
Max. no of cycles        MaxIter    .... 1000
Direction                           .... Forward and backward
Initial displacement Hessian type   .... Read
Hessian Filename                    .... optts+freq.hess
Following Hessian mode              .... 0
Initial displacement type           .... Energy
  Initial displacement energy change.... 0.250 mEh
Coordinate system following type    .... Cartesian
Length of steepest descent step     .... 0.150 bohr
Do parabolic fit 
  if SD step is uphill              .... YES
Do Correction to SD step            .... YES
Scaling for length of correction
  compared to SD step               .... 0.333
Do parabolic fit to SD correction   .... YES
Only interpolate for parabolic fit  .... YES
Do update to length of
  SD step and correction            .... YES
Convergence Tolerances:
  Max. Gradient            TolMAXG  ....  1.0000e-03 Eh/bohr
  RMS Gradient             TolRMSG  ....  2.0000e-04 Eh/bohr
Storing full IRC trajectory in      .... optts+freq_IRC_Full_trj.xyz
Storing forward trajectory in       .... optts+freq_IRC_F_trj.xyz
Storing backward trajectory in      .... optts+freq_IRC_B_trj.xyz


 ...good, the file optts+freq.hess exists
Reading the hessian file           ...... done
Determining length of initial displacement:
  Requested energy change (quadratic behavior): 0.250 mEh
  Resulting scaling factor for initial displacement along normalized TS mode: 0.1226

         *************************************************************
         *                          FORWARD IRC                      *
         *************************************************************

Iteration    E(Eh)      dE(kcal/mol)  max(|G|)   RMS(G) 
Convergence thresholds                0.001000  0.000200            
    0       -44.267083   -0.171923    0.003117  0.000694
    1       -44.267468   -0.413951    0.005729  0.001083
    2       -44.267785   -0.612528    0.006895  0.001062
    3       -44.268225   -0.888761    0.008148  0.001288
    4       -44.268738   -1.210683    0.009224  0.001479
    5       -44.269331   -1.582829    0.010143  0.001693
    6       -44.269992   -1.997314    0.010868  0.001870
    7       -44.270729   -2.460266    0.011447  0.002077
    8       -44.271533   -2.964248    0.011853  0.002250
    9       -44.272413   -3.516823    0.012775  0.002460
   10       -44.273359   -4.110265    0.014201  0.002633
   11       -44.274384   -4.753584    0.015654  0.002849
   12       -44.275474   -5.437319    0.017087  0.003018
   13       -44.276642   -6.170247    0.018493  0.003227
   14       -44.277868   -6.939827    0.019800  0.003376
   15       -44.279161   -7.751394    0.020968  0.003545
   16       -44.280497   -8.589185    0.021898  0.003640
   17       -44.281869   -9.450499    0.022514  0.003718
   18       -44.283253   -10.319178    0.022721  0.003724
   19       -44.284637   -11.187101    0.022422  0.003688
   20       -44.285996   -12.040386    0.021558  0.003591
   21       -44.287308   -12.863134    0.020106  0.003428
   22       -44.288547   -13.640765    0.018108  0.003209
   23       -44.289697   -14.362276    0.016084  0.002955
   24       -44.290749   -15.022688    0.014697  0.002693
   25       -44.291707   -15.623574    0.013252  0.002449
   26       -44.292578   -16.170608    0.011898  0.002232
   27       -44.293374   -16.669953    0.010711  0.002039
   28       -44.294102   -17.126709    0.009686  0.001867
   29       -44.294769   -17.545250    0.008783  0.001712
   30       -44.295381   -17.929532    0.007975  0.001574
   31       -44.295945   -18.283053    0.007251  0.001449
   32       -44.296464   -18.608789    0.006602  0.001336
   33       -44.296943   -18.909213    0.006023  0.001232
   34       -44.297384   -19.186353    0.005504  0.001137
   35       -44.297791   -19.441836    0.005034  0.001047
   36       -44.298166   -19.676986    0.004603  0.000964
   37       -44.298509   -19.892363    0.004208  0.000897
   38       -44.298818   -20.086084    0.003845  0.000815
   39       -44.299104   -20.265266    0.003504  0.000752
   40       -44.299362   -20.427678    0.003180  0.000680
   41       -44.299600   -20.576904    0.002877  0.000623
   42       -44.299815   -20.711393    0.002583  0.000560
   43       -44.300010   -20.834045    0.002316  0.000509
   44       -44.300185   -20.943874    0.002046  0.000455
   45       -44.300343   -21.043165    0.001870  0.000410
   46       -44.300484   -21.131397    0.001612  0.000366
   47       -44.300609   -21.210037    0.001620  0.000324
   48       -44.300721   -21.280043    0.001453  0.000289
   49       -44.300819   -21.341545    0.001398  0.000257
   50       -44.300904   -21.395107    0.001209  0.000256
   51       -44.300927   -21.409469    0.001231  0.000291
   52       -44.300937   -21.415479    0.001230  0.000226
   53       -44.300955   -21.426995    0.001212  0.000205
   54       -44.300974   -21.438794    0.001181  0.000199
   55       -44.300992   -21.450142    0.001165  0.000193
   56       -44.301009   -21.461136    0.001131  0.000187
   57       -44.301026   -21.471770    0.001117  0.000181
   58       -44.301043   -21.482067    0.001082  0.000175
   59       -44.301059   -21.492026    0.001070  0.000169
   60       -44.301074   -21.501663    0.001032  0.000164
   61       -44.301089   -21.510987    0.001024  0.000158
   62       -44.301103   -21.520011    0.000984  0.000153

                      ***********************HURRAY********************
                      ***            THE IRC HAS CONVERGED          ***
                      *************************************************


         *************************************************************
         *                          BACKWARD IRC                     *
         *************************************************************

Iteration    E(Eh)      dE(kcal/mol)  max(|G|)   RMS(G) 
Convergence thresholds                0.001000  0.000200            
    0       -44.267015   -0.129522    0.002969  0.000691
    1       -44.267111   -0.189456    0.002683  0.000570
    2       -44.267247   -0.275154    0.003445  0.000611
    3       -44.267446   -0.399537    0.004008  0.000607
    4       -44.267681   -0.547076    0.004211  0.000650
    5       -44.267924   -0.700097    0.004163  0.000663
    6       -44.268171   -0.854580    0.003945  0.000659
    7       -44.268414   -1.006966    0.003581  0.000643
    8       -44.268647   -1.153521    0.003287  0.000621
    9       -44.268867   -1.291729    0.002905  0.000586
   10       -44.269076   -1.422679    0.002617  0.000551
   11       -44.269271   -1.545001    0.002288  0.000514
   12       -44.269453   -1.659131    0.002065  0.000478
   13       -44.269621   -1.764846    0.001801  0.000443
   14       -44.269777   -1.862833    0.001633  0.000410
   15       -44.269921   -1.953097    0.001426  0.000379
   16       -44.270054   -2.036264    0.001304  0.000350
   17       -44.270176   -2.112869    0.001185  0.000323
   18       -44.270288   -2.183344    0.001147  0.000304
   19       -44.270389   -2.246629    0.001109  0.000310
   20       -44.270429   -2.271452    0.001142  0.000342
   21       -44.270445   -2.281622    0.001090  0.000275
   22       -44.270468   -2.296099    0.001080  0.000256
   23       -44.270491   -2.310892    0.001069  0.000251
   24       -44.270514   -2.325334    0.001059  0.000246
   25       -44.270537   -2.339460    0.001047  0.000241
   26       -44.270559   -2.353326    0.001037  0.000236
   27       -44.270581   -2.366889    0.001024  0.000231
   28       -44.270602   -2.380199    0.001014  0.000227
   29       -44.270623   -2.393217    0.001001  0.000222
   30       -44.270643   -2.405992    0.000991  0.000218
   31       -44.270663   -2.418488    0.000978  0.000213
   32       -44.270682   -2.430749    0.000967  0.000209
   33       -44.270702   -2.442742    0.000954  0.000204
   34       -44.270720   -2.454511    0.000943  0.000200
   35       -44.270739   -2.466021    0.000930  0.000196

                      ***********************HURRAY********************
                      ***            THE IRC HAS CONVERGED          ***
                      *************************************************


---------------------------------------------------------------
                       IRC PATH SUMMARY              
---------------------------------------------------------------
All gradients are in Eh/Bohr.

Step        E(Eh)      dE(kcal/mol)  max(|G|)   RMS(G) 
   1       -44.270739   -2.466021    0.000930  0.000196
   2       -44.270720   -2.454511    0.000943  0.000200
   3       -44.270702   -2.442742    0.000954  0.000204
   4       -44.270682   -2.430749    0.000967  0.000209
   5       -44.270663   -2.418488    0.000978  0.000213
   6       -44.270643   -2.405992    0.000991  0.000218
   7       -44.270623   -2.393217    0.001001  0.000222
   8       -44.270602   -2.380199    0.001014  0.000227
   9       -44.270581   -2.366889    0.001024  0.000231
  10       -44.270559   -2.353326    0.001037  0.000236
  11       -44.270537   -2.339460    0.001047  0.000241
  12       -44.270514   -2.325334    0.001059  0.000246
  13       -44.270491   -2.310892    0.001069  0.000251
  14       -44.270468   -2.296099    0.001080  0.000256
  15       -44.270445   -2.281622    0.001090  0.000275
  16       -44.270429   -2.271452    0.001142  0.000342
  17       -44.270389   -2.246629    0.001109  0.000310
  18       -44.270288   -2.183344    0.001147  0.000304
  19       -44.270176   -2.112869    0.001185  0.000323
  20       -44.270054   -2.036264    0.001304  0.000350
  21       -44.269921   -1.953097    0.001426  0.000379
  22       -44.269777   -1.862833    0.001633  0.000410
  23       -44.269621   -1.764846    0.001801  0.000443
  24       -44.269453   -1.659131    0.002065  0.000478
  25       -44.269271   -1.545001    0.002288  0.000514
  26       -44.269076   -1.422679    0.002617  0.000551
  27       -44.268867   -1.291729    0.002905  0.000586
  28       -44.268647   -1.153521    0.003287  0.000621
  29       -44.268414   -1.006966    0.003581  0.000643
  30       -44.268171   -0.854580    0.003945  0.000659
  31       -44.267924   -0.700097    0.004163  0.000663
  32       -44.267681   -0.547076    0.004211  0.000650
  33       -44.267446   -0.399537    0.004008  0.000607
  34       -44.267247   -0.275154    0.003445  0.000611
  35       -44.267111   -0.189456    0.002683  0.000570
  36       -44.267015   -0.129522    0.002969  0.000691
  37       -44.266809    0.000000    0.000064  0.000015 <= TS
  38       -44.267083   -0.171923    0.003117  0.000694
  39       -44.267468   -0.413951    0.005729  0.001083
  40       -44.267785   -0.612528    0.006895  0.001062
  41       -44.268225   -0.888761    0.008148  0.001288
  42       -44.268738   -1.210683    0.009224  0.001479
  43       -44.269331   -1.582829    0.010143  0.001693
  44       -44.269992   -1.997314    0.010868  0.001870
  45       -44.270729   -2.460266    0.011447  0.002077
  46       -44.271533   -2.964248    0.011853  0.002250
  47       -44.272413   -3.516823    0.012775  0.002460
  48       -44.273359   -4.110265    0.014201  0.002633
  49       -44.274384   -4.753584    0.015654  0.002849
  50       -44.275474   -5.437319    0.017087  0.003018
  51       -44.276642   -6.170247    0.018493  0.003227
  52       -44.277868   -6.939827    0.019800  0.003376
  53       -44.279161   -7.751394    0.020968  0.003545
  54       -44.280497   -8.589185    0.021898  0.003640
  55       -44.281869   -9.450499    0.022514  0.003718
  56       -44.283253   -10.319178    0.022721  0.003724
  57       -44.284637   -11.187101    0.022422  0.003688
  58       -44.285996   -12.040386    0.021558  0.003591
  59       -44.287308   -12.863134    0.020106  0.003428
  60       -44.288547   -13.640765    0.018108  0.003209
  61       -44.289697   -14.362276    0.016084  0.002955
  62       -44.290749   -15.022688    0.014697  0.002693
  63       -44.291707   -15.623574    0.013252  0.002449
  64       -44.292578   -16.170608    0.011898  0.002232
  65       -44.293374   -16.669953    0.010711  0.002039
  66       -44.294102   -17.126709    0.009686  0.001867
  67       -44.294769   -17.545250    0.008783  0.001712
  68       -44.295381   -17.929532    0.007975  0.001574
  69       -44.295945   -18.283053    0.007251  0.001449
  70       -44.296464   -18.608789    0.006602  0.001336
  71       -44.296943   -18.909213    0.006023  0.001232
  72       -44.297384   -19.186353    0.005504  0.001137
  73       -44.297791   -19.441836    0.005034  0.001047
  74       -44.298166   -19.676986    0.004603  0.000964
  75       -44.298509   -19.892363    0.004208  0.000897
  76       -44.298818   -20.086084    0.003845  0.000815
  77       -44.299104   -20.265266    0.003504  0.000752
  78       -44.299362   -20.427678    0.003180  0.000680
  79       -44.299600   -20.576904    0.002877  0.000623
  80       -44.299815   -20.711393    0.002583  0.000560
  81       -44.300010   -20.834045    0.002316  0.000509
  82       -44.300185   -20.943874    0.002046  0.000455
  83       -44.300343   -21.043165    0.001870  0.000410
  84       -44.300484   -21.131397    0.001612  0.000366
  85       -44.300609   -21.210037    0.001620  0.000324
  86       -44.300721   -21.280043    0.001453  0.000289
  87       -44.300819   -21.341545    0.001398  0.000257
  88       -44.300904   -21.395107    0.001209  0.000256
  89       -44.300927   -21.409469    0.001231  0.000291
  90       -44.300937   -21.415479    0.001230  0.000226
  91       -44.300955   -21.426995    0.001212  0.000205
  92       -44.300974   -21.438794    0.001181  0.000199
  93       -44.300992   -21.450142    0.001165  0.000193
  94       -44.301009   -21.461136    0.001131  0.000187
  95       -44.301026   -21.471770    0.001117  0.000181
  96       -44.301043   -21.482067    0.001082  0.000175
  97       -44.301059   -21.492026    0.001070  0.000169
  98       -44.301074   -21.501663    0.001032  0.000164
  99       -44.301089   -21.510987    0.001024  0.000158
 100       -44.301103   -21.520011    0.000984  0.000153

Timings for individual modules:

Sum of individual times         ...       55.299 sec (=   0.922 min)
Geometry relaxation             ...        3.470 sec (=   0.058 min)   6.3 %
XTB module                      ...       51.829 sec (=   0.864 min)  93.7 %
                             ****ORCA TERMINATED NORMALLY****
TOTAL RUN TIME: 0 days 0 hours 3 minutes 51 seconds 814 msec
