
                                 *****************
                                 * O   R   C   A *
                                 *****************

           --- An Ab Initio, DFT and Semiempirical electronic structure package ---

                  #######################################################
                  #                        -***-                        #
                  #          Department of theory and spectroscopy      #
                  #               Directorship: Frank Neese             #
                  #        Max Planck Institute fuer Kohlenforschung    #
                  #                Kaiser Wilhelm Platz 1               #
                  #                 D-45470 Muelheim/Ruhr               #
                  #                      Germany                        #
                  #                                                     #
                  #                  All rights reserved                #
                  #                        -***-                        #
                  #######################################################


                         Program Version 4.2.1 -  RELEASE  -


 With contributions from (in alphabetic order):
   Daniel Aravena         : Magnetic Suceptibility
   Michael Atanasov       : Ab Initio Ligand Field Theory (pilot matlab implementation)
   Alexander A. Auer      : GIAO ZORA, VPT2
   Ute Becker             : Parallelization
   Giovanni Bistoni       : ED, misc. LED, open-shell LED, HFLD
   Martin Brehm           : Molecular dynamics
   Dmytro Bykov           : SCF Hessian
   Vijay G. Chilkuri      : MRCI spin determinant printing, contributions to CSF-ICE
   Dipayan Datta          : RHF DLPNO-CCSD density
   Achintya Kumar Dutta   : EOM-CC, STEOM-CC
   Dmitry Ganyushin       : Spin-Orbit,Spin-Spin,Magnetic field MRCI
   Miquel Garcia          : C-PCM Hessian, Gaussian charge scheme
   Yang Guo               : DLPNO-NEVPT2, CIM, IAO-localization
   Andreas Hansen         : Spin unrestricted coupled pair/coupled cluster methods
   Benjamin Helmich-Paris : CASSCF linear response (MC-RPA)
   Lee Huntington         : MR-EOM, pCC
   Robert Izsak           : Overlap fitted RIJCOSX, COSX-SCS-MP3, EOM
   Christian Kollmar      : KDIIS, OOCD, Brueckner-CCSD(T), CCSD density
   Simone Kossmann        : Meta GGA functionals, TD-DFT gradient, OOMP2, MP2 Hessian
   Martin Krupicka        : AUTO-CI
   Lucas Lang             : DCDCAS
   Dagmar Lenk            : GEPOL surface, SMD
   Dimitrios Liakos       : Extrapolation schemes; Compound Job, initial MDCI parallelization
   Dimitrios Manganas     : Further ROCIS development; embedding schemes
   Dimitrios Pantazis     : SARC Basis sets
   Taras Petrenko         : DFT Hessian,TD-DFT gradient, ASA, ECA, R-Raman, ABS, FL, XAS/XES, NRVS
   Peter Pinski           : DLPNO-MP2, DLPNO-MP2 Gradient
   Christoph Reimann      : Effective Core Potentials
   Marius Retegan         : Local ZFS, SOC
   Christoph Riplinger    : Optimizer, TS searches, QM/MM, DLPNO-CCSD(T), (RO)-DLPNO pert. Triples
   Tobias Risthaus        : Range-separated hybrids, TD-DFT gradient, RPA, STAB
   Michael Roemelt        : Original ROCIS implementation
   Masaaki Saitow         : Open-shell DLPNO-CCSD energy and density
   Barbara Sandhoefer     : DKH picture change effects
   Avijit Sen             : IP-ROCIS
   Kantharuban Sivalingam : CASSCF convergence, NEVPT2, FIC-MRCI
   Bernardo de Souza      : ESD, SOC TD-DFT
   Georgi Stoychev        : AutoAux, RI-MP2 NMR
   Willem Van den Heuvel  : Paramagnetic NMR
   Boris Wezisla          : Elementary symmetry handling
   Frank Wennmohs         : Technical directorship


 We gratefully acknowledge several colleagues who have allowed us to
 interface, adapt or use parts of their codes:
   Stefan Grimme, W. Hujo, H. Kruse,             : VdW corrections, initial TS optimization,
                  C. Bannwarth                     DFT functionals, gCP, sTDA/sTD-DF
   Ed Valeev, F. Pavosevic, A. Kumar             : LibInt (2-el integral package), F12 methods
   Garnet Chan, S. Sharma, J. Yang, R. Olivares  : DMRG
   Ulf Ekstrom                                   : XCFun DFT Library
   Mihaly Kallay                                 : mrcc  (arbitrary order and MRCC methods)
   Andreas Klamt, Michael Diedenhofen            : otool_cosmo (COSMO solvation model)
   Jiri Pittner, Ondrej Demel                    : Mk-CCSD
   Frank Weinhold                                : gennbo (NPA and NBO analysis)
   Christopher J. Cramer and Donald G. Truhlar   : smd solvation model
   Lars Goerigk                                  : TD-DFT with DH, B97 family of functionals
   V. Asgeirsson, H. Jonsson                     : NEB implementation
   FAccTs GmbH                                   : IRC, NEB, NEB-TS, Multilevel, MM, QM/MM, CI optimization
   S Lehtola, MJT Oliveira, MAL Marques          : LibXC Library


 Your calculation uses the libint2 library for the computation of 2-el integrals
 For citations please refer to: http://libint.valeyev.net

 Your ORCA version has been built with support for libXC version: 4.2.3
 For citations please refer to: https://tddft.org/programs/libxc/

 This ORCA versions uses:
   CBLAS   interface :  Fast vector & matrix operations
   LAPACKE interface :  Fast linear algebra routines
   SCALAPACK package :  Parallel linear algebra routines




***************************************
The coordinates will be read from file: init.xyz
***************************************


Your calculation utilizes the SMD solvation module
Please cite in your paper:
A.V. Marenich, C.J. Cramer, D.G. Truhlar J. Phys. Chem. B, 113, (2009), 6378 

Your calculation utilizes the semiempirical GFN2-xTB method
Please cite in your paper:
C. Bannwarth, Ehlert S., S. Grimme,  J. Chem. Theory Comput., 15, (2019), 1652.
   

----- Orbital basis set information -----
Your calculation utilizes the basis: def2-SVP
   F. Weigend and R. Ahlrichs, Phys. Chem. Chem. Phys. 7, 3297 (2005).

================================================================================
                                        WARNINGS
                       Please study these warnings very carefully!
================================================================================


WARNING: The environment variable RSH_COMMAND is not set!
  ===> : All Displacements for the Numerical Hessian calculation
         will be started on localhost

WARNING: Geometry Optimization
  ===> : Switching off AutoStart
         For restart on a previous wavefunction, please use MOREAD

WARNING: Found dipole moment calculation with XTB calculation
  ===> : Switching off dipole moment calculation


INFO   : the flag for use of LIBINT has been found!

================================================================================
                                       INPUT FILE
================================================================================
NAME = optts+freq.inp
|  1> ! XTB2 OptTS NumFreq IRC
|  2> 
|  3> %geom
|  4>  ts_mode
|  5>   {B 6 10}
|  6>  end
|  7>  ts_active_atoms
|  8>   {0 6 10 12 18 19 20 22 23}
|  9>  end
| 10>  calc_hess true
| 11>  numhess true
| 12> end
| 13> 
| 14> %irc
| 15>  maxiter 1000
| 16>  de_init_displ 0.25
| 17>  TolMAXG 1e-3
| 18>  TolRMSG 2e-4
| 19> end
| 20> 
| 21> %cpcm
| 22>  smd true
| 23>  smdsolvent "ch2cl2"
| 24> end
| 25> 
| 26> %pal
| 27>  nprocs 12
| 28> end
| 29> 
| 30> *xyzfile 0 1 init.xyz
| 31> 
| 32>                          ****END OF INPUT****
================================================================================

                       *****************************
                       * Geometry Optimization Run *
                       *****************************

Geometry optimization settings:
Update method            Update   .... Bofill
Choice of coordinates    CoordSys .... Z-matrix Internals
Initial Hessian          InHess   .... Almoef's Model

Convergence Tolerances:
Energy Change            TolE     ....  5.0000e-06 Eh
Max. Gradient            TolMAXG  ....  3.0000e-04 Eh/bohr
RMS Gradient             TolRMSG  ....  1.0000e-04 Eh/bohr
Max. Displacement        TolMAXD  ....  4.0000e-03 bohr
RMS Displacement         TolRMSD  ....  2.0000e-03 bohr
Strict Convergence                ....  False
------------------------------------------------------------------------------
                        ORCA OPTIMIZATION COORDINATE SETUP
------------------------------------------------------------------------------

The optimization will be done in new redundant internal coordinates
Making redundant internal coordinates   ...  (new redundants) done
Following TS mode number                ...    internal coordinate number: 16
TS-active-atoms for coordinate setup... 0 6 10 12 18 19 20 22 23 
Evaluating the initial hessian          ...  (Is done on the fly) done
Evaluating the coordinates              ...  done
Calculating the B-matrix                .... done
Calculating the G-matrix                .... done
Diagonalizing the G-matrix              .... done
Small eigenvalue found = 6.619e-03
Small eigenvalue found = 2.071e-02
The first mode is                       ....  109
The number of degrees of freedom        ....  102

    -----------------------------------------------------------------
                    Redundant Internal Coordinates


    -----------------------------------------------------------------
         Definition                    Initial Value    d2E/dq (diagonal element)
    -----------------------------------------------------------------
      1. B(C   1,C   0)                  1.3921         0.000000   
      2. B(C   2,C   1)                  1.3827         0.000000   
      3. B(C   2,C   0)                  2.4086         0.000000   
      4. B(C   3,C   0)                  2.7806         0.000000   
      5. B(C   3,C   2)                  1.3856         0.000000   
      6. B(C   4,C   3)                  1.3842         0.000000   
      7. B(C   4,C   0)                  2.4028         0.000000   
      8. B(C   5,C   4)                  1.3855         0.000000   
      9. B(C   5,C   0)                  1.3877         0.000000   
     10. B(C   6,C   0)                  1.5191         0.000000   
     11. B(C   6,C   5)                  2.5435         0.000000   
     12. B(C   6,C   1)                  2.5045         0.000000   
     13. B(H   7,C   1)                  1.0814         0.000000   
     14. B(H   8,C   5)                  1.0787         0.000000   
     15. B(H   9,C   3)                  1.0799         0.000000   
     16. B(N  10,C   6)                  1.5605         0.000000   
     17. B(N  10,C   0)                  2.4452         0.000000   
     18. B(C  11,N  10)                  1.4777         0.000000   
     19. B(C  11,C   6)                  2.5409         0.000000   
     20. B(H  12,C  11)                  2.0945         0.000000   
     21. B(H  12,N  10)                  1.0864         0.000000   
     22. B(C  13,C  11)                  1.5245         0.000000   
     23. B(C  13,N  10)                  2.4942         0.000000   
     24. B(H  14,C  11)                  1.0930         0.000000   
     25. B(H  15,C  11)                  1.0920         0.000000   
     26. B(H  16,C  13)                  1.0930         0.000000   
     27. B(H  17,C  13)                  1.0912         0.000000   
     28. B(O  18,C  11)                  2.8927         0.000000   
     29. B(O  18,N  10)                  2.3736         0.000000   
     30. B(O  18,C   5)                  2.9394         0.000000   
     31. B(O  18,C   0)                  2.4615         0.000000   
     32. B(O  18,C   6)                  1.3362         0.000000   
     33. B(O  19,O  18)                  2.4631         0.000000   
     34. B(H  20,C   6)                  2.0932         0.000000   
     35. B(H  20,O  19)                  1.2950         0.000000   
     36. B(H  20,O  18)                  1.1692         0.000000   
     37. B(H  21,O  19)                  0.9573         0.000000   
     38. B(O  22,N  10)                  2.6304         0.000000   
     39. B(O  22,H  12)                  1.5449         0.000000   
     40. B(O  22,O  19)                  2.4764         0.000000   
     41. B(H  23,O  22)                  1.0714         0.000000   
     42. B(H  23,O  19)                  1.4123         0.000000   
     43. B(H  24,O  22)                  0.9596         0.000000   
     44. B(H  25,O  18)                  1.9866         0.000000   
     45. B(H  25,C   6)                  1.1040         0.000000   
     46. B(H  26,N  10)                  1.0236         0.000000   
     47. B(H  27,C   2)                  1.0799         0.000000   
     48. B(H  28,C   4)                  1.0800         0.000000   
     49. B(C  29,C  13)                  1.5289         0.000000   
     50. B(H  30,C  29)                  1.0916         0.000000   
     51. B(H  31,C  29)                  1.0918         0.000000   
     52. B(C  32,C  29)                  1.5245         0.000000   
     53. B(H  33,C  32)                  1.0879         0.000000   
     54. B(H  34,C  32)                  1.0873         0.000000   
     55. B(H  35,C  32)                  1.0879         0.000000   
     56. A(C   5,C   0,C   6)          122.0315         0.000000   
     57. A(C   1,C   0,C   5)          119.3322         0.000000   
     58. A(C   1,C   0,C   6)          118.6359         0.000000   
     59. A(C   0,C   1,H   7)          119.8288         0.000000   
     60. A(C   0,C   1,C   2)          120.4552         0.000000   
     61. A(C   2,C   1,H   7)          119.7107         0.000000   
     62. A(C   1,C   2,H  27)          119.8928         0.000000   
     63. A(C   3,C   2,H  27)          120.1328         0.000000   
     64. A(C   1,C   2,C   3)          119.9739         0.000000   
     65. A(C   2,C   3,C   4)          119.8016         0.000000   
     66. A(C   2,C   3,H   9)          120.1084         0.000000   
     67. A(C   4,C   3,H   9)          120.0893         0.000000   
     68. A(C   3,C   4,C   5)          120.3466         0.000000   
     69. A(C   5,C   4,H  28)          119.4646         0.000000   
     70. A(C   3,C   4,H  28)          120.1888         0.000000   
     71. A(C   4,C   5,H   8)          120.0887         0.000000   
     72. A(C   0,C   5,H   8)          119.8215         0.000000   
     73. A(C   0,C   5,C   4)          120.0893         0.000000   
     74. A(C   0,C   6,O  18)          118.9681         0.000000   
     75. A(O  18,C   6,H  25)          108.6279         0.000000   
     76. A(N  10,C   6,O  18)          109.8105         0.000000   
     77. A(N  10,C   6,H  25)          104.9945         0.000000   
     78. A(C   0,C   6,H  25)          108.4353         0.000000   
     79. A(C   0,C   6,N  10)          105.1156         0.000000   
     80. A(C   6,N  10,C  11)          113.4770         0.000000   
     81. A(C  11,N  10,H  26)          110.4546         0.000000   
     82. A(H  12,N  10,H  26)          107.9666         0.000000   
     83. A(C   6,N  10,H  26)          109.2155         0.000000   
     84. A(C  11,N  10,H  12)          108.5846         0.000000   
     85. A(C   6,N  10,H  12)          106.9417         0.000000   
     86. A(H  14,C  11,H  15)          108.4962         0.000000   
     87. A(C  13,C  11,H  15)          110.1810         0.000000   
     88. A(N  10,C  11,H  15)          108.3010         0.000000   
     89. A(C  13,C  11,H  14)          110.8351         0.000000   
     90. A(N  10,C  11,H  14)          106.5254         0.000000   
     91. A(N  10,C  11,C  13)          112.3492         0.000000   
     92. L(N  10,H  12,O  22,C   6, 2) 175.5376         0.000000   
     93. L(N  10,H  12,O  22,C   6, 1) 180.2574         0.000000   
     94. A(H  16,C  13,H  17)          108.2950         0.000000   
     95. A(C  11,C  13,H  17)          109.8992         0.000000   
     96. A(C  11,C  13,H  16)          109.4667         0.000000   
     97. A(H  17,C  13,C  29)          108.9155         0.000000   
     98. A(H  16,C  13,C  29)          109.0569         0.000000   
     99. A(C  11,C  13,C  29)          111.1526         0.000000   
    100. A(C   6,O  18,H  20)          113.1672         0.000000   
    101. A(H  20,O  19,H  21)          104.7258         0.000000   
    102. A(H  21,O  19,H  23)          108.2021         0.000000   
    103. A(H  20,O  19,H  23)           95.7721         0.000000   
    104. L(O  18,H  20,O  19,H  23, 1) 178.6875         0.000000   
    105. L(O  18,H  20,O  19,H  23, 2) 184.2524         0.000000   
    106. A(H  12,O  22,H  24)          113.5979         0.000000   
    107. A(H  12,O  22,H  23)           91.5120         0.000000   
    108. A(H  23,O  22,H  24)          104.7835         0.000000   
    109. A(O  19,H  23,O  22)          171.0932         0.000000   
    110. A(H  31,C  29,C  32)          109.4326         0.000000   
    111. A(H  30,C  29,C  32)          109.4790         0.000000   
    112. A(C  13,C  29,C  32)          111.5965         0.000000   
    113. A(H  30,C  29,H  31)          107.7362         0.000000   
    114. A(C  13,C  29,H  31)          109.3141         0.000000   
    115. A(C  13,C  29,H  30)          109.2001         0.000000   
    116. A(H  34,C  32,H  35)          108.2909         0.000000   
    117. A(H  33,C  32,H  35)          108.4320         0.000000   
    118. A(C  29,C  32,H  35)          110.6359         0.000000   
    119. A(H  33,C  32,H  34)          108.3277         0.000000   
    120. A(C  29,C  32,H  34)          110.4027         0.000000   
    121. A(C  29,C  32,H  33)          110.6716         0.000000   
    122. D(C   2,C   1,C   0,C   6)   -179.4473         0.000000   
    123. D(C   2,C   1,C   0,C   5)      0.3425         0.000000   
    124. D(H   7,C   1,C   0,C   6)      1.3918         0.000000   
    125. D(H   7,C   1,C   0,C   5)   -178.8184         0.000000   
    126. D(H  27,C   2,C   1,C   0)   -179.8850         0.000000   
    127. D(C   3,C   2,C   1,C   0)     -0.1406         0.000000   
    128. D(C   3,C   2,C   1,H   7)    179.0212         0.000000   
    129. D(H  27,C   2,C   1,H   7)     -0.7232         0.000000   
    130. D(C   4,C   3,C   2,H  27)    179.5775         0.000000   
    131. D(H   9,C   3,C   2,H  27)     -0.1211         0.000000   
    132. D(C   4,C   3,C   2,C   1)     -0.1662         0.000000   
    133. D(H   9,C   3,C   2,C   1)   -179.8648         0.000000   
    134. D(H  28,C   4,C   3,C   2)   -179.6976         0.000000   
    135. D(C   5,C   4,C   3,C   2)      0.2697         0.000000   
    136. D(C   5,C   4,C   3,H   9)    179.9684         0.000000   
    137. D(H  28,C   4,C   3,H   9)      0.0010         0.000000   
    138. D(H   8,C   5,C   4,H  28)      0.1620         0.000000   
    139. D(C   0,C   5,C   4,C   3)     -0.0658         0.000000   
    140. D(C   0,C   5,C   4,H  28)    179.9018         0.000000   
    141. D(C   4,C   5,C   0,C   6)    179.5437         0.000000   
    142. D(H   8,C   5,C   4,C   3)   -179.8056         0.000000   
    143. D(C   4,C   5,C   0,C   1)     -0.2387         0.000000   
    144. D(H   8,C   5,C   0,C   6)     -0.7158         0.000000   
    145. D(H   8,C   5,C   0,C   1)    179.5018         0.000000   
    146. D(H  25,C   6,C   0,C   5)    147.6168         0.000000   
    147. D(H  25,C   6,C   0,C   1)    -32.5994         0.000000   
    148. D(O  18,C   6,C   0,C   5)     22.9098         0.000000   
    149. D(O  18,C   6,C   0,C   1)   -157.3063         0.000000   
    150. D(N  10,C   6,C   0,C   5)   -100.5112         0.000000   
    151. D(N  10,C   6,C   0,C   1)     79.2727         0.000000   
    152. D(C  11,N  10,C   6,C   0)   -173.1915         0.000000   
    153. D(H  26,N  10,C   6,O  18)   -178.5799         0.000000   
    154. D(H  26,N  10,C   6,C   0)    -49.4900         0.000000   
    155. D(H  12,N  10,C   6,H  25)   -178.6000         0.000000   
    156. D(H  12,N  10,C   6,O  18)    -61.9867         0.000000   
    157. D(H  12,N  10,C   6,C   0)     67.1033         0.000000   
    158. D(C  11,N  10,C   6,H  25)    -58.8948         0.000000   
    159. D(H  26,N  10,C   6,H  25)     64.8067         0.000000   
    160. D(C  11,N  10,C   6,O  18)     57.7185         0.000000   
    161. D(H  15,C  11,N  10,H  26)     83.1047         0.000000   
    162. D(H  15,C  11,N  10,C   6)   -153.8725         0.000000   
    163. D(H  14,C  11,N  10,H  12)     81.4224         0.000000   
    164. D(H  14,C  11,N  10,C   6)    -37.3424         0.000000   
    165. D(H  14,C  11,N  10,H  26)   -160.3652         0.000000   
    166. D(C  13,C  11,N  10,H  26)    -38.8234         0.000000   
    167. D(H  15,C  11,N  10,H  12)    -35.1078         0.000000   
    168. D(C  13,C  11,N  10,H  12)   -157.0359         0.000000   
    169. D(C  13,C  11,N  10,C   6)     84.1993         0.000000   
    170. D(C  29,C  13,C  11,H  15)     57.9546         0.000000   
    171. D(C  29,C  13,C  11,H  14)    -62.1460         0.000000   
    172. D(C  29,C  13,C  11,N  10)    178.8072         0.000000   
    173. D(H  17,C  13,C  11,H  15)    178.6000         0.000000   
    174. D(H  17,C  13,C  11,H  14)     58.4994         0.000000   
    175. D(H  17,C  13,C  11,N  10)    -60.5474         0.000000   
    176. D(H  16,C  13,C  11,H  15)    -62.5819         0.000000   
    177. D(H  16,C  13,C  11,H  14)    177.3176         0.000000   
    178. D(H  16,C  13,C  11,N  10)     58.2707         0.000000   
    179. D(H  20,O  18,C   6,H  25)    177.5566         0.000000   
    180. D(H  20,O  18,C   6,N  10)     63.2493         0.000000   
    181. D(H  20,O  18,C   6,C   0)    -57.8299         0.000000   
    182. D(H  23,O  19,O  18,C   6)    -31.7044         0.000000   
    183. D(H  21,O  19,O  18,C   6)   -141.8612         0.000000   
    184. D(H  23,O  22,N  10,C   6)     31.1974         0.000000   
    185. D(H  24,O  22,N  10,H  26)     42.7145         0.000000   
    186. D(H  24,O  22,N  10,C  11)    162.4054         0.000000   
    187. D(H  24,O  22,N  10,C   6)    -75.6045         0.000000   
    188. D(H  23,O  22,N  10,H  26)    149.5164         0.000000   
    189. D(H  23,O  22,N  10,C  11)    -90.7928         0.000000   
    190. D(O  19,H  23,O  22,H  12)    -18.0096         0.000000   
    191. D(O  19,H  23,O  22,H  24)     96.8964         0.000000   
    192. D(O  22,H  23,O  19,H  21)    123.2919         0.000000   
    193. D(O  22,H  23,O  19,H  20)     15.7030         0.000000   
    194. D(C  32,C  29,C  13,H  17)     58.9943         0.000000   
    195. D(C  32,C  29,C  13,H  16)    -59.0040         0.000000   
    196. D(C  32,C  29,C  13,C  11)   -179.7820         0.000000   
    197. D(H  31,C  29,C  13,H  17)   -179.8147         0.000000   
    198. D(H  31,C  29,C  13,H  16)     62.1870         0.000000   
    199. D(H  31,C  29,C  13,C  11)    -58.5910         0.000000   
    200. D(H  30,C  29,C  13,H  17)    -62.1781         0.000000   
    201. D(H  30,C  29,C  13,H  16)    179.8237         0.000000   
    202. D(H  30,C  29,C  13,C  11)     59.0456         0.000000   
    203. D(H  35,C  32,C  29,H  31)    178.8041         0.000000   
    204. D(H  35,C  32,C  29,H  30)     60.9363         0.000000   
    205. D(H  35,C  32,C  29,C  13)    -60.0739         0.000000   
    206. D(H  34,C  32,C  29,H  31)     58.9444         0.000000   
    207. D(H  34,C  32,C  29,H  30)    -58.9235         0.000000   
    208. D(H  34,C  32,C  29,C  13)   -179.9336         0.000000   
    209. D(H  33,C  32,C  29,H  31)    -60.9843         0.000000   
    210. D(H  33,C  32,C  29,H  30)   -178.8522         0.000000   
    211. D(H  33,C  32,C  29,C  13)     60.1377         0.000000   
    -----------------------------------------------------------------

Number of atoms                         .... 36
Number of degrees of freedom            .... 211

         *************************************************************
         *                GEOMETRY OPTIMIZATION CYCLE   1            *
         *************************************************************
      -----------------------------------------------------------      
     |                   =====================                   |     
     |                           x T B                           |     
     |                   =====================                   |     
     |                         S. Grimme                         |     
     |          Mulliken Center for Theoretical Chemistry        |     
     |                    University of Bonn                     |     
      -----------------------------------------------------------      

   * xtb version 6.3.0 (49875a8) compiled by 'schneider@apollo14' on 2020-05-23

   xtb is free software: you can redistribute it and/or modify it under
   the terms of the GNU Lesser General Public License as published by
   the Free Software Foundation, either version 3 of the License, or
   (at your option) any later version.
   
   xtb is distributed in the hope that it will be useful,
   but WITHOUT ANY WARRANTY; without even the implied warranty of
   MERCHANTABILITY or FITNESS FOR A PARTICULAR PURPOSE.  See the
   GNU Lesser General Public License for more details.
   
   Cite this work as:
   * S. Grimme, C. Bannwarth, P. Shushkov, J. Chem. Theory Comput., 2017,
     13, 1989-2009. DOI: 10.1021/acs.jctc.7b00118
   * C. Bannwarth, S. Ehlert and S. Grimme., J. Chem. Theory Comput., 2019,
     15, 1652-1671. DOI: 10.1021/acs.jctc.8b01176
   * P. Pracht, E. Caldeweyher, S. Ehlert, S. Grimme, ChemRxiv, 2019, preprint.
     DOI: 10.26434/chemrxiv.8326202.v1
   
   for GFN-FF:
   * S. Spicher and S. Grimme, Angew. Chem. Int. Ed., 2020,
     DOI: 10.1002/anie.202004239
   
   for DFT-D4:
   * E. Caldeweyher, C. Bannwarth and S. Grimme, J. Chem. Phys., 2017,
     147, 034112. DOI: 10.1063/1.4993215
   * E. Caldeweyher, S. Ehlert, A. Hansen, H. Neugebauer, S. Spicher,
     C. Bannwarth and S. Grimme, J. Chem. Phys., 2019, 150, 154122.
     DOI: 10.1063/1.5090222
   
   for sTDA-xTB:
   * S. Grimme and C. Bannwarth, J. Chem. Phys., 2016, 145, 054103.
     DOI: 10.1063/1.4959605
   
   in the mass-spec context:
   * V. Asgeirsson, C. Bauer and S. Grimme, Chem. Sci., 2017, 8, 4879.
     DOI: 10.1039/c7sc00601b
   * J. Koopman and S. Grimme, ACS Omega 2019, 4, 12, 15120-15133.
     DOI: 10.1021/acsomega.9b02011
   
   for metadynamics refer to:
   * S. Grimme, J. Chem. Theory Comput., 2019, 155, 2847-2862
     DOI: 10.1021/acs.jctc.9b00143
   
   with help from (in alphabetical order)
   C. Bannwarth, F. Bohle, G. Brandenburg, E. Caldeweyher, M. Checinski,
   S. Dohm, S. Ehlert, S. Ehrlich, F. März, H. Neugebauer, J. Pisarek,
   P. Pracht, P. Shushkov, and S. Spicher.
   
 * started run on 2020/06/24 at 14:49:19.952     

           -------------------------------------------------
          |                Calculation Setup                |
           -------------------------------------------------

          program call               : /opt/orca/otool_xtb optts+freq_XTB.xyz --grad -c 0 -u 0 -P 12 --namespace optts+freq --gbsa CH2Cl2
          calculation namespace      : optts+freq
          coordinate file            : optts+freq_XTB.xyz
          number of atoms            :                    36
          number of electrons        :                    88
          charge                     :                     0
          spin                       :                   0.0
          first test random number   :      0.82928471365152

   ID    Z sym.   atoms
    1    6 C      1-7, 12, 14, 30, 33
    2    1 H      8-10, 13, 15-18, 21, 22, 24-29, 31, 32, 34-36
    3    7 N      11
    4    8 O      19, 20, 23

molecular fragmentation (1/2 indicates fragments):
111111111111111111121222211111111111
# atoms in fragment 1/2:    31     5
 fragment masses (1/2) :      180.27       35.02
CMA distance (Bohr)    :   6.325
constraining FC (au)   :  0.0500
########################################################################
[WARNING] Please study the warnings concerning your input carefully
-1- prog_main_parseArguments: Process number higher than OMP_NUM_THREADS, I hope you know what you are doing.
########################################################################
 Solvent             : CH2Cl2
 Using internal parameter file: .param_gbsa2_CH2Cl2
 Gsolv ref. state (COSMO-RS): gsolv [1 M gas/solution]
 temperature (mdtemp)       :    298.14999999999998     
 dielectric constant        :    8.9299999999999997     
 rho                        :    1.3300000000000003     
 mass                       :    84.930000000000007     
 surface tension            :    15.568945408385856     
 probe radius               :   0.71987590000000001     
 Gshift (Eh)                :    4.4408291734517593E-003
 c1                         :    1.4917377599999999     
 soset                      :    0.0000000000000000     
 HB correction              :  F

           -------------------------------------------------
          |                 G F N 2 - x T B                 |
           -------------------------------------------------

        Reference                      10.1021/acs.jctc.8b01176
      * Hamiltonian:
        H0-scaling (s, p, d)           1.850000    2.230000    2.230000
        zeta-weighting                 0.500000
      * Dispersion:
        s8                             2.700000
        a1                             0.520000
        a2                             5.000000
        s9                             5.000000
      * Repulsion:
        kExp                           1.500000    1.000000
        rExp                           1.000000
      * Coulomb:
        alpha                          2.000000
        third order                    shell-resolved
        anisotropic                    true
        a3                             3.000000
        a5                             4.000000
        cn-shift                       1.200000
        cn-exp                         4.000000
        max-rad                        5.000000


          ...................................................
          :                      SETUP                      :
          :.................................................:
          :  # basis functions                  81          :
          :  # atomic orbitals                  81          :
          :  # shells                           51          :
          :  # electrons                        88          :
          :  max. iterations                   250          :
          :  Hamiltonian                  GFN2-xTB          :
          :  restarted?                      false          :
          :  GBSA solvation                   true          :
          :  PC potential                    false          :
          :  electronic temp.          300.0000000     K    :
          :  accuracy                    1.0000000          :
          :  -> integral cutoff          0.2500000E+02      :
          :  -> integral neglect         0.1000000E-07      :
          :  -> SCF convergence          0.1000000E-05 Eh   :
          :  -> wf. convergence          0.1000000E-03 e    :
          :  Broyden damping             0.4000000          :
          ...................................................

 iter      E             dE          RMSdq      gap      omega  full diag
   1    -49.8538193 -0.498538E+02  0.402E+00    4.67       0.0  T
   2    -49.9549862 -0.101167E+00  0.230E+00    4.30       1.0  T
   3    -49.9571096 -0.212334E-02  0.920E-01    3.82       1.0  T
   4    -49.9570566  0.529796E-04  0.291E-01    3.81       1.0  T
   5    -49.9595444 -0.248780E-02  0.763E-02    3.88       1.0  T
   6    -49.9595705 -0.260652E-04  0.278E-02    3.92       1.0  T
   7    -49.9595718 -0.135744E-05  0.129E-02    3.92       1.3  T
   8    -49.9595739 -0.205453E-05  0.402E-03    3.92       4.1  T
   9    -49.9595740 -0.725155E-07  0.169E-03    3.92       9.9  T
  10    -49.9595740 -0.282719E-07  0.758E-04    3.92      22.0  T
  11    -49.9595740 -0.226169E-08  0.314E-04    3.92      53.1  T

   *** convergence criteria satisfied after 11 iterations ***

         #    Occupation            Energy/Eh            Energy/eV
      -------------------------------------------------------------
         1        2.0000           -0.6952616             -18.9190
       ...           ...                  ...                  ...
        38        2.0000           -0.4311483             -11.7321
        39        2.0000           -0.4275947             -11.6354
        40        2.0000           -0.4130518             -11.2397
        41        2.0000           -0.4122810             -11.2187
        42        2.0000           -0.4074570             -11.0875
        43        2.0000           -0.3970870             -10.8053
        44        2.0000           -0.3821144             -10.3979 (HOMO)
        45                         -0.2381740              -6.4810 (LUMO)
        46                         -0.2313288              -6.2948
        47                         -0.1136170              -3.0917
        48                         -0.0597866              -1.6269
        49                         -0.0040412              -0.1100
       ...                                ...                  ...
        81                          0.6556289              17.8406
      -------------------------------------------------------------
                  HL-Gap            0.1439404 Eh            3.9168 eV
             Fermi-level           -0.3101442 Eh           -8.4395 eV

 SCC (total)                   0 d,  0 h,  0 min,  0.109 sec
 SCC setup                      ...        0 min,  0.001 sec (  1.027%)
 Dispersion                     ...        0 min,  0.000 sec (  0.319%)
 classical contributions        ...        0 min,  0.000 sec (  0.110%)
 integral evaluation            ...        0 min,  0.013 sec ( 11.854%)
 iterations                     ...        0 min,  0.060 sec ( 54.699%)
 molecular gradient             ...        0 min,  0.033 sec ( 30.397%)
 printout                       ...        0 min,  0.002 sec (  1.574%)

         :::::::::::::::::::::::::::::::::::::::::::::::::::::
         ::                     SUMMARY                     ::
         :::::::::::::::::::::::::::::::::::::::::::::::::::::
         :: total energy             -49.360205450189 Eh    ::
         :: total w/o Gsasa/hb       -49.342772207542 Eh    ::
         :: gradient norm              0.000142901390 Eh/a0 ::
         :: HOMO-LUMO gap              3.916818507742 eV    ::
         ::.................................................::
         :: SCC energy               -49.977007229308 Eh    ::
         :: -> isotropic ES            0.159410273205 Eh    ::
         :: -> anisotropic ES         -0.012895372699 Eh    ::
         :: -> anisotropic XC          0.018341063717 Eh    ::
         :: -> dispersion             -0.029499370553 Eh    ::
         :: -> Gsolv                  -0.036504503643 Eh    ::
         ::    -> Gborn               -0.019071260996 Eh    ::
         ::    -> Gsasa               -0.021874071820 Eh    ::
         ::    -> Ghb                  0.000000000000 Eh    ::
         ::    -> Gshift               0.004440829173 Eh    ::
         :: repulsion energy           0.616616439016 Eh    ::
         :: add. restraining           0.000000000000 Eh    ::
         :::::::::::::::::::::::::::::::::::::::::::::::::::::

           -------------------------------------------------
          |                Property Printout                |
           -------------------------------------------------

    * Orbital Energies and Occupations

         #    Occupation            Energy/Eh            Energy/eV
      -------------------------------------------------------------
         1        2.0000           -0.6952616             -18.9190
       ...           ...                  ...                  ...
        32        2.0000           -0.4680764             -12.7370
        33        2.0000           -0.4579507             -12.4615
        34        2.0000           -0.4545683             -12.3694
        35        2.0000           -0.4443541             -12.0915
        36        2.0000           -0.4416647             -12.0183
        37        2.0000           -0.4340473             -11.8110
        38        2.0000           -0.4311483             -11.7321
        39        2.0000           -0.4275947             -11.6354
        40        2.0000           -0.4130518             -11.2397
        41        2.0000           -0.4122810             -11.2187
        42        2.0000           -0.4074570             -11.0875
        43        2.0000           -0.3970870             -10.8053
        44        2.0000           -0.3821144             -10.3979 (HOMO)
        45                         -0.2381740              -6.4810 (LUMO)
        46                         -0.2313288              -6.2948
        47                         -0.1136170              -3.0917
        48                         -0.0597866              -1.6269
        49                         -0.0040412              -0.1100
        50                          0.0222195               0.6046
        51                          0.0508203               1.3829
        52                          0.0705182               1.9189
        53                          0.0922278               2.5096
        54                          0.0969320               2.6377
        55                          0.1082056               2.9444
       ...                                ...                  ...
        81                          0.6556289              17.8406
      -------------------------------------------------------------
                  HL-Gap            0.1439404 Eh            3.9168 eV
             Fermi-level           -0.3101442 Eh           -8.4395 eV

     #   Z        covCN         q      C6AA      α(0)
     1   6 C      2.970    -0.028    28.690     8.786
     2   6 C      2.924    -0.045    29.112     8.848
     3   6 C      2.919    -0.029    28.720     8.788
     4   6 C      2.920    -0.029    28.714     8.787
     5   6 C      2.920    -0.029    28.723     8.789
     6   6 C      2.921    -0.034    28.838     8.806
     7   6 C      3.654     0.184    17.936     6.081
     8   1 H      0.925     0.040     2.454     2.450
     9   1 H      0.926     0.060     2.201     2.320
    10   1 H      0.926     0.043     2.413     2.429
    11   7 N      3.515    -0.129    23.786     7.244
    12   6 C      3.734    -0.018    20.979     6.537
    13   1 H      0.859     0.275     0.793     1.395
    14   6 C      3.802    -0.071    21.861     6.657
    15   1 H      0.924     0.089     1.884     2.147
    16   1 H      0.924     0.077     2.013     2.219
    17   1 H      0.924     0.053     2.285     2.364
    18   1 H      0.924     0.053     2.285     2.364
    19   8 O      1.496    -0.564    24.471     6.670
    20   8 O      1.225    -0.785    30.774     7.452
    21   1 H      0.971     0.341     0.597     1.207
    22   1 H      0.806     0.229     0.978     1.553
    23   8 O      1.582    -0.661    26.727     6.976
    24   1 H      0.858     0.332     0.624     1.238
    25   1 H      0.805     0.277     0.795     1.400
    26   1 H      0.923     0.036     2.499     2.472
    27   1 H      0.859     0.209     1.059     1.612
    28   1 H      0.926     0.045     2.377     2.411
    29   1 H      0.926     0.039     2.459     2.452
    30   6 C      3.801    -0.057    21.605     6.618
    31   1 H      0.924     0.040     2.450     2.448
    32   1 H      0.924     0.041     2.430     2.438
    33   6 C      3.752    -0.108    22.618     6.782
    34   1 H      0.925     0.041     2.433     2.439
    35   1 H      0.925     0.040     2.447     2.446
    36   1 H      0.925     0.040     2.455     2.450

 Mol. C6AA /au·bohr⁶  :      10743.790127
 Mol. C8AA /au·bohr⁸  :     236882.131824
 Mol. α(0) /au        :        158.075219


Wiberg/Mayer (AO) data.
largest (>0.10) Wiberg bond orders for each atom
          total WBO             WBO to atom ...
     1  C   3.986        C    6 1.423    C    2 1.406    C    7 0.967    C    4 0.109
     2  C   3.991        C    3 1.452    C    1 1.406    H    8 0.967    C    5 0.112
     3  C   3.992        C    2 1.452    C    4 1.432    H   28 0.970    C    6 0.111
     4  C   3.991        C    5 1.446    C    3 1.432    H   10 0.970    C    1 0.109
     5  C   3.992        C    4 1.446    C    6 1.436    H   29 0.971    C    2 0.112
     6  C   3.989        C    5 1.436    C    1 1.423    H    9 0.960    C    3 0.111
     7  C   3.937        O   19 1.141    C    1 0.967    H   26 0.945    N   11 0.825
     8  H   0.998        C    2 0.967
     9  H   0.996        C    6 0.960
    10  H   0.998        C    4 0.970
    11  N   3.661        C   12 0.959    H   27 0.929    C    7 0.825    H   13 0.754
    12  C   3.936        C   14 1.009    H   16 0.969    H   15 0.964    N   11 0.959
    13  H   0.924        N   11 0.754    O   23 0.150
    14  C   3.991        C   12 1.009    C   30 1.004    H   17 0.973    H   18 0.973
    15  H   0.992        C   12 0.964
    16  H   0.993        C   12 0.969
    17  H   0.997        C   14 0.973
    18  H   0.997        C   14 0.973
    19  O   1.891        C    7 1.141    H   21 0.502
    20  O   1.734        H   22 0.942    H   21 0.363    H   24 0.226
    21  H   0.883        O   19 0.502    O   20 0.363
    22  H   0.947        O   20 0.942
    23  O   1.892        H   25 0.919    H   24 0.661    H   13 0.150
    24  H   0.889        O   23 0.661    O   20 0.226
    25  H   0.923        O   23 0.919
    26  H   0.998        C    7 0.945
    27  H   0.956        N   11 0.929
    28  H   0.998        C    3 0.970
    29  H   0.998        C    5 0.971
    30  C   3.995        C   33 1.020    C   14 1.004    H   31 0.978    H   32 0.978
    31  H   0.998        C   30 0.978
    32  H   0.998        C   30 0.978
    33  C   3.995        C   30 1.020    H   36 0.988    H   34 0.987    H   35 0.987
    34  H   0.998        C   33 0.987
    35  H   0.998        C   33 0.987
    36  H   0.998        C   33 0.988
Topologies differ in total number of bonds
Writing topology from bond orders to xtbtopo.mol

molecular dipole:
                 x           y           z       tot (Debye)
 q only:       -0.071       3.152       0.887
   full:       -0.210       3.024       1.050       8.154
molecular quadrupole (traceless):
                xx          xy          yy          xz          yz          zz
 q only:       10.861      16.748      -2.124       0.250      -0.953      -8.737
  q+dip:        9.793      13.960       1.069      -0.838      -1.737     -10.862
   full:        9.390      14.220      -0.215      -0.188      -1.373      -9.175


           -------------------------------------------------
          | TOTAL ENERGY              -49.360205450189 Eh   |
          | GRADIENT NORM               0.000142901390 Eh/α |
          | HOMO-LUMO GAP               3.916818507742 eV   |
           -------------------------------------------------
########################################################################
[WARNING] Runtime exception occurred
-2- restart_readRestart: Dimension missmatch in restart file.
-1- restart_readRestart: Number of electron missmatch in restart file.
########################################################################

------------------------------------------------------------------------
 * finished run on 2020/06/24 at 14:49:20.097     
------------------------------------------------------------------------
 total:
 * wall-time:     0 d,  0 h,  0 min,  0.146 sec
 *  cpu-time:     0 d,  0 h,  0 min,  1.299 sec
 * ratio c/w:     8.917 speedup
 SCF:
 * wall-time:     0 d,  0 h,  0 min,  0.110 sec
 *  cpu-time:     0 d,  0 h,  0 min,  1.004 sec
 * ratio c/w:     9.136 speedup


-------------------------   --------------------
FINAL SINGLE POINT ENERGY       -49.360205450190
-------------------------   --------------------


----------------------------------------------------------------------------
                           ORCA NUMERICAL FREQUENCIES
                              (12-process run)
----------------------------------------------------------------------------

Number of atoms                ... 36
Central differences            ... used
Number of displacements        ... 216
Numerical increment            ... 5.000e-03 bohr
IR-spectrum generation         ... on
Raman-spectrum generation      ... off
Surface Crossing Hessian       ... off
List of participating nodes    ...  optts+freq.hostnames

The output will be reduced. Please look at the following files:
SCF program output             ... >optts+freq.lastscf
Integral program output        ... >optts+freq.lastint
Gradient program output        ... >optts+freq.lastgrad
Dipole moment program output   ... >optts+freq.lastmom
AutoCI program output          ... >optts+freq.lastautoci


         <<< Energy and Gradient at the input geometry >>>

        <<< Energy and Gradient at displaced geometries >>>
             <<<Displacing   1/coordinate 2 (+)>>>
             <<<Displacing   3/coordinate 3 (+)>>>
             <<<Displacing   2/coordinate 1 (+)>>>
             <<<Displacing   1/coordinate 3 (+)>>>
             <<<Displacing   3/coordinate 1 (+)>>>
             <<<Displacing   1/coordinate 1 (+)>>>
             <<<Displacing   3/coordinate 2 (+)>>>
             <<<Displacing   4/coordinate 2 (+)>>>
             <<<Displacing   4/coordinate 3 (+)>>>
             <<<Displacing   3/coordinate 3 (-)>>>
             <<<Displacing   2/coordinate 1 (-)>>>
             <<<Displacing   1/coordinate 1 (-)>>>
             <<<Displacing   1/coordinate 2 (-)>>>
             <<<Displacing   3/coordinate 1 (-)>>>
             <<<Displacing   4/coordinate 1 (+)>>>
             <<<Displacing   2/coordinate 3 (+)>>>
             <<<Displacing   3/coordinate 2 (-)>>>
             <<<Displacing   2/coordinate 2 (+)>>>
             <<<Displacing   1/coordinate 3 (-)>>>
             <<<Displacing   4/coordinate 3 (-)>>>
             <<<Displacing   4/coordinate 2 (-)>>>
             <<<Displacing   2/coordinate 3 (-)>>>
             <<<Displacing   2/coordinate 2 (-)>>>
             <<<Displacing   4/coordinate 1 (-)>>>
             <<<Displacing   5/coordinate 2 (+)>>>
             <<<Displacing   6/coordinate 2 (+)>>>
             <<<Displacing   6/coordinate 1 (+)>>>
             <<<Displacing   5/coordinate 3 (+)>>>
             <<<Displacing   8/coordinate 1 (+)>>>
             <<<Displacing   5/coordinate 3 (-)>>>
             <<<Displacing   6/coordinate 2 (-)>>>
             <<<Displacing   5/coordinate 2 (-)>>>
             <<<Displacing   6/coordinate 1 (-)>>>
             <<<Displacing   5/coordinate 1 (+)>>>
             <<<Displacing   8/coordinate 1 (-)>>>
             <<<Displacing   7/coordinate 2 (+)>>>
             <<<Displacing   8/coordinate 2 (+)>>>
             <<<Displacing   5/coordinate 1 (-)>>>
             <<<Displacing   7/coordinate 2 (-)>>>
             <<<Displacing   8/coordinate 3 (+)>>>
             <<<Displacing   6/coordinate 3 (+)>>>
             <<<Displacing   8/coordinate 2 (-)>>>
             <<<Displacing   7/coordinate 3 (+)>>>
             <<<Displacing   7/coordinate 1 (+)>>>
             <<<Displacing   8/coordinate 3 (-)>>>
             <<<Displacing   7/coordinate 3 (-)>>>
             <<<Displacing   6/coordinate 3 (-)>>>
             <<<Displacing   7/coordinate 1 (-)>>>
             <<<Displacing   9/coordinate 1 (+)>>>
             <<<Displacing   9/coordinate 1 (-)>>>
             <<<Displacing   9/coordinate 2 (+)>>>
             <<<Displacing  10/coordinate 2 (+)>>>
             <<<Displacing  10/coordinate 1 (+)>>>
             <<<Displacing   9/coordinate 2 (-)>>>
             <<<Displacing  10/coordinate 3 (+)>>>
             <<<Displacing  11/coordinate 2 (+)>>>
             <<<Displacing   9/coordinate 3 (+)>>>
             <<<Displacing  11/coordinate 3 (+)>>>
             <<<Displacing  10/coordinate 2 (-)>>>
             <<<Displacing  11/coordinate 1 (+)>>>
             <<<Displacing  10/coordinate 1 (-)>>>
             <<<Displacing  10/coordinate 3 (-)>>>
             <<<Displacing  11/coordinate 3 (-)>>>
             <<<Displacing  11/coordinate 2 (-)>>>
             <<<Displacing   9/coordinate 3 (-)>>>
             <<<Displacing  11/coordinate 1 (-)>>>
             <<<Displacing  12/coordinate 1 (+)>>>
             <<<Displacing  12/coordinate 1 (-)>>>
             <<<Displacing  12/coordinate 2 (+)>>>
             <<<Displacing  12/coordinate 3 (+)>>>
             <<<Displacing  12/coordinate 2 (-)>>>
             <<<Displacing  12/coordinate 3 (-)>>>
             <<<Displacing  13/coordinate 1 (+)>>>
             <<<Displacing  13/coordinate 3 (+)>>>
             <<<Displacing  14/coordinate 1 (+)>>>
             <<<Displacing  13/coordinate 1 (-)>>>
             <<<Displacing  14/coordinate 3 (+)>>>
             <<<Displacing  13/coordinate 3 (-)>>>
             <<<Displacing  13/coordinate 2 (+)>>>
             <<<Displacing  14/coordinate 1 (-)>>>
             <<<Displacing  15/coordinate 1 (+)>>>
             <<<Displacing  14/coordinate 3 (-)>>>
             <<<Displacing  16/coordinate 2 (+)>>>
             <<<Displacing  13/coordinate 2 (-)>>>
             <<<Displacing  15/coordinate 3 (+)>>>
             <<<Displacing  15/coordinate 1 (-)>>>
             <<<Displacing  14/coordinate 2 (+)>>>
             <<<Displacing  15/coordinate 2 (+)>>>
             <<<Displacing  15/coordinate 3 (-)>>>
             <<<Displacing  16/coordinate 2 (-)>>>
             <<<Displacing  16/coordinate 3 (+)>>>
             <<<Displacing  14/coordinate 2 (-)>>>
             <<<Displacing  15/coordinate 2 (-)>>>
             <<<Displacing  16/coordinate 3 (-)>>>
             <<<Displacing  16/coordinate 1 (+)>>>
             <<<Displacing  16/coordinate 1 (-)>>>
             <<<Displacing  17/coordinate 1 (+)>>>
             <<<Displacing  18/coordinate 1 (+)>>>
             <<<Displacing  18/coordinate 3 (+)>>>
             <<<Displacing  17/coordinate 1 (-)>>>
             <<<Displacing  18/coordinate 1 (-)>>>
             <<<Displacing  19/coordinate 1 (+)>>>
             <<<Displacing  18/coordinate 3 (-)>>>
             <<<Displacing  18/coordinate 2 (+)>>>
             <<<Displacing  17/coordinate 2 (+)>>>
             <<<Displacing  20/coordinate 2 (+)>>>
             <<<Displacing  19/coordinate 1 (-)>>>
             <<<Displacing  19/coordinate 3 (+)>>>
             <<<Displacing  19/coordinate 2 (+)>>>
             <<<Displacing  18/coordinate 2 (-)>>>
             <<<Displacing  20/coordinate 2 (-)>>>
             <<<Displacing  17/coordinate 2 (-)>>>
             <<<Displacing  20/coordinate 1 (+)>>>
             <<<Displacing  17/coordinate 3 (+)>>>
             <<<Displacing  19/coordinate 3 (-)>>>
             <<<Displacing  19/coordinate 2 (-)>>>
             <<<Displacing  17/coordinate 3 (-)>>>
             <<<Displacing  20/coordinate 1 (-)>>>
             <<<Displacing  20/coordinate 3 (+)>>>
             <<<Displacing  20/coordinate 3 (-)>>>
             <<<Displacing  21/coordinate 3 (+)>>>
             <<<Displacing  21/coordinate 1 (+)>>>
             <<<Displacing  22/coordinate 1 (+)>>>
             <<<Displacing  21/coordinate 3 (-)>>>
             <<<Displacing  21/coordinate 2 (+)>>>
             <<<Displacing  21/coordinate 2 (-)>>>
             <<<Displacing  21/coordinate 1 (-)>>>
             <<<Displacing  23/coordinate 1 (+)>>>
             <<<Displacing  22/coordinate 1 (-)>>>
             <<<Displacing  22/coordinate 2 (+)>>>
             <<<Displacing  22/coordinate 3 (+)>>>
             <<<Displacing  22/coordinate 3 (-)>>>
             <<<Displacing  23/coordinate 1 (-)>>>
             <<<Displacing  22/coordinate 2 (-)>>>
             <<<Displacing  23/coordinate 3 (+)>>>
             <<<Displacing  24/coordinate 1 (+)>>>
             <<<Displacing  23/coordinate 3 (-)>>>
             <<<Displacing  24/coordinate 2 (+)>>>
             <<<Displacing  23/coordinate 2 (+)>>>
             <<<Displacing  24/coordinate 1 (-)>>>
             <<<Displacing  23/coordinate 2 (-)>>>
             <<<Displacing  24/coordinate 2 (-)>>>
             <<<Displacing  24/coordinate 3 (+)>>>
             <<<Displacing  24/coordinate 3 (-)>>>
             <<<Displacing  26/coordinate 1 (+)>>>
             <<<Displacing  25/coordinate 1 (+)>>>
             <<<Displacing  25/coordinate 3 (+)>>>
             <<<Displacing  25/coordinate 1 (-)>>>
             <<<Displacing  26/coordinate 2 (+)>>>
             <<<Displacing  27/coordinate 1 (+)>>>
             <<<Displacing  26/coordinate 1 (-)>>>
             <<<Displacing  27/coordinate 3 (+)>>>
             <<<Displacing  25/coordinate 3 (-)>>>
             <<<Displacing  27/coordinate 2 (+)>>>
             <<<Displacing  26/coordinate 3 (+)>>>
             <<<Displacing  27/coordinate 1 (-)>>>
             <<<Displacing  26/coordinate 2 (-)>>>
             <<<Displacing  25/coordinate 2 (+)>>>
             <<<Displacing  27/coordinate 3 (-)>>>
             <<<Displacing  27/coordinate 2 (-)>>>
             <<<Displacing  25/coordinate 2 (-)>>>
             <<<Displacing  28/coordinate 1 (+)>>>
             <<<Displacing  26/coordinate 3 (-)>>>
             <<<Displacing  28/coordinate 1 (-)>>>
             <<<Displacing  28/coordinate 2 (+)>>>
             <<<Displacing  28/coordinate 2 (-)>>>
             <<<Displacing  28/coordinate 3 (+)>>>
             <<<Displacing  28/coordinate 3 (-)>>>
             <<<Displacing  30/coordinate 1 (+)>>>
             <<<Displacing  31/coordinate 1 (+)>>>
             <<<Displacing  30/coordinate 3 (+)>>>
             <<<Displacing  29/coordinate 1 (+)>>>
             <<<Displacing  29/coordinate 3 (+)>>>
             <<<Displacing  31/coordinate 3 (+)>>>
             <<<Displacing  30/coordinate 2 (+)>>>
             <<<Displacing  30/coordinate 1 (-)>>>
             <<<Displacing  30/coordinate 3 (-)>>>
             <<<Displacing  29/coordinate 2 (+)>>>
             <<<Displacing  31/coordinate 1 (-)>>>
             <<<Displacing  31/coordinate 3 (-)>>>
             <<<Displacing  29/coordinate 3 (-)>>>
             <<<Displacing  29/coordinate 1 (-)>>>
             <<<Displacing  29/coordinate 2 (-)>>>
             <<<Displacing  30/coordinate 2 (-)>>>
             <<<Displacing  32/coordinate 1 (+)>>>
             <<<Displacing  31/coordinate 2 (+)>>>
             <<<Displacing  32/coordinate 1 (-)>>>
             <<<Displacing  31/coordinate 2 (-)>>>
             <<<Displacing  32/coordinate 2 (+)>>>
             <<<Displacing  32/coordinate 2 (-)>>>
             <<<Displacing  32/coordinate 3 (+)>>>
             <<<Displacing  32/coordinate 3 (-)>>>
             <<<Displacing  33/coordinate 3 (+)>>>
             <<<Displacing  33/coordinate 1 (+)>>>
             <<<Displacing  34/coordinate 1 (+)>>>
             <<<Displacing  33/coordinate 3 (-)>>>
             <<<Displacing  33/coordinate 1 (-)>>>
             <<<Displacing  33/coordinate 2 (+)>>>
             <<<Displacing  34/coordinate 3 (+)>>>
             <<<Displacing  35/coordinate 2 (+)>>>
             <<<Displacing  34/coordinate 1 (-)>>>
             <<<Displacing  34/coordinate 3 (-)>>>
             <<<Displacing  34/coordinate 2 (+)>>>
             <<<Displacing  33/coordinate 2 (-)>>>
             <<<Displacing  35/coordinate 2 (-)>>>
             <<<Displacing  35/coordinate 3 (+)>>>
             <<<Displacing  34/coordinate 2 (-)>>>
             <<<Displacing  35/coordinate 1 (+)>>>
             <<<Displacing  36/coordinate 1 (+)>>>
             <<<Displacing  35/coordinate 3 (-)>>>
             <<<Displacing  36/coordinate 1 (-)>>>
             <<<Displacing  35/coordinate 1 (-)>>>
             <<<Displacing  36/coordinate 2 (+)>>>
             <<<Displacing  36/coordinate 2 (-)>>>
             <<<Displacing  36/coordinate 3 (+)>>>
             <<<Displacing  36/coordinate 3 (-)>>>

-----------------------
VIBRATIONAL FREQUENCIES
-----------------------

Scaling factor for frequencies =  1.000000000 (already applied!)

   0:         0.00 cm**-1
   1:         0.00 cm**-1
   2:         0.00 cm**-1
   3:         0.00 cm**-1
   4:         0.00 cm**-1
   5:         0.00 cm**-1
   6:      -617.83 cm**-1 ***imaginary mode***
   7:        28.93 cm**-1
   8:        36.00 cm**-1
   9:        46.92 cm**-1
  10:        53.43 cm**-1
  11:        64.45 cm**-1
  12:        94.26 cm**-1
  13:       103.10 cm**-1
  14:       123.27 cm**-1
  15:       134.17 cm**-1
  16:       200.14 cm**-1
  17:       213.50 cm**-1
  18:       225.61 cm**-1
  19:       242.70 cm**-1
  20:       246.53 cm**-1
  21:       328.59 cm**-1
  22:       366.53 cm**-1
  23:       367.93 cm**-1
  24:       400.25 cm**-1
  25:       426.62 cm**-1
  26:       478.60 cm**-1
  27:       498.96 cm**-1
  28:       511.13 cm**-1
  29:       521.93 cm**-1
  30:       549.43 cm**-1
  31:       588.73 cm**-1
  32:       597.51 cm**-1
  33:       613.13 cm**-1
  34:       666.12 cm**-1
  35:       676.59 cm**-1
  36:       730.27 cm**-1
  37:       750.79 cm**-1
  38:       777.77 cm**-1
  39:       800.10 cm**-1
  40:       824.18 cm**-1
  41:       846.83 cm**-1
  42:       882.38 cm**-1
  43:       902.41 cm**-1
  44:       912.94 cm**-1
  45:       929.97 cm**-1
  46:       939.10 cm**-1
  47:       950.56 cm**-1
  48:       954.10 cm**-1
  49:       984.46 cm**-1
  50:      1031.19 cm**-1
  51:      1065.40 cm**-1
  52:      1084.17 cm**-1
  53:      1093.73 cm**-1
  54:      1109.18 cm**-1
  55:      1121.99 cm**-1
  56:      1127.88 cm**-1
  57:      1148.77 cm**-1
  58:      1171.28 cm**-1
  59:      1179.24 cm**-1
  60:      1193.86 cm**-1
  61:      1201.96 cm**-1
  62:      1217.50 cm**-1
  63:      1229.66 cm**-1
  64:      1247.43 cm**-1
  65:      1258.00 cm**-1
  66:      1273.59 cm**-1
  67:      1276.77 cm**-1
  68:      1284.26 cm**-1
  69:      1288.23 cm**-1
  70:      1318.04 cm**-1
  71:      1337.66 cm**-1
  72:      1343.10 cm**-1
  73:      1351.08 cm**-1
  74:      1365.01 cm**-1
  75:      1415.41 cm**-1
  76:      1432.65 cm**-1
  77:      1436.08 cm**-1
  78:      1458.68 cm**-1
  79:      1469.33 cm**-1
  80:      1480.71 cm**-1
  81:      1491.85 cm**-1
  82:      1499.65 cm**-1
  83:      1500.05 cm**-1
  84:      1501.69 cm**-1
  85:      1530.87 cm**-1
  86:      1590.61 cm**-1
  87:      1597.71 cm**-1
  88:      1838.37 cm**-1
  89:      2317.42 cm**-1
  90:      2819.01 cm**-1
  91:      2963.98 cm**-1
  92:      2976.57 cm**-1
  93:      2984.34 cm**-1
  94:      2988.46 cm**-1
  95:      2992.78 cm**-1
  96:      2998.27 cm**-1
  97:      3029.17 cm**-1
  98:      3032.42 cm**-1
  99:      3041.31 cm**-1
 100:      3062.22 cm**-1
 101:      3075.81 cm**-1
 102:      3082.39 cm**-1
 103:      3092.98 cm**-1
 104:      3118.49 cm**-1
 105:      3263.00 cm**-1
 106:      3644.98 cm**-1
 107:      3689.16 cm**-1


------------
NORMAL MODES
------------

These modes are the cartesian displacements weighted by the diagonal matrix
M(i,i)=1/sqrt(m[i]) where m[i] is the mass of the displaced atom
Thus, these vectors are normalized but *not* orthogonal

                  0          1          2          3          4          5    
      0       0.000000   0.000000   0.000000   0.000000   0.000000   0.000000
      1       0.000000   0.000000   0.000000   0.000000   0.000000   0.000000
      2       0.000000   0.000000   0.000000   0.000000   0.000000   0.000000
      3       0.000000   0.000000   0.000000   0.000000   0.000000   0.000000
      4       0.000000   0.000000   0.000000   0.000000   0.000000   0.000000
      5       0.000000   0.000000   0.000000   0.000000   0.000000   0.000000
      6       0.000000   0.000000   0.000000   0.000000   0.000000   0.000000
      7       0.000000   0.000000   0.000000   0.000000   0.000000   0.000000
      8       0.000000   0.000000   0.000000   0.000000   0.000000   0.000000
      9       0.000000   0.000000   0.000000   0.000000   0.000000   0.000000
     10       0.000000   0.000000   0.000000   0.000000   0.000000   0.000000
     11       0.000000   0.000000   0.000000   0.000000   0.000000   0.000000
     12       0.000000   0.000000   0.000000   0.000000   0.000000   0.000000
     13       0.000000   0.000000   0.000000   0.000000   0.000000   0.000000
     14       0.000000   0.000000   0.000000   0.000000   0.000000   0.000000
     15       0.000000   0.000000   0.000000   0.000000   0.000000   0.000000
     16       0.000000   0.000000   0.000000   0.000000   0.000000   0.000000
     17       0.000000   0.000000   0.000000   0.000000   0.000000   0.000000
     18       0.000000   0.000000   0.000000   0.000000   0.000000   0.000000
     19       0.000000   0.000000   0.000000   0.000000   0.000000   0.000000
     20       0.000000   0.000000   0.000000   0.000000   0.000000   0.000000
     21       0.000000   0.000000   0.000000   0.000000   0.000000   0.000000
     22       0.000000   0.000000   0.000000   0.000000   0.000000   0.000000
     23       0.000000   0.000000   0.000000   0.000000   0.000000   0.000000
     24       0.000000   0.000000   0.000000   0.000000   0.000000   0.000000
     25       0.000000   0.000000   0.000000   0.000000   0.000000   0.000000
     26       0.000000   0.000000   0.000000   0.000000   0.000000   0.000000
     27       0.000000   0.000000   0.000000   0.000000   0.000000   0.000000
     28       0.000000   0.000000   0.000000   0.000000   0.000000   0.000000
     29       0.000000   0.000000   0.000000   0.000000   0.000000   0.000000
     30       0.000000   0.000000   0.000000   0.000000   0.000000   0.000000
     31       0.000000   0.000000   0.000000   0.000000   0.000000   0.000000
     32       0.000000   0.000000   0.000000   0.000000   0.000000   0.000000
     33       0.000000   0.000000   0.000000   0.000000   0.000000   0.000000
     34       0.000000   0.000000   0.000000   0.000000   0.000000   0.000000
     35       0.000000   0.000000   0.000000   0.000000   0.000000   0.000000
     36       0.000000   0.000000   0.000000   0.000000   0.000000   0.000000
     37       0.000000   0.000000   0.000000   0.000000   0.000000   0.000000
     38       0.000000   0.000000   0.000000   0.000000   0.000000   0.000000
     39       0.000000   0.000000   0.000000   0.000000   0.000000   0.000000
     40       0.000000   0.000000   0.000000   0.000000   0.000000   0.000000
     41       0.000000   0.000000   0.000000   0.000000   0.000000   0.000000
     42       0.000000   0.000000   0.000000   0.000000   0.000000   0.000000
     43       0.000000   0.000000   0.000000   0.000000   0.000000   0.000000
     44       0.000000   0.000000   0.000000   0.000000   0.000000   0.000000
     45       0.000000   0.000000   0.000000   0.000000   0.000000   0.000000
     46       0.000000   0.000000   0.000000   0.000000   0.000000   0.000000
     47       0.000000   0.000000   0.000000   0.000000   0.000000   0.000000
     48       0.000000   0.000000   0.000000   0.000000   0.000000   0.000000
     49       0.000000   0.000000   0.000000   0.000000   0.000000   0.000000
     50       0.000000   0.000000   0.000000   0.000000   0.000000   0.000000
     51       0.000000   0.000000   0.000000   0.000000   0.000000   0.000000
     52       0.000000   0.000000   0.000000   0.000000   0.000000   0.000000
     53       0.000000   0.000000   0.000000   0.000000   0.000000   0.000000
     54       0.000000   0.000000   0.000000   0.000000   0.000000   0.000000
     55       0.000000   0.000000   0.000000   0.000000   0.000000   0.000000
     56       0.000000   0.000000   0.000000   0.000000   0.000000   0.000000
     57       0.000000   0.000000   0.000000   0.000000   0.000000   0.000000
     58       0.000000   0.000000   0.000000   0.000000   0.000000   0.000000
     59       0.000000   0.000000   0.000000   0.000000   0.000000   0.000000
     60       0.000000   0.000000   0.000000   0.000000   0.000000   0.000000
     61       0.000000   0.000000   0.000000   0.000000   0.000000   0.000000
     62       0.000000   0.000000   0.000000   0.000000   0.000000   0.000000
     63       0.000000   0.000000   0.000000   0.000000   0.000000   0.000000
     64       0.000000   0.000000   0.000000   0.000000   0.000000   0.000000
     65       0.000000   0.000000   0.000000   0.000000   0.000000   0.000000
     66       0.000000   0.000000   0.000000   0.000000   0.000000   0.000000
     67       0.000000   0.000000   0.000000   0.000000   0.000000   0.000000
     68       0.000000   0.000000   0.000000   0.000000   0.000000   0.000000
     69       0.000000   0.000000   0.000000   0.000000   0.000000   0.000000
     70       0.000000   0.000000   0.000000   0.000000   0.000000   0.000000
     71       0.000000   0.000000   0.000000   0.000000   0.000000   0.000000
     72       0.000000   0.000000   0.000000   0.000000   0.000000   0.000000
     73       0.000000   0.000000   0.000000   0.000000   0.000000   0.000000
     74       0.000000   0.000000   0.000000   0.000000   0.000000   0.000000
     75       0.000000   0.000000   0.000000   0.000000   0.000000   0.000000
     76       0.000000   0.000000   0.000000   0.000000   0.000000   0.000000
     77       0.000000   0.000000   0.000000   0.000000   0.000000   0.000000
     78       0.000000   0.000000   0.000000   0.000000   0.000000   0.000000
     79       0.000000   0.000000   0.000000   0.000000   0.000000   0.000000
     80       0.000000   0.000000   0.000000   0.000000   0.000000   0.000000
     81       0.000000   0.000000   0.000000   0.000000   0.000000   0.000000
     82       0.000000   0.000000   0.000000   0.000000   0.000000   0.000000
     83       0.000000   0.000000   0.000000   0.000000   0.000000   0.000000
     84       0.000000   0.000000   0.000000   0.000000   0.000000   0.000000
     85       0.000000   0.000000   0.000000   0.000000   0.000000   0.000000
     86       0.000000   0.000000   0.000000   0.000000   0.000000   0.000000
     87       0.000000   0.000000   0.000000   0.000000   0.000000   0.000000
     88       0.000000   0.000000   0.000000   0.000000   0.000000   0.000000
     89       0.000000   0.000000   0.000000   0.000000   0.000000   0.000000
     90       0.000000   0.000000   0.000000   0.000000   0.000000   0.000000
     91       0.000000   0.000000   0.000000   0.000000   0.000000   0.000000
     92       0.000000   0.000000   0.000000   0.000000   0.000000   0.000000
     93       0.000000   0.000000   0.000000   0.000000   0.000000   0.000000
     94       0.000000   0.000000   0.000000   0.000000   0.000000   0.000000
     95       0.000000   0.000000   0.000000   0.000000   0.000000   0.000000
     96       0.000000   0.000000   0.000000   0.000000   0.000000   0.000000
     97       0.000000   0.000000   0.000000   0.000000   0.000000   0.000000
     98       0.000000   0.000000   0.000000   0.000000   0.000000   0.000000
     99       0.000000   0.000000   0.000000   0.000000   0.000000   0.000000
    100       0.000000   0.000000   0.000000   0.000000   0.000000   0.000000
    101       0.000000   0.000000   0.000000   0.000000   0.000000   0.000000
    102       0.000000   0.000000   0.000000   0.000000   0.000000   0.000000
    103       0.000000   0.000000   0.000000   0.000000   0.000000   0.000000
    104       0.000000   0.000000   0.000000   0.000000   0.000000   0.000000
    105       0.000000   0.000000   0.000000   0.000000   0.000000   0.000000
    106       0.000000   0.000000   0.000000   0.000000   0.000000   0.000000
    107       0.000000   0.000000   0.000000   0.000000   0.000000   0.000000
                  6          7          8          9         10         11    
      0      -0.003635  -0.029239  -0.041476  -0.002240   0.006054  -0.055957
      1       0.002487   0.007749   0.011584  -0.045593  -0.007419   0.000556
      2      -0.000738   0.012111  -0.012688  -0.051771  -0.019432   0.027360
      3      -0.003010  -0.066694  -0.110623   0.033677   0.013549  -0.050625
      4       0.003670  -0.028872  -0.021159  -0.027403  -0.002883   0.000561
      5      -0.000645   0.119457  -0.184588   0.022285  -0.010981   0.069042
      6      -0.001575  -0.059373  -0.101979   0.052526   0.024254  -0.064588
      7       0.000531  -0.106271  -0.046719  -0.002106   0.007167  -0.010370
      8      -0.000262   0.123720  -0.157852   0.098623   0.031278   0.014974
      9       0.001726  -0.015630  -0.021377   0.034525   0.027676  -0.086713
     10      -0.001150  -0.147080  -0.039932   0.005457   0.012639  -0.021476
     11      -0.001130   0.017419   0.050645   0.097549   0.066034  -0.088011
     12       0.003397   0.021761   0.047306  -0.003639   0.018412  -0.088790
     13      -0.000366  -0.110427  -0.009537  -0.012730   0.007683  -0.020011
     14      -0.001728  -0.089610   0.220907   0.015859   0.051603  -0.116843
     15       0.006013   0.014502   0.036329  -0.021715   0.007635  -0.073189
     16      -0.002455  -0.032872   0.015736  -0.037932  -0.002495  -0.008174
     17      -0.001118  -0.093531   0.189235  -0.059617   0.008060  -0.055515
     18      -0.001457  -0.039458  -0.049700  -0.011024   0.003912  -0.057782
     19       0.048063   0.083758   0.035413  -0.069669  -0.010660  -0.003506
     20       0.077566   0.004627  -0.032594  -0.097740  -0.031216   0.013201
     21      -0.004711  -0.103200  -0.169508   0.046187   0.011927  -0.037613
     22       0.003078   0.004174  -0.028763  -0.032515  -0.007281   0.009779
     23       0.004066   0.198795  -0.336030   0.023032  -0.034787   0.136725
     24       0.012765   0.044599   0.083875  -0.047227   0.000629  -0.071616
     25      -0.004383  -0.003915   0.035839  -0.049868  -0.006314  -0.005489
     26       0.026441  -0.175351   0.311793  -0.113929  -0.000849  -0.073459
     27       0.003546  -0.010057  -0.012781   0.050182   0.037264  -0.100816
     28      -0.004831  -0.206881  -0.060388   0.026276   0.020714  -0.030330
     29       0.001775   0.019482   0.076396   0.161986   0.104100  -0.142983
     30      -0.010216  -0.049415  -0.034712   0.003417  -0.007183  -0.014988
     31      -0.040117   0.090339   0.021848   0.007574  -0.001472   0.016178
     32      -0.017658   0.007189  -0.035955  -0.132908  -0.026884  -0.020180
     33      -0.004347  -0.028668  -0.024263   0.006568  -0.006531  -0.016863
     34      -0.004902   0.022650  -0.016025  -0.016776   0.008167   0.003363
     35      -0.002951   0.029604  -0.037431  -0.156577   0.004819  -0.066291
     36      -0.001630  -0.097837  -0.037139  -0.018868  -0.016227   0.053297
     37      -0.134393   0.102683   0.024325   0.053662  -0.001126   0.030294
     38       0.065849   0.022950  -0.034072  -0.075764  -0.026114  -0.003710
     39      -0.004805   0.056141   0.027756   0.018991  -0.008827   0.010913
     40      -0.001097  -0.003328  -0.006684   0.013924  -0.026206  -0.012011
     41      -0.000252  -0.021702   0.013218  -0.054551  -0.107083  -0.102733
     42       0.039764  -0.042050  -0.054460  -0.032258   0.043891  -0.039146
     43       0.005611  -0.020909  -0.004137   0.023134  -0.046283  -0.023980
     44       0.015618   0.062259  -0.064624  -0.214111   0.082559  -0.052628
     45      -0.029167  -0.059906  -0.021883   0.034302  -0.051165  -0.003369
     46      -0.001139   0.030309  -0.068645  -0.091539   0.098907   0.019905
     47       0.010491   0.048624  -0.047791  -0.185067   0.046322  -0.070639
     48      -0.001762   0.079885   0.048048   0.024866  -0.202663  -0.089257
     49      -0.001348   0.050964  -0.016398  -0.040554   0.018969   0.009474
     50       0.000292  -0.056383   0.034108  -0.001432  -0.264012  -0.182150
     51       0.002623   0.082612   0.038897   0.016381   0.175357   0.129264
     52       0.005696  -0.013149   0.045222   0.090163  -0.152523  -0.051052
     53      -0.002615  -0.037574   0.015441  -0.041335  -0.226223  -0.172500
     54       0.016609  -0.000799  -0.048327  -0.021057   0.006987  -0.079464
     55      -0.014917   0.117501   0.048135  -0.106007  -0.011932  -0.017662
     56      -0.019889  -0.014895  -0.057398  -0.040737  -0.023296   0.013820
     57      -0.010546   0.094065   0.069475  -0.018137  -0.011535  -0.018896
     58      -0.007751   0.125469   0.054186  -0.001418  -0.013251   0.023995
     59       0.087322  -0.006302  -0.053164   0.105662  -0.024377   0.067102
     60      -0.065311   0.049494   0.005086  -0.015794  -0.001242  -0.054654
     61       0.684598   0.120837   0.051768  -0.058766  -0.012763  -0.001708
     62      -0.455028  -0.014843  -0.056967   0.028999  -0.024170   0.046979
     63       0.022780   0.133088   0.076490  -0.006183  -0.008670  -0.059717
     64       0.024197   0.197114   0.083360   0.005374  -0.012347  -0.030673
     65       0.218568   0.051140  -0.080767   0.159078  -0.009727  -0.042077
     66       0.011143  -0.159882   0.045751  -0.095975  -0.049879   0.345929
     67       0.008245   0.100173   0.025688   0.130088  -0.003760   0.062330
     68      -0.064597   0.006073  -0.032697   0.011254  -0.030232   0.044973
     69      -0.006797  -0.052946   0.065339  -0.068318  -0.034254   0.197568
     70      -0.172226   0.109038   0.038030   0.073099  -0.006856   0.049986
     71      -0.411150  -0.001661  -0.040369   0.054629  -0.026176   0.051241
     72      -0.006868  -0.200008   0.063694  -0.125468  -0.061874   0.459227
     73       0.005711   0.071717  -0.022981   0.182386   0.004446   0.008101
     74      -0.115271  -0.087283  -0.016549  -0.026965  -0.051076   0.251944
     75       0.035427  -0.082002  -0.065797  -0.018157   0.002184  -0.069958
     76      -0.061056   0.097267   0.045630  -0.110281  -0.013763  -0.013627
     77      -0.022206   0.016537  -0.021036  -0.151845  -0.034591  -0.002534
     78      -0.004334  -0.027577  -0.015496   0.013625  -0.018827  -0.000268
     79      -0.055104   0.119876   0.033393   0.040298  -0.003353   0.019356
     80       0.023498  -0.021285  -0.034129  -0.180110  -0.037153  -0.008520
     81      -0.001852  -0.088772  -0.155976   0.080862   0.030427  -0.060245
     82      -0.001336  -0.134147  -0.071288   0.011694   0.010634  -0.010091
     83       0.002298   0.208317  -0.294517   0.160269   0.039606   0.045641
     84       0.007332   0.056691   0.109653  -0.018333   0.020142  -0.103291
     85      -0.000789  -0.141744  -0.005146  -0.006969   0.011730  -0.028133
     86       0.000905  -0.172774   0.382186   0.012676   0.076297  -0.190911
     87      -0.002028   0.081223   0.044211   0.021782   0.003107   0.032748
     88      -0.001691  -0.097189  -0.059383   0.020150   0.053913  -0.008003
     89       0.000810  -0.007997   0.039599  -0.018291   0.163457   0.083511
     90      -0.000569   0.056495   0.019462   0.001378   0.217341   0.136718
     91      -0.000738  -0.157189  -0.038199   0.138881  -0.029330  -0.028480
     92       0.001178   0.031031   0.005420  -0.137633   0.369153   0.165452
     93      -0.001852   0.052609   0.032291   0.032843  -0.197551  -0.096798
     94      -0.001885  -0.086138  -0.134923  -0.149570   0.242074   0.021129
     95       0.000353   0.009596   0.034131  -0.051410   0.304155   0.159720
     96      -0.001232   0.178295   0.111870   0.039610  -0.002830   0.094747
     97      -0.001147  -0.128065  -0.041977   0.095888  -0.004541  -0.020636
     98       0.000397  -0.069499   0.122322   0.232046  -0.026870   0.067963
     99       0.000309   0.204102   0.142187   0.078141  -0.241303  -0.016101
    100      -0.000386  -0.069445  -0.063931  -0.024199   0.078980  -0.000950
    101       0.000369  -0.109151   0.160320   0.366237  -0.242703  -0.014527
    102      -0.000901   0.195206   0.123185   0.041329   0.007141   0.111810
    103      -0.002612  -0.197407  -0.084426   0.092980   0.062489  -0.021607
    104       0.001522  -0.057777   0.138179   0.241838   0.198014   0.219105
    105       0.000574   0.208748   0.121782   0.013931   0.221533   0.236976
    106      -0.000098  -0.140936   0.035448   0.276362  -0.198571  -0.048461
    107      -0.000087  -0.087612   0.130810   0.277195  -0.177613  -0.010815
                 12         13         14         15         16         17    
      0       0.031741   0.008355  -0.005441  -0.025206  -0.025708   0.033344
      1      -0.023262   0.026368   0.002476  -0.054975   0.039105  -0.200935
      2       0.024335   0.151852   0.032840   0.065975  -0.014303   0.101722
      3      -0.015839  -0.022976  -0.018404   0.012176  -0.053315   0.134747
      4      -0.053513   0.010479  -0.006083  -0.025370   0.020962  -0.130597
      5      -0.003797   0.088120   0.023411   0.046289  -0.009975   0.100874
      6      -0.017655  -0.062200  -0.027638  -0.005573  -0.047565   0.099290
      7      -0.098291  -0.017515  -0.020964   0.030181  -0.009486   0.026544
      8      -0.021316  -0.062211  -0.012014  -0.006250   0.012556  -0.014900
      9       0.021951  -0.070748  -0.025567  -0.065878  -0.021755  -0.055677
     10      -0.112009  -0.029259  -0.026247   0.050342  -0.018413   0.078326
     11      -0.003474  -0.139872  -0.034306  -0.037734   0.026201  -0.105559
     12       0.066596  -0.027438  -0.008536  -0.099718  -0.003109  -0.130372
     13      -0.082476  -0.010386  -0.017091   0.021878  -0.002024   0.010104
     14       0.025413  -0.027488  -0.006101   0.006183  -0.003589   0.044454
     15       0.065075   0.009917  -0.001046  -0.077318  -0.011804  -0.074828
     16      -0.037898   0.018012  -0.001887  -0.032453   0.030093  -0.143302
     17       0.035484   0.120462   0.027654   0.062896  -0.024666   0.166351
     18       0.028417  -0.000977  -0.014256  -0.024423  -0.012515  -0.006901
     19       0.023770   0.025060  -0.007767  -0.077678   0.014460  -0.065182
     20       0.023524   0.108398  -0.013101   0.042484  -0.009236  -0.021255
     21      -0.052720  -0.022598  -0.024712   0.055217  -0.080740   0.246393
     22      -0.039557   0.019529  -0.000839  -0.041646   0.032068  -0.173872
     23      -0.013722   0.130973   0.035305   0.055846  -0.015199   0.118798
     24       0.077090   0.031189   0.005446  -0.102071  -0.001312  -0.148888
     25      -0.028052   0.026896   0.001846  -0.054076   0.039315  -0.204810
     26       0.057324   0.174678   0.038925   0.082728  -0.046394   0.255090
     27       0.021368  -0.108140  -0.034982  -0.084137  -0.013004  -0.106015
     28      -0.144199  -0.053092  -0.037069   0.087995  -0.037457   0.173013
     29      -0.015338  -0.286067  -0.072613  -0.094343   0.052692  -0.263926
     30       0.026265   0.120068   0.067624  -0.021505  -0.040968  -0.029642
     31       0.090382  -0.015827  -0.027669   0.065882   0.128000   0.026341
     32       0.017726   0.050381  -0.051395  -0.007772  -0.022888  -0.030748
     33       0.022467   0.110911   0.071054  -0.047210   0.034721  -0.015774
     34       0.107534  -0.045392  -0.060065   0.154956  -0.079557  -0.012347
     35       0.008251  -0.088976  -0.120972  -0.034331   0.102130   0.056454
     36       0.047923   0.113219   0.055761   0.035090  -0.133506  -0.055166
     37       0.084368  -0.021341  -0.012446   0.045645   0.151199   0.063236
     38       0.003190   0.045691  -0.036239  -0.007203   0.013779   0.021924
     39       0.042006   0.071029   0.069917  -0.032807   0.163865   0.008950
[...]
freq.    1597.71  E(vib)   ...       0.00 
freq.    1840.24  E(vib)   ...       0.00 
freq.    2317.05  E(vib)   ...       0.00 
freq.    2819.06  E(vib)   ...       0.00 
freq.    2963.98  E(vib)   ...       0.00 
freq.    2976.56  E(vib)   ...       0.00 
freq.    2984.33  E(vib)   ...       0.00 
freq.    2988.44  E(vib)   ...       0.00 
freq.    2992.76  E(vib)   ...       0.00 
freq.    2998.26  E(vib)   ...       0.00 
freq.    3029.17  E(vib)   ...       0.00 
freq.    3032.41  E(vib)   ...       0.00 
freq.    3041.30  E(vib)   ...       0.00 
freq.    3062.25  E(vib)   ...       0.00 
freq.    3075.79  E(vib)   ...       0.00 
freq.    3082.39  E(vib)   ...       0.00 
freq.    3092.97  E(vib)   ...       0.00 
freq.    3118.48  E(vib)   ...       0.00 
freq.    3263.06  E(vib)   ...       0.00 
freq.    3645.05  E(vib)   ...       0.00 
freq.    3689.19  E(vib)   ...       0.00 

------------
INNER ENERGY
------------

The inner energy is: U= E(el) + E(ZPE) + E(vib) + E(rot) + E(trans)
    E(el)   - is the total energy from the electronic structure calculation
              = E(kin-el) + E(nuc-el) + E(el-el) + E(nuc-nuc)
    E(ZPE)  - the the zero temperature vibrational energy from the frequency calculation
    E(vib)  - the the finite temperature correction to E(ZPE) due to population
              of excited vibrational states
    E(rot)  - is the rotational thermal energy
    E(trans)- is the translational thermal energy

Summary of contributions to the inner energy U:
Electronic energy                ...    -49.36020555 Eh
Zero point energy                ...      0.29918232 Eh     187.74 kcal/mol
Thermal vibrational correction   ...      0.01451897 Eh       9.11 kcal/mol
Thermal rotational correction    ...      0.00141627 Eh       0.89 kcal/mol
Thermal translational correction ...      0.00141627 Eh       0.89 kcal/mol
-----------------------------------------------------------------------
Total thermal energy                    -49.04367171 Eh


Summary of corrections to the electronic energy:
(perhaps to be used in another calculation)
Total thermal correction                  0.01735152 Eh      10.89 kcal/mol
Non-thermal (ZPE) correction              0.29918232 Eh     187.74 kcal/mol
-----------------------------------------------------------------------
Total correction                          0.31653384 Eh     198.63 kcal/mol


--------
ENTHALPY
--------

The enthalpy is H = U + kB*T
                kB is Boltzmann's constant
Total free energy                 ...    -49.04367171 Eh 
Thermal Enthalpy correction       ...      0.00094421 Eh       0.59 kcal/mol
-----------------------------------------------------------------------
Total Enthalpy                    ...    -49.04272751 Eh


Note: Only C1 symmetry has been detected, increase convergence thresholds 
      if your molecule has a higher symmetry. Symmetry factor of 1.0 is   
      used for the rotational entropy correction. 
 

Note: Rotational entropy computed according to Herzberg 
Infrared and Raman Spectra, Chapter V,1, Van Nostrand Reinhold, 1945 
Point Group:  C1, Symmetry Number:   1  
Rotational constants in cm-1:     0.026526     0.009811     0.008066 

Vibrational entropy computed according to the QRRHO of S. Grimme
Chem.Eur.J. 2012 18 9955


-------
ENTROPY
-------

The entropy contributions are T*S = T*(S(el)+S(vib)+S(rot)+S(trans))
     S(el)   - electronic entropy
     S(vib)  - vibrational entropy
     S(rot)  - rotational entropy
     S(trans)- translational entropy
The entropies will be listed as mutliplied by the temperature to get
units of energy

Electronic entropy                ...      0.00000000 Eh      0.00 kcal/mol
Vibrational entropy               ...      0.02585024 Eh     16.22 kcal/mol
Rotational entropy                ...      0.01568292 Eh      9.84 kcal/mol
Translational entropy             ...      0.01995728 Eh     12.52 kcal/mol
-----------------------------------------------------------------------
Final entropy term                ...      0.06149044 Eh     38.59 kcal/mol

In case the symmetry of your molecule has not been determined correctly
or in case you have a reason to use a different symmetry number we print 
out the resulting rotational entropy values for sn=1,12 :
 --------------------------------------------------------
|  sn= 1 | S(rot)=       0.01568292 Eh      9.84 kcal/mol|
|  sn= 2 | S(rot)=       0.01502846 Eh      9.43 kcal/mol|
|  sn= 3 | S(rot)=       0.01464563 Eh      9.19 kcal/mol|
|  sn= 4 | S(rot)=       0.01437401 Eh      9.02 kcal/mol|
|  sn= 5 | S(rot)=       0.01416332 Eh      8.89 kcal/mol|
|  sn= 6 | S(rot)=       0.01399118 Eh      8.78 kcal/mol|
|  sn= 7 | S(rot)=       0.01384563 Eh      8.69 kcal/mol|
|  sn= 8 | S(rot)=       0.01371955 Eh      8.61 kcal/mol|
|  sn= 9 | S(rot)=       0.01360834 Eh      8.54 kcal/mol|
|  sn=10 | S(rot)=       0.01350886 Eh      8.48 kcal/mol|
|  sn=11 | S(rot)=       0.01341887 Eh      8.42 kcal/mol|
|  sn=12 | S(rot)=       0.01333672 Eh      8.37 kcal/mol|
 --------------------------------------------------------


-------------------
GIBBS FREE ENERGY
-------------------

The Gibbs free energy is G = H - T*S

Total enthalpy                    ...    -49.04272751 Eh 
Total entropy correction          ...     -0.06149044 Eh    -38.59 kcal/mol
-----------------------------------------------------------------------
Final Gibbs free energy         ...    -49.10421795 Eh

For completeness - the Gibbs free energy minus the electronic energy
G-E(el)                           ...      0.25598761 Eh    160.63 kcal/mol


Total Time for Numerical Frequencies  :       107.443 sec



------------------------------------------------------------------------------- 
                    Intrinsic Reaction Coordinate Calculation                  
------------------------------------------------------------------------------- 

System:
Nr. of atoms                        .... 36
Algorithm: SD (steepest descent step) plus correction
Settings:
Max. no of cycles        MaxIter    .... 1000
Direction                           .... Forward and backward
Initial displacement Hessian type   .... Read
Hessian Filename                    .... optts+freq.hess
Following Hessian mode              .... 0
Initial displacement type           .... Energy
  Initial displacement energy change.... 0.250 mEh
Coordinate system following type    .... Cartesian
Length of steepest descent step     .... 0.150 bohr
Do parabolic fit 
  if SD step is uphill              .... YES
Do Correction to SD step            .... YES
Scaling for length of correction
  compared to SD step               .... 0.333
Do parabolic fit to SD correction   .... YES
Only interpolate for parabolic fit  .... YES
Do update to length of
  SD step and correction            .... YES
Convergence Tolerances:
  Max. Gradient            TolMAXG  ....  1.0000e-03 Eh/bohr
  RMS Gradient             TolRMSG  ....  2.0000e-04 Eh/bohr
Storing full IRC trajectory in      .... optts+freq_IRC_Full_trj.xyz
Storing forward trajectory in       .... optts+freq_IRC_F_trj.xyz
Storing backward trajectory in      .... optts+freq_IRC_B_trj.xyz


 ...good, the file optts+freq.hess exists
Reading the hessian file           ...... done
Determining length of initial displacement:
  Requested energy change (quadratic behavior): 0.250 mEh
  Resulting scaling factor for initial displacement along normalized TS mode: 0.1619

         *************************************************************
         *                          FORWARD IRC                      *
         *************************************************************

Iteration    E(Eh)      dE(kcal/mol)  max(|G|)   RMS(G) 
Convergence thresholds                0.001000  0.000200            
    0       -49.360453   -0.155206    0.003870  0.000683
    1       -49.360545   -0.212757    0.002617  0.000550
    2       -49.360630   -0.266385    0.003034  0.000518
    3       -49.360815   -0.382535    0.003777  0.000540
    4       -49.361041   -0.523972    0.004295  0.000612
    5       -49.361282   -0.675516    0.004588  0.000646
    6       -49.361538   -0.836048    0.004718  0.000666
    7       -49.361797   -0.998651    0.004631  0.000665
    8       -49.362053   -1.159147    0.004355  0.000646
    9       -49.362298   -1.312999    0.003944  0.000624
   10       -49.362525   -1.455703    0.003584  0.000578
   11       -49.362740   -1.590362    0.003091  0.000542
   12       -49.362936   -1.713663    0.002786  0.000497
   13       -49.363119   -1.827914    0.002370  0.000457
   14       -49.363285   -1.932457    0.002122  0.000417
   15       -49.363438   -2.028203    0.001794  0.000382
   16       -49.363576   -2.115275    0.001598  0.000348
   17       -49.363703   -2.194480    0.001362  0.000317
   18       -49.363817   -2.266250    0.001215  0.000290
   19       -49.363920   -2.330809    0.001006  0.000281
   20       -49.364004   -2.383646    0.001228  0.000347
   21       -49.364023   -2.395720    0.000894  0.000276
   22       -49.364042   -2.407581    0.000852  0.000241
   23       -49.364063   -2.420747    0.000823  0.000223
   24       -49.364085   -2.434185    0.000792  0.000218
   25       -49.364105   -2.447224    0.000766  0.000212
   26       -49.364126   -2.459915    0.000736  0.000207
   27       -49.364145   -2.472297    0.000712  0.000202
   28       -49.364165   -2.484347    0.000685  0.000196

                      ***********************HURRAY********************
                      ***            THE IRC HAS CONVERGED          ***
                      *************************************************


         *************************************************************
         *                          BACKWARD IRC                     *
         *************************************************************

Iteration    E(Eh)      dE(kcal/mol)  max(|G|)   RMS(G) 
Convergence thresholds                0.001000  0.000200            
    0       -49.360388   -0.114567    0.003405  0.000586
    1       -49.360490   -0.178666    0.002406  0.000578
    2       -49.360533   -0.205207    0.002095  0.000433
    3       -49.360682   -0.298705    0.002258  0.000449
    4       -49.360871   -0.417285    0.002804  0.000539
    5       -49.361086   -0.552723    0.003292  0.000610
    6       -49.361342   -0.713003    0.003872  0.000705
    7       -49.361636   -0.897429    0.004458  0.000807
    8       -49.361972   -1.108675    0.005084  0.000921
    9       -49.362354   -1.347983    0.005722  0.001040
   10       -49.362784   -1.618310    0.006362  0.001171
   11       -49.363265   -1.920076    0.006978  0.001302
   12       -49.363800   -2.255823    0.007552  0.001443
   13       -49.364388   -2.624640    0.008055  0.001579
   14       -49.365032   -3.028542    0.008474  0.001723
   15       -49.365728   -3.465575    0.008785  0.001858
   16       -49.366481   -3.937625    0.008991  0.002002
   17       -49.367285   -4.442337    0.009896  0.002135
   18       -49.368145   -4.981961    0.011013  0.002278
   19       -49.369057   -5.554133    0.012160  0.002411
   20       -49.370024   -6.161343    0.013320  0.002555
   21       -49.371043   -6.800303    0.014452  0.002682
   22       -49.372112   -7.471672    0.015544  0.002810
   23       -49.373224   -8.168884    0.016564  0.002905
   24       -49.374369   -8.887431    0.017391  0.002977
   25       -49.375530   -9.616358    0.017948  0.002999
   26       -49.376694   -10.346332    0.018163  0.002978
   27       -49.377841   -11.066346    0.017944  0.002904
   28       -49.378948   -11.760825    0.017240  0.002768
   29       -49.379990   -12.414729    0.016042  0.002575
   30       -49.380948   -13.016057    0.014420  0.002344
   31       -49.381813   -13.559041    0.012553  0.002104
   32       -49.382589   -14.045595    0.010715  0.001886
   33       -49.383285   -14.482702    0.009161  0.001699
   34       -49.383915   -14.877716    0.007971  0.001539
   35       -49.384487   -15.236554    0.007055  0.001402
   36       -49.385009   -15.564182    0.006303  0.001284
   37       -49.385488   -15.864662    0.005665  0.001186
   38       -49.385926   -16.139508    0.005120  0.001122
   39       -49.386323   -16.388711    0.004677  0.001018
   40       -49.386700   -16.625521    0.004256  0.000964
   41       -49.387044   -16.841535    0.003904  0.000879
   42       -49.387370   -17.046141    0.003559  0.000830
   43       -49.387668   -17.233098    0.003264  0.000758
   44       -49.387949   -17.409406    0.003038  0.000713
   45       -49.388206   -17.570482    0.002839  0.000651
   46       -49.388447   -17.721575    0.002633  0.000608
   47       -49.388666   -17.859426    0.002441  0.000555
   48       -49.388871   -17.987853    0.002243  0.000515
   49       -49.389058   -18.104867    0.002064  0.000470
   50       -49.389229   -18.212744    0.001882  0.000431
   51       -49.389387   -18.311365    0.001708  0.000393
   52       -49.389530   -18.401432    0.001552  0.000359
   53       -49.389661   -18.483326    0.001383  0.000326
   54       -49.389779   -18.557736    0.001253  0.000296
   55       -49.389886   -18.624874    0.001086  0.000275
   56       -49.389980   -18.683446    0.001025  0.000284
   57       -49.390003   -18.698029    0.000954  0.000280
   58       -49.390020   -18.708573    0.000928  0.000242
   59       -49.390041   -18.721779    0.000899  0.000223
   60       -49.390062   -18.735234    0.000870  0.000218
   61       -49.390083   -18.748258    0.000840  0.000212
   62       -49.390103   -18.760901    0.000813  0.000206
   63       -49.390123   -18.773215    0.000785  0.000200
   64       -49.390142   -18.785158    0.000758  0.000194

                      ***********************HURRAY********************
                      ***            THE IRC HAS CONVERGED          ***
                      *************************************************


---------------------------------------------------------------
                       IRC PATH SUMMARY              
---------------------------------------------------------------
All gradients are in Eh/Bohr.

Step        E(Eh)      dE(kcal/mol)  max(|G|)   RMS(G) 
   1       -49.390142   -18.785158    0.000758  0.000194
   2       -49.390123   -18.773215    0.000785  0.000200
   3       -49.390103   -18.760901    0.000813  0.000206
   4       -49.390083   -18.748258    0.000840  0.000212
   5       -49.390062   -18.735234    0.000870  0.000218
   6       -49.390041   -18.721779    0.000899  0.000223
   7       -49.390020   -18.708573    0.000928  0.000242
   8       -49.390003   -18.698029    0.000954  0.000280
   9       -49.389980   -18.683446    0.001025  0.000284
  10       -49.389886   -18.624874    0.001086  0.000275
  11       -49.389779   -18.557736    0.001253  0.000296
  12       -49.389661   -18.483326    0.001383  0.000326
  13       -49.389530   -18.401432    0.001552  0.000359
  14       -49.389387   -18.311365    0.001708  0.000393
  15       -49.389229   -18.212744    0.001882  0.000431
  16       -49.389058   -18.104867    0.002064  0.000470
  17       -49.388871   -17.987853    0.002243  0.000515
  18       -49.388666   -17.859426    0.002441  0.000555
  19       -49.388447   -17.721575    0.002633  0.000608
  20       -49.388206   -17.570482    0.002839  0.000651
  21       -49.387949   -17.409406    0.003038  0.000713
  22       -49.387668   -17.233098    0.003264  0.000758
  23       -49.387370   -17.046141    0.003559  0.000830
  24       -49.387044   -16.841535    0.003904  0.000879
  25       -49.386700   -16.625521    0.004256  0.000964
  26       -49.386323   -16.388711    0.004677  0.001018
  27       -49.385926   -16.139508    0.005120  0.001122
  28       -49.385488   -15.864662    0.005665  0.001186
  29       -49.385009   -15.564182    0.006303  0.001284
  30       -49.384487   -15.236554    0.007055  0.001402
  31       -49.383915   -14.877716    0.007971  0.001539
  32       -49.383285   -14.482702    0.009161  0.001699
  33       -49.382589   -14.045595    0.010715  0.001886
  34       -49.381813   -13.559041    0.012553  0.002104
  35       -49.380948   -13.016057    0.014420  0.002344
  36       -49.379990   -12.414729    0.016042  0.002575
  37       -49.378948   -11.760825    0.017240  0.002768
  38       -49.377841   -11.066346    0.017944  0.002904
  39       -49.376694   -10.346332    0.018163  0.002978
  40       -49.375530   -9.616358    0.017948  0.002999
  41       -49.374369   -8.887431    0.017391  0.002977
  42       -49.373224   -8.168884    0.016564  0.002905
  43       -49.372112   -7.471672    0.015544  0.002810
  44       -49.371043   -6.800303    0.014452  0.002682
  45       -49.370024   -6.161343    0.013320  0.002555
  46       -49.369057   -5.554133    0.012160  0.002411
  47       -49.368145   -4.981961    0.011013  0.002278
  48       -49.367285   -4.442337    0.009896  0.002135
  49       -49.366481   -3.937625    0.008991  0.002002
  50       -49.365728   -3.465575    0.008785  0.001858
  51       -49.365032   -3.028542    0.008474  0.001723
  52       -49.364388   -2.624640    0.008055  0.001579
  53       -49.363800   -2.255823    0.007552  0.001443
  54       -49.363265   -1.920076    0.006978  0.001302
  55       -49.362784   -1.618310    0.006362  0.001171
  56       -49.362354   -1.347983    0.005722  0.001040
  57       -49.361972   -1.108675    0.005084  0.000921
  58       -49.361636   -0.897429    0.004458  0.000807
  59       -49.361342   -0.713003    0.003872  0.000705
  60       -49.361086   -0.552723    0.003292  0.000610
  61       -49.360871   -0.417285    0.002804  0.000539
  62       -49.360682   -0.298705    0.002258  0.000449
  63       -49.360533   -0.205207    0.002095  0.000433
  64       -49.360490   -0.178666    0.002406  0.000578
  65       -49.360388   -0.114567    0.003405  0.000586
  66       -49.360206    0.000000    0.000009  0.000003 <= TS
  67       -49.360453   -0.155206    0.003870  0.000683
  68       -49.360545   -0.212757    0.002617  0.000550
  69       -49.360630   -0.266385    0.003034  0.000518
  70       -49.360815   -0.382535    0.003777  0.000540
  71       -49.361041   -0.523972    0.004295  0.000612
  72       -49.361282   -0.675516    0.004588  0.000646
  73       -49.361538   -0.836048    0.004718  0.000666
  74       -49.361797   -0.998651    0.004631  0.000665
  75       -49.362053   -1.159147    0.004355  0.000646
  76       -49.362298   -1.312999    0.003944  0.000624
  77       -49.362525   -1.455703    0.003584  0.000578
  78       -49.362740   -1.590362    0.003091  0.000542
  79       -49.362936   -1.713663    0.002786  0.000497
  80       -49.363119   -1.827914    0.002370  0.000457
  81       -49.363285   -1.932457    0.002122  0.000417
  82       -49.363438   -2.028203    0.001794  0.000382
  83       -49.363576   -2.115275    0.001598  0.000348
  84       -49.363703   -2.194480    0.001362  0.000317
  85       -49.363817   -2.266250    0.001215  0.000290
  86       -49.363920   -2.330809    0.001006  0.000281
  87       -49.364004   -2.383646    0.001228  0.000347
  88       -49.364023   -2.395720    0.000894  0.000276
  89       -49.364042   -2.407581    0.000852  0.000241
  90       -49.364063   -2.420747    0.000823  0.000223
  91       -49.364085   -2.434185    0.000792  0.000218
  92       -49.364105   -2.447224    0.000766  0.000212
  93       -49.364126   -2.459915    0.000736  0.000207
  94       -49.364145   -2.472297    0.000712  0.000202
  95       -49.364165   -2.484347    0.000685  0.000196

Timings for individual modules:

Sum of individual times         ...       61.268 sec (=   1.021 min)
Geometry relaxation             ...        2.103 sec (=   0.035 min)   3.4 %
XTB module                      ...       59.166 sec (=   0.986 min)  96.6 %
                             ****ORCA TERMINATED NORMALLY****
TOTAL RUN TIME: 0 days 0 hours 4 minutes 38 seconds 34 msec
