
                                 *****************
                                 * O   R   C   A *
                                 *****************

           --- An Ab Initio, DFT and Semiempirical electronic structure package ---

                  #######################################################
                  #                        -***-                        #
                  #          Department of theory and spectroscopy      #
                  #               Directorship: Frank Neese             #
                  #        Max Planck Institute fuer Kohlenforschung    #
                  #                Kaiser Wilhelm Platz 1               #
                  #                 D-45470 Muelheim/Ruhr               #
                  #                      Germany                        #
                  #                                                     #
                  #                  All rights reserved                #
                  #                        -***-                        #
                  #######################################################


                         Program Version 4.2.1 -  RELEASE  -


 With contributions from (in alphabetic order):
   Daniel Aravena         : Magnetic Suceptibility
   Michael Atanasov       : Ab Initio Ligand Field Theory (pilot matlab implementation)
   Alexander A. Auer      : GIAO ZORA, VPT2
   Ute Becker             : Parallelization
   Giovanni Bistoni       : ED, misc. LED, open-shell LED, HFLD
   Martin Brehm           : Molecular dynamics
   Dmytro Bykov           : SCF Hessian
   Vijay G. Chilkuri      : MRCI spin determinant printing, contributions to CSF-ICE
   Dipayan Datta          : RHF DLPNO-CCSD density
   Achintya Kumar Dutta   : EOM-CC, STEOM-CC
   Dmitry Ganyushin       : Spin-Orbit,Spin-Spin,Magnetic field MRCI
   Miquel Garcia          : C-PCM Hessian, Gaussian charge scheme
   Yang Guo               : DLPNO-NEVPT2, CIM, IAO-localization
   Andreas Hansen         : Spin unrestricted coupled pair/coupled cluster methods
   Benjamin Helmich-Paris : CASSCF linear response (MC-RPA)
   Lee Huntington         : MR-EOM, pCC
   Robert Izsak           : Overlap fitted RIJCOSX, COSX-SCS-MP3, EOM
   Christian Kollmar      : KDIIS, OOCD, Brueckner-CCSD(T), CCSD density
   Simone Kossmann        : Meta GGA functionals, TD-DFT gradient, OOMP2, MP2 Hessian
   Martin Krupicka        : AUTO-CI
   Lucas Lang             : DCDCAS
   Dagmar Lenk            : GEPOL surface, SMD
   Dimitrios Liakos       : Extrapolation schemes; Compound Job, initial MDCI parallelization
   Dimitrios Manganas     : Further ROCIS development; embedding schemes
   Dimitrios Pantazis     : SARC Basis sets
   Taras Petrenko         : DFT Hessian,TD-DFT gradient, ASA, ECA, R-Raman, ABS, FL, XAS/XES, NRVS
   Peter Pinski           : DLPNO-MP2, DLPNO-MP2 Gradient
   Christoph Reimann      : Effective Core Potentials
   Marius Retegan         : Local ZFS, SOC
   Christoph Riplinger    : Optimizer, TS searches, QM/MM, DLPNO-CCSD(T), (RO)-DLPNO pert. Triples
   Tobias Risthaus        : Range-separated hybrids, TD-DFT gradient, RPA, STAB
   Michael Roemelt        : Original ROCIS implementation
   Masaaki Saitow         : Open-shell DLPNO-CCSD energy and density
   Barbara Sandhoefer     : DKH picture change effects
   Avijit Sen             : IP-ROCIS
   Kantharuban Sivalingam : CASSCF convergence, NEVPT2, FIC-MRCI
   Bernardo de Souza      : ESD, SOC TD-DFT
   Georgi Stoychev        : AutoAux, RI-MP2 NMR
   Willem Van den Heuvel  : Paramagnetic NMR
   Boris Wezisla          : Elementary symmetry handling
   Frank Wennmohs         : Technical directorship


 We gratefully acknowledge several colleagues who have allowed us to
 interface, adapt or use parts of their codes:
   Stefan Grimme, W. Hujo, H. Kruse,             : VdW corrections, initial TS optimization,
                  C. Bannwarth                     DFT functionals, gCP, sTDA/sTD-DF
   Ed Valeev, F. Pavosevic, A. Kumar             : LibInt (2-el integral package), F12 methods
   Garnet Chan, S. Sharma, J. Yang, R. Olivares  : DMRG
   Ulf Ekstrom                                   : XCFun DFT Library
   Mihaly Kallay                                 : mrcc  (arbitrary order and MRCC methods)
   Andreas Klamt, Michael Diedenhofen            : otool_cosmo (COSMO solvation model)
   Jiri Pittner, Ondrej Demel                    : Mk-CCSD
   Frank Weinhold                                : gennbo (NPA and NBO analysis)
   Christopher J. Cramer and Donald G. Truhlar   : smd solvation model
   Lars Goerigk                                  : TD-DFT with DH, B97 family of functionals
   V. Asgeirsson, H. Jonsson                     : NEB implementation
   FAccTs GmbH                                   : IRC, NEB, NEB-TS, Multilevel, MM, QM/MM, CI optimization
   S Lehtola, MJT Oliveira, MAL Marques          : LibXC Library


 Your calculation uses the libint2 library for the computation of 2-el integrals
 For citations please refer to: http://libint.valeyev.net

 Your ORCA version has been built with support for libXC version: 4.2.3
 For citations please refer to: https://tddft.org/programs/libxc/

 This ORCA versions uses:
   CBLAS   interface :  Fast vector & matrix operations
   LAPACKE interface :  Fast linear algebra routines
   SCALAPACK package :  Parallel linear algebra routines




***************************************
The coordinates will be read from file: init.xyz
***************************************


Your calculation utilizes the SMD solvation module
Please cite in your paper:
A.V. Marenich, C.J. Cramer, D.G. Truhlar J. Phys. Chem. B, 113, (2009), 6378 

Your calculation utilizes the semiempirical GFN2-xTB method
Please cite in your paper:
C. Bannwarth, Ehlert S., S. Grimme,  J. Chem. Theory Comput., 15, (2019), 1652.
   

----- Orbital basis set information -----
Your calculation utilizes the basis: def2-SVP
   F. Weigend and R. Ahlrichs, Phys. Chem. Chem. Phys. 7, 3297 (2005).

================================================================================
                                        WARNINGS
                       Please study these warnings very carefully!
================================================================================


WARNING: The environment variable RSH_COMMAND is not set!
  ===> : All Displacements for the Numerical Hessian calculation
         will be started on localhost

WARNING: Geometry Optimization
  ===> : Switching off AutoStart
         For restart on a previous wavefunction, please use MOREAD

WARNING: Found dipole moment calculation with XTB calculation
  ===> : Switching off dipole moment calculation


INFO   : the flag for use of LIBINT has been found!

================================================================================
                                       INPUT FILE
================================================================================
NAME = optts+freq.inp
|  1> ! XTB2 OptTS NumFreq IRC
|  2> 
|  3> %geom
|  4>  ts_mode
|  5>   {B 15 17}
|  6>  end
|  7>  ts_active_atoms
|  8>   {0 9 13 15 17}
|  9>  end
| 10>  calc_hess true
| 11>  numhess true
| 12> end
| 13> 
| 14> %irc
| 15>  maxiter 1000
| 16>  de_init_displ 0.25
| 17>  TolMAXG 1e-3
| 18>  TolRMSG 2e-4
| 19> end
| 20> 
| 21> %cpcm
| 22>  smd true
| 23>  smdsolvent "ch2cl2"
| 24> end
| 25> 
| 26> %pal
| 27>  nprocs 12
| 28> end
| 29> 
| 30> *xyzfile 0 1 init.xyz
| 31> 
| 32>                          ****END OF INPUT****
================================================================================

                       *****************************
                       * Geometry Optimization Run *
                       *****************************

Geometry optimization settings:
Update method            Update   .... Bofill
Choice of coordinates    CoordSys .... Z-matrix Internals
Initial Hessian          InHess   .... Almoef's Model

Convergence Tolerances:
Energy Change            TolE     ....  5.0000e-06 Eh
Max. Gradient            TolMAXG  ....  3.0000e-04 Eh/bohr
RMS Gradient             TolRMSG  ....  1.0000e-04 Eh/bohr
Max. Displacement        TolMAXD  ....  4.0000e-03 bohr
RMS Displacement         TolRMSD  ....  2.0000e-03 bohr
Strict Convergence                ....  False
------------------------------------------------------------------------------
                        ORCA OPTIMIZATION COORDINATE SETUP
------------------------------------------------------------------------------

The optimization will be done in new redundant internal coordinates
Making redundant internal coordinates   ...  (new redundants) done
Following TS mode number                ...    internal coordinate number: 31
TS-active-atoms for coordinate setup... 0 9 13 15 17 
Evaluating the initial hessian          ...  (Is done on the fly) done
Evaluating the coordinates              ...  done
Calculating the B-matrix                .... done
Calculating the G-matrix                .... done
Diagonalizing the G-matrix              .... done
Small eigenvalue found = 1.010e-02
Small eigenvalue found = 1.580e-02
The first mode is                       ....  102
The number of degrees of freedom        ....   84

    -----------------------------------------------------------------
                    Redundant Internal Coordinates


    -----------------------------------------------------------------
         Definition                    Initial Value    d2E/dq (diagonal element)
    -----------------------------------------------------------------
      1. B(C   1,C   0)                  1.3879         0.000000   
      2. B(C   2,C   0)                  2.4203         0.000000   
      3. B(C   2,C   1)                  1.4000         0.000000   
      4. B(C   3,C   0)                  2.7895         0.000000   
      5. B(C   3,C   2)                  1.4028         0.000000   
      6. B(C   4,C   0)                  2.4127         0.000000   
      7. B(C   4,C   3)                  1.3834         0.000000   
      8. B(C   5,C   0)                  1.3905         0.000000   
      9. B(C   5,C   4)                  1.3961         0.000000   
     10. B(H   6,C   1)                  1.0823         0.000000   
     11. B(H   7,C   3)                  1.0805         0.000000   
     12. B(H   8,C   5)                  1.0820         0.000000   
     13. B(N   9,C   2)                  2.4373         0.000000   
     14. B(C  10,N   9)                  1.4604         0.000000   
     15. B(H  11,C  10)                  1.0902         0.000000   
     16. B(H  12,C  10)                  1.0922         0.000000   
     17. B(H  13,N   9)                  1.0215         0.000000   
     18. B(H  13,C  10)                  2.1177         0.000000   
     19. B(C  15,C  10)                  2.4348         0.000000   
     20. B(C  15,C   2)                  1.4479         0.000000   
     21. B(C  15,H  13)                  1.9489         0.000000   
     22. B(C  15,C   3)                  2.5047         0.000000   
     23. B(C  15,C   1)                  2.4384         0.000000   
     24. B(C  15,N   9)                  1.2913         0.000000   
     25. B(H  16,N   9)                  2.0251         0.000000   
     26. B(H  16,C  15)                  1.0844         0.000000   
     27. B(O  17,H  13)                  2.1147         0.000000   
     28. B(O  17,N   9)                  2.4769         0.000000   
     29. B(O  17,C   2)                  2.8411         0.000000   
     30. B(O  17,H  14)                  0.9653         0.000000   
     31. B(O  17,C  15)                  2.5181         0.000000   
     32. B(C  18,N   9)                  2.4745         0.000000   
     33. B(C  18,C  10)                  1.5271         0.000000   
     34. B(H  19,C  18)                  1.0907         0.000000   
     35. B(H  19,O  17)                  2.4972         0.000000   
     36. B(H  20,C  18)                  1.0941         0.000000   
     37. B(H  21,C   0)                  1.0817         0.000000   
     38. B(H  22,C   4)                  1.0818         0.000000   
     39. B(C  23,C  18)                  1.5274         0.000000   
     40. B(H  24,C  23)                  1.0946         0.000000   
     41. B(H  25,C  23)                  1.0943         0.000000   
     42. B(C  26,C  23)                  1.5270         0.000000   
     43. B(H  27,C  26)                  1.0916         0.000000   
     44. B(H  28,C  26)                  1.0925         0.000000   
     45. B(H  29,C  26)                  1.0923         0.000000   
     46. A(C   5,C   0,H  21)          120.2016         0.000000   
     47. A(C   1,C   0,C   5)          119.9000         0.000000   
     48. A(C   1,C   0,H  21)          119.8977         0.000000   
     49. A(C   2,C   1,H   6)          119.3602         0.000000   
     50. A(C   0,C   1,H   6)          120.1474         0.000000   
     51. A(C   0,C   1,C   2)          120.4822         0.000000   
     52. A(C   3,C   2,C  15)          122.9427         0.000000   
     53. A(C   1,C   2,C  15)          117.7775         0.000000   
     54. A(C   1,C   2,C   3)          119.2255         0.000000   
     55. A(C   4,C   3,H   7)          119.5603         0.000000   
     56. A(C   2,C   3,H   7)          120.3803         0.000000   
     57. A(C   2,C   3,C   4)          120.0560         0.000000   
     58. A(C   3,C   4,C   5)          120.3479         0.000000   
     59. A(C   5,C   4,H  22)          119.8863         0.000000   
     60. A(C   3,C   4,H  22)          119.7658         0.000000   
     61. A(C   0,C   5,H   8)          120.1048         0.000000   
     62. A(C   4,C   5,H   8)          119.9347         0.000000   
     63. A(C   0,C   5,C   4)          119.9573         0.000000   
     64. A(C  10,N   9,O  17)          112.4537         0.000000   
     65. A(H  13,N   9,O  17)           57.6651         0.000000   
     66. A(H  13,N   9,C  15)          114.3454         0.000000   
     67. A(C  10,N   9,C  15)          124.3520         0.000000   
     68. A(C  15,N   9,O  17)           76.7900         0.000000   
     69. A(C  10,N   9,H  13)          116.0150         0.000000   
     70. A(H  11,C  10,H  12)          107.7393         0.000000   
     71. A(H  12,C  10,C  18)          110.3570         0.000000   
     72. A(H  11,C  10,C  18)          111.0068         0.000000   
     73. A(N   9,C  10,C  18)          111.8276         0.000000   
     74. A(N   9,C  10,H  11)          107.7930         0.000000   
     75. A(N   9,C  10,H  12)          107.9614         0.000000   
     76. A(N   9,C  15,O  17)           73.2604         0.000000   
     77. A(C   2,C  15,O  17)           87.1271         0.000000   
     78. A(N   9,C  15,H  16)          116.6830         0.000000   
     79. A(C   2,C  15,H  16)          117.2793         0.000000   
     80. A(C   2,C  15,N   9)          125.5973         0.000000   
     81. A(H  16,C  15,O  17)          118.5986         0.000000   
     82. A(H  14,O  17,C  15)          145.7030         0.000000   
     83. A(N   9,O  17,H  14)          165.4563         0.000000   
     84. A(N   9,O  17,C  15)           29.9496         0.000000   
     85. A(H  19,C  18,H  20)          106.0612         0.000000   
     86. A(C  10,C  18,H  20)          108.8533         0.000000   
     87. A(C  10,C  18,H  19)          108.3304         0.000000   
     88. A(H  20,C  18,C  23)          109.6737         0.000000   
     89. A(H  19,C  18,C  23)          111.9336         0.000000   
     90. A(C  10,C  18,C  23)          111.7847         0.000000   
     91. A(H  25,C  23,C  26)          109.4594         0.000000   
     92. A(H  24,C  23,C  26)          109.5141         0.000000   
     93. A(C  18,C  23,C  26)          112.4350         0.000000   
     94. A(H  24,C  23,H  25)          106.3532         0.000000   
     95. A(C  18,C  23,H  25)          109.2412         0.000000   
     96. A(C  18,C  23,H  24)          109.6529         0.000000   
     97. A(H  28,C  26,H  29)          107.5706         0.000000   
     98. A(H  27,C  26,H  29)          107.8143         0.000000   
     99. A(C  23,C  26,H  29)          111.0151         0.000000   
    100. A(H  27,C  26,H  28)          107.7503         0.000000   
    101. A(C  23,C  26,H  28)          111.1019         0.000000   
    102. A(C  23,C  26,H  27)          111.4163         0.000000   
    103. D(H   6,C   1,C   0,C   5)    179.9583         0.000000   
    104. D(H   6,C   1,C   0,H  21)     -0.3490         0.000000   
    105. D(C   2,C   1,C   0,C   5)      1.1280         0.000000   
    106. D(C   2,C   1,C   0,H  21)   -179.1792         0.000000   
    107. D(C   3,C   2,C   1,H   6)    179.0828         0.000000   
    108. D(C   3,C   2,C   1,C   0)     -2.0778         0.000000   
    109. D(C  15,C   2,C   1,C   0)   -179.4758         0.000000   
    110. D(C  15,C   2,C   1,H   6)      1.6848         0.000000   
    111. D(H   7,C   3,C   2,C   1)   -177.7762         0.000000   
    112. D(C   4,C   3,C   2,C  15)    178.7958         0.000000   
    113. D(C   4,C   3,C   2,C   1)      1.5392         0.000000   
    114. D(H   7,C   3,C   2,C  15)     -0.5196         0.000000   
    115. D(C   5,C   4,C   3,C   2)     -0.0616         0.000000   
    116. D(C   5,C   4,C   3,H   7)    179.2594         0.000000   
    117. D(H  22,C   4,C   3,C   2)    179.9733         0.000000   
    118. D(H  22,C   4,C   3,H   7)     -0.7056         0.000000   
    119. D(H   8,C   5,C   4,H  22)     -0.2877         0.000000   
    120. D(H   8,C   5,C   4,C   3)    179.7474         0.000000   
    121. D(H   8,C   5,C   0,H  21)      0.0259         0.000000   
    122. D(H   8,C   5,C   0,C   1)    179.7176         0.000000   
    123. D(C   0,C   5,C   4,C   3)     -0.9062         0.000000   
    124. D(C   0,C   5,C   4,H  22)    179.0588         0.000000   
    125. D(C   4,C   5,C   0,C   1)      0.3723         0.000000   
    126. D(C   4,C   5,C   0,H  21)   -179.3194         0.000000   
    127. D(H  12,C  10,N   9,O  17)   -146.4117         0.000000   
    128. D(H  12,C  10,N   9,C  15)    124.5648         0.000000   
    129. D(H  12,C  10,N   9,H  13)    -82.6621         0.000000   
    130. D(H  11,C  10,N   9,O  17)     97.4573         0.000000   
    131. D(H  11,C  10,N   9,C  15)      8.4338         0.000000   
    132. D(C  18,C  10,N   9,H  13)     38.9237         0.000000   
    133. D(H  11,C  10,N   9,H  13)    161.2069         0.000000   
    134. D(C  18,C  10,N   9,O  17)    -24.8259         0.000000   
    135. D(C  18,C  10,N   9,C  15)   -113.8494         0.000000   
    136. D(O  17,C  15,N   9,C  10)    108.3465         0.000000   
    137. D(H  16,C  15,N   9,O  17)   -114.0962         0.000000   
    138. D(H  16,C  15,N   9,H  13)   -158.9232         0.000000   
    139. D(C   2,C  15,N   9,O  17)     73.7593         0.000000   
    140. D(C   2,C  15,N   9,H  13)     28.9323         0.000000   
    141. D(C   2,C  15,N   9,C  10)   -177.8942         0.000000   
    142. D(O  17,C  15,C   2,C   3)     72.4903         0.000000   
    143. D(O  17,C  15,C   2,C   1)   -110.2157         0.000000   
    144. D(H  16,C  15,N   9,C  10)     -5.7497         0.000000   
    145. D(H  16,C  15,C   2,C   1)     10.6727         0.000000   
    146. D(N   9,C  15,C   2,C   3)      5.4812         0.000000   
    147. D(N   9,C  15,C   2,C   1)   -177.2248         0.000000   
    148. D(O  17,C  15,N   9,H  13)    -44.8270         0.000000   
    149. D(H  16,C  15,C   2,C   3)   -166.6213         0.000000   
    150. D(N   9,O  17,C  15,H  16)    111.7226         0.000000   
    151. D(N   9,O  17,C  15,C   2)   -128.5869         0.000000   
    152. D(H  14,O  17,C  15,N   9)    153.6785         0.000000   
    153. D(H  14,O  17,C  15,C   2)     25.0917         0.000000   
    154. D(C  15,O  17,N   9,H  13)    130.5223         0.000000   
    155. D(C  15,O  17,N   9,C  10)   -122.0156         0.000000   
    156. D(H  14,O  17,C  15,H  16)    -94.5989         0.000000   
    157. D(H  14,O  17,N   9,C  15)    -84.2445         0.000000   
    158. D(H  14,O  17,N   9,H  13)     46.2778         0.000000   
    159. D(H  14,O  17,N   9,C  10)    153.7399         0.000000   
    160. D(H  20,C  18,C  10,H  11)    175.1435         0.000000   
    161. D(H  20,C  18,C  10,N   9)    -64.4310         0.000000   
    162. D(H  19,C  18,C  10,H  12)    170.6679         0.000000   
    163. D(H  19,C  18,C  10,H  11)    -69.9520         0.000000   
    164. D(H  20,C  18,C  10,H  12)     55.7634         0.000000   
    165. D(H  19,C  18,C  10,N   9)     50.4734         0.000000   
    166. D(C  23,C  18,C  10,H  12)    -65.5407         0.000000   
    167. D(C  23,C  18,C  10,H  11)     53.8394         0.000000   
    168. D(C  23,C  18,C  10,N   9)    174.2649         0.000000   
    169. D(C  26,C  23,C  18,H  19)    -59.1072         0.000000   
    170. D(C  26,C  23,C  18,C  10)    179.1540         0.000000   
    171. D(H  25,C  23,C  18,H  20)   -179.9482         0.000000   
    172. D(H  25,C  23,C  18,H  19)     62.6187         0.000000   
    173. D(H  25,C  23,C  18,C  10)    -59.1200         0.000000   
    174. D(H  24,C  23,C  18,H  20)    -63.7604         0.000000   
    175. D(H  24,C  23,C  18,H  19)    178.8064         0.000000   
    176. D(C  26,C  23,C  18,H  20)     58.3259         0.000000   
    177. D(H  24,C  23,C  18,C  10)     57.0677         0.000000   
    178. D(H  29,C  26,C  23,H  25)    -61.8416         0.000000   
    179. D(H  29,C  26,C  23,H  24)   -178.0750         0.000000   
    180. D(H  29,C  26,C  23,C  18)     59.7600         0.000000   
    181. D(H  28,C  26,C  23,H  25)    178.4961         0.000000   
    182. D(H  28,C  26,C  23,H  24)     62.2627         0.000000   
    183. D(H  28,C  26,C  23,C  18)    -59.9023         0.000000   
    184. D(H  27,C  26,C  23,H  25)     58.3384         0.000000   
    185. D(H  27,C  26,C  23,H  24)    -57.8949         0.000000   
    186. D(H  27,C  26,C  23,C  18)    179.9401         0.000000   
    -----------------------------------------------------------------

Number of atoms                         .... 30
Number of degrees of freedom            .... 186

         *************************************************************
         *                GEOMETRY OPTIMIZATION CYCLE   1            *
         *************************************************************
      -----------------------------------------------------------      
     |                   =====================                   |     
     |                           x T B                           |     
     |                   =====================                   |     
     |                         S. Grimme                         |     
     |          Mulliken Center for Theoretical Chemistry        |     
     |                    University of Bonn                     |     
      -----------------------------------------------------------      

   * xtb version 6.3.0 (49875a8) compiled by 'schneider@apollo14' on 2020-05-23

   xtb is free software: you can redistribute it and/or modify it under
   the terms of the GNU Lesser General Public License as published by
   the Free Software Foundation, either version 3 of the License, or
   (at your option) any later version.
   
   xtb is distributed in the hope that it will be useful,
   but WITHOUT ANY WARRANTY; without even the implied warranty of
   MERCHANTABILITY or FITNESS FOR A PARTICULAR PURPOSE.  See the
   GNU Lesser General Public License for more details.
   
   Cite this work as:
   * S. Grimme, C. Bannwarth, P. Shushkov, J. Chem. Theory Comput., 2017,
     13, 1989-2009. DOI: 10.1021/acs.jctc.7b00118
   * C. Bannwarth, S. Ehlert and S. Grimme., J. Chem. Theory Comput., 2019,
     15, 1652-1671. DOI: 10.1021/acs.jctc.8b01176
   * P. Pracht, E. Caldeweyher, S. Ehlert, S. Grimme, ChemRxiv, 2019, preprint.
     DOI: 10.26434/chemrxiv.8326202.v1
   
   for GFN-FF:
   * S. Spicher and S. Grimme, Angew. Chem. Int. Ed., 2020,
     DOI: 10.1002/anie.202004239
   
   for DFT-D4:
   * E. Caldeweyher, C. Bannwarth and S. Grimme, J. Chem. Phys., 2017,
     147, 034112. DOI: 10.1063/1.4993215
   * E. Caldeweyher, S. Ehlert, A. Hansen, H. Neugebauer, S. Spicher,
     C. Bannwarth and S. Grimme, J. Chem. Phys., 2019, 150, 154122.
     DOI: 10.1063/1.5090222
   
   for sTDA-xTB:
   * S. Grimme and C. Bannwarth, J. Chem. Phys., 2016, 145, 054103.
     DOI: 10.1063/1.4959605
   
   in the mass-spec context:
   * V. Asgeirsson, C. Bauer and S. Grimme, Chem. Sci., 2017, 8, 4879.
     DOI: 10.1039/c7sc00601b
   * J. Koopman and S. Grimme, ACS Omega 2019, 4, 12, 15120-15133.
     DOI: 10.1021/acsomega.9b02011
   
   for metadynamics refer to:
   * S. Grimme, J. Chem. Theory Comput., 2019, 155, 2847-2862
     DOI: 10.1021/acs.jctc.9b00143
   
   with help from (in alphabetical order)
   C. Bannwarth, F. Bohle, G. Brandenburg, E. Caldeweyher, M. Checinski,
   S. Dohm, S. Ehlert, S. Ehrlich, F. März, H. Neugebauer, J. Pisarek,
   P. Pracht, P. Shushkov, and S. Spicher.
   
 * started run on 2020/06/19 at 21:04:21.651     

           -------------------------------------------------
          |                Calculation Setup                |
           -------------------------------------------------

          program call               : /opt/orca/otool_xtb optts+freq_XTB.xyz --grad -c 0 -u 0 -P 12 --namespace optts+freq --gbsa CH2Cl2
          calculation namespace      : optts+freq
          coordinate file            : optts+freq_XTB.xyz
          number of atoms            :                    30
          number of electrons        :                    72
          charge                     :                     0
          spin                       :                   0.0
          first test random number   :      0.46278606146960

   ID    Z sym.   atoms
    1    6 C      1-6, 11, 16, 19, 24, 27
    2    1 H      7-9, 12-15, 17, 20-23, 25, 26, 28-30
    3    7 N      10
    4    8 O      18

molecular fragmentation (1/2 indicates fragments):
111111111111112112111111111111
# atoms in fragment 1/2:    28     2
 fragment masses (1/2) :      162.25       17.01
CMA distance (Bohr)    :   3.731
constraining FC (au)   :  0.0500
########################################################################
[WARNING] Please study the warnings concerning your input carefully
-1- prog_main_parseArguments: Process number higher than OMP_NUM_THREADS, I hope you know what you are doing.
########################################################################
 Solvent             : CH2Cl2
 Using internal parameter file: .param_gbsa2_CH2Cl2
 Gsolv ref. state (COSMO-RS): gsolv [1 M gas/solution]
 temperature (mdtemp)       :    298.14999999999998     
 dielectric constant        :    8.9299999999999997     
 rho                        :    1.3300000000000003     
 mass                       :    84.930000000000007     
 surface tension            :    15.568945408385856     
 probe radius               :   0.71987590000000001     
 Gshift (Eh)                :    4.4408291734517593E-003
 c1                         :    1.4917377599999999     
 soset                      :    0.0000000000000000     
 HB correction              :  F

           -------------------------------------------------
          |                 G F N 2 - x T B                 |
           -------------------------------------------------

        Reference                      10.1021/acs.jctc.8b01176
      * Hamiltonian:
        H0-scaling (s, p, d)           1.850000    2.230000    2.230000
        zeta-weighting                 0.500000
      * Dispersion:
        s8                             2.700000
        a1                             0.520000
        a2                             5.000000
        s9                             5.000000
      * Repulsion:
        kExp                           1.500000    1.000000
        rExp                           1.000000
      * Coulomb:
        alpha                          2.000000
        third order                    shell-resolved
        anisotropic                    true
        a3                             3.000000
        a5                             4.000000
        cn-shift                       1.200000
        cn-exp                         4.000000
        max-rad                        5.000000


          ...................................................
          :                      SETUP                      :
          :.................................................:
          :  # basis functions                  69          :
          :  # atomic orbitals                  69          :
          :  # shells                           43          :
          :  # electrons                        72          :
          :  max. iterations                   250          :
          :  Hamiltonian                  GFN2-xTB          :
          :  restarted?                      false          :
          :  GBSA solvation                   true          :
          :  PC potential                    false          :
          :  electronic temp.          300.0000000     K    :
          :  accuracy                    1.0000000          :
          :  -> integral cutoff          0.2500000E+02      :
          :  -> integral neglect         0.1000000E-07      :
          :  -> SCF convergence          0.1000000E-05 Eh   :
          :  -> wf. convergence          0.1000000E-03 e    :
          :  Broyden damping             0.4000000          :
          ...................................................

 iter      E             dE          RMSdq      gap      omega  full diag
   1    -39.5837261 -0.395837E+02  0.420E+00    3.31       0.0  T
   2    -39.6919713 -0.108245E+00  0.251E+00    1.57       1.0  T
   3    -39.3587927  0.333179E+00  0.342E+00    0.22       1.0  T
   4    -39.6864008 -0.327608E+00  0.157E+00    2.18       1.0  T
   5    -39.6975574 -0.111566E-01  0.805E-01    1.69       1.0  T
   6    -39.7034204 -0.586297E-02  0.581E-01    1.36       1.0  T
   7    -39.7091264 -0.570598E-02  0.286E-01    1.06       1.0  T
   8    -39.7111124 -0.198599E-02  0.497E-02    0.87       1.0  T
   9    -39.7111017  0.106367E-04  0.312E-02    0.86       1.0  T
  10    -39.7111238 -0.220717E-04  0.647E-03    0.88       2.8  T
  11    -39.7111242 -0.392265E-06  0.355E-03    0.88       5.1  T
  12    -39.7111234  0.798003E-06  0.563E-03    0.88       3.2  T
  13    -39.7111242 -0.852470E-06  0.758E-04    0.88      24.1  T
  14    -39.7111242 -0.484897E-08  0.503E-04    0.88      36.3  T

   *** convergence criteria satisfied after 14 iterations ***

         #    Occupation            Energy/Eh            Energy/eV
      -------------------------------------------------------------
         1        2.0000           -0.6850052             -18.6399
       ...           ...                  ...                  ...
        30        2.0000           -0.4356150             -11.8537
        31        2.0000           -0.4321679             -11.7599
        32        2.0000           -0.4245681             -11.5531
        33        2.0000           -0.4148251             -11.2880
        34        2.0000           -0.4122997             -11.2192
        35        2.0000           -0.3352326              -9.1221
        36        2.0000           -0.3322215              -9.0402 (HOMO)
        37                         -0.2999060              -8.1609 (LUMO)
        38                         -0.2335239              -6.3545
        39                         -0.2056678              -5.5965
        40                         -0.0963308              -2.6213
        41                         -0.0177227              -0.4823
       ...                                ...                  ...
        69                          0.6475039              17.6195
      -------------------------------------------------------------
                  HL-Gap            0.0323155 Eh            0.8793 eV
             Fermi-level           -0.3160441 Eh           -8.6000 eV

 SCC (total)                   0 d,  0 h,  0 min,  0.089 sec
 SCC setup                      ...        0 min,  0.001 sec (  1.434%)
 Dispersion                     ...        0 min,  0.000 sec (  0.414%)
 classical contributions        ...        0 min,  0.000 sec (  0.140%)
 integral evaluation            ...        0 min,  0.014 sec ( 15.918%)
 iterations                     ...        0 min,  0.044 sec ( 49.023%)
 molecular gradient             ...        0 min,  0.027 sec ( 30.742%)
 printout                       ...        0 min,  0.002 sec (  2.304%)

         :::::::::::::::::::::::::::::::::::::::::::::::::::::
         ::                     SUMMARY                     ::
         :::::::::::::::::::::::::::::::::::::::::::::::::::::
         :: total energy             -39.130292255545 Eh    ::
         :: total w/o Gsasa/hb       -39.114265313944 Eh    ::
         :: gradient norm              0.034274050111 Eh/a0 ::
         :: HOMO-LUMO gap              0.879349411383 eV    ::
         ::.................................................::
         :: SCC energy               -39.727151186907 Eh    ::
         :: -> isotropic ES            0.131057941797 Eh    ::
         :: -> anisotropic ES         -0.012959981320 Eh    ::
         :: -> anisotropic XC          0.023535338439 Eh    ::
         :: -> dispersion             -0.023409272945 Eh    ::
         :: -> Gsolv                  -0.040728998558 Eh    ::
         ::    -> Gborn               -0.024702056956 Eh    ::
         ::    -> Gsasa               -0.020467770775 Eh    ::
         ::    -> Ghb                  0.000000000000 Eh    ::
         ::    -> Gshift               0.004440829173 Eh    ::
         :: repulsion energy           0.596919754915 Eh    ::
         :: add. restraining           0.000000000000 Eh    ::
         :::::::::::::::::::::::::::::::::::::::::::::::::::::

           -------------------------------------------------
          |                Property Printout                |
           -------------------------------------------------

    * Orbital Energies and Occupations

         #    Occupation            Energy/Eh            Energy/eV
      -------------------------------------------------------------
         1        2.0000           -0.6850052             -18.6399
       ...           ...                  ...                  ...
        24        2.0000           -0.4755924             -12.9415
        25        2.0000           -0.4724623             -12.8564
        26        2.0000           -0.4513460             -12.2818
        27        2.0000           -0.4497269             -12.2377
        28        2.0000           -0.4404869             -11.9863
        29        2.0000           -0.4378407             -11.9143
        30        2.0000           -0.4356150             -11.8537
        31        2.0000           -0.4321679             -11.7599
        32        2.0000           -0.4245681             -11.5531
        33        2.0000           -0.4148251             -11.2880
        34        2.0000           -0.4122997             -11.2192
        35        2.0000           -0.3352326              -9.1221
        36        2.0000           -0.3322215              -9.0402 (HOMO)
        37                         -0.2999060              -8.1609 (LUMO)
        38                         -0.2335239              -6.3545
        39                         -0.2056678              -5.5965
        40                         -0.0963308              -2.6213
        41                         -0.0177227              -0.4823
        42                          0.0587663               1.5991
        43                          0.0873260               2.3763
        44                          0.1023024               2.7838
        45                          0.1148634               3.1256
        46                          0.1176105               3.2003
        47                          0.1259974               3.4286
       ...                                ...                  ...
        69                          0.6475039              17.6195
      -------------------------------------------------------------
                  HL-Gap            0.0323155 Eh            0.8793 eV
             Fermi-level           -0.3160441 Eh           -8.6000 eV

     #   Z        covCN         q      C6AA      α(0)
     1   6 C      2.913    -0.025    28.639     8.775
     2   6 C      2.924    -0.027    28.671     8.781
     3   6 C      2.969     0.024    27.459     8.595
     4   6 C      2.917    -0.019    28.492     8.753
     5   6 C      2.914    -0.026    28.646     8.777
     6   6 C      2.916    -0.023    28.575     8.766
     7   1 H      0.925     0.049     2.328     2.386
     8   1 H      0.926     0.045     2.378     2.411
     9   1 H      0.925     0.049     2.326     2.385
    10   7 N      2.682    -0.031    21.846     6.942
    11   6 C      3.743    -0.015    20.922     6.525
    12   1 H      0.924     0.075     2.033     2.230
    13   1 H      0.924     0.081     1.965     2.192
    14   1 H      0.860     0.233     0.950     1.527
    15   1 H      0.805     0.137     1.506     1.928
    16   6 C      2.839     0.079    26.219     8.391
    17   1 H      0.925     0.085     1.926     2.170
    18   8 O      0.805    -0.866    33.712     7.783
    19   6 C      3.802    -0.062    21.693     6.631
    20   1 H      0.924     0.059     2.212     2.326
    21   1 H      0.924     0.044     2.397     2.421
    22   1 H      0.925     0.050     2.322     2.383
    23   1 H      0.925     0.048     2.345     2.395
    24   6 C      3.800    -0.055    21.569     6.612
    25   1 H      0.924     0.043     2.416     2.431
    26   1 H      0.924     0.039     2.459     2.452
    27   6 C      3.750    -0.103    22.530     6.769
    28   1 H      0.924     0.041     2.442     2.444
    29   1 H      0.924     0.036     2.502     2.473
    30   1 H      0.924     0.034     2.536     2.490

 Mol. C6AA /au·bohr⁶  :       8279.144292
 Mol. C8AA /au·bohr⁸  :     188088.268680
 Mol. α(0) /au        :        141.144804


Wiberg/Mayer (AO) data.
largest (>0.10) Wiberg bond orders for each atom
          total WBO             WBO to atom ...
     1  C   3.991        C    2 1.461    C    6 1.430    H   22 0.969    C    4 0.101
     2  C   3.986        C    1 1.461    C    3 1.345    H    7 0.968
     3  C   3.986        C    2 1.345    C    4 1.333    C   16 1.144
     4  C   3.991        C    5 1.481    C    3 1.333    H    8 0.965    C    1 0.101
     5  C   3.991        C    4 1.481    C    6 1.410    H   23 0.970
     6  C   3.988        C    1 1.430    C    5 1.410    H    9 0.970
     7  H   0.998        C    2 0.968
     8  H   0.998        C    4 0.965
     9  H   0.997        C    6 0.970
    10  N   3.632        C   16 1.542    C   11 0.982    H   14 0.884    O   18 0.108
    11  C   3.951        C   19 0.991    N   10 0.982    H   12 0.967    H   13 0.957
    12  H   0.994        C   11 0.967
    13  H   0.991        C   11 0.957
    14  H   0.945        N   10 0.884
    15  H   0.981        O   18 0.977
    16  C   3.945        N   10 1.542    C    3 1.144    H   17 0.950    O   18 0.199
    17  H   0.992        C   16 0.950
    18  O   1.457        H   15 0.977    C   16 0.199    N   10 0.108
    19  C   3.986        C   24 1.004    C   11 0.991    H   21 0.975    H   20 0.971
    20  H   0.996        C   19 0.971
    21  H   0.998        C   19 0.975
    22  H   0.997        C    1 0.969
    23  H   0.997        C    5 0.970
    24  C   3.995        C   27 1.019    C   19 1.004    H   26 0.977    H   25 0.977
    25  H   0.998        C   24 0.977
    26  H   0.998        C   24 0.977
    27  C   3.995        C   24 1.019    H   30 0.988    H   29 0.988    H   28 0.986
    28  H   0.998        C   27 0.986
    29  H   0.999        C   27 0.988
    30  H   0.999        C   27 0.988
Topologies differ in total number of bonds
Writing topology from bond orders to xtbtopo.mol

molecular dipole:
                 x           y           z       tot (Debye)
 q only:       -0.141       1.500      -2.325
   full:       -0.024       1.237      -1.961       5.892
molecular quadrupole (traceless):
                xx          xy          yy          xz          yz          zz
 q only:        8.672      -3.096      -3.988       6.549      -3.615      -4.684
  q+dip:        6.742      -3.628      -0.601       7.466       0.268      -6.141
   full:        5.834      -3.208      -1.640       6.770      -2.184      -4.195


           -------------------------------------------------
          | TOTAL ENERGY              -39.130292255545 Eh   |
          | GRADIENT NORM               0.034274050111 Eh/α |
          | HOMO-LUMO GAP               0.879349411383 eV   |
           -------------------------------------------------

------------------------------------------------------------------------
 * finished run on 2020/06/19 at 21:04:21.808     
------------------------------------------------------------------------
 total:
 * wall-time:     0 d,  0 h,  0 min,  0.158 sec
 *  cpu-time:     0 d,  0 h,  0 min,  1.652 sec
 * ratio c/w:    10.460 speedup
 SCF:
 * wall-time:     0 d,  0 h,  0 min,  0.092 sec
 *  cpu-time:     0 d,  0 h,  0 min,  0.972 sec
 * ratio c/w:    10.616 speedup


-------------------------   --------------------
FINAL SINGLE POINT ENERGY       -39.130292255540
-------------------------   --------------------


----------------------------------------------------------------------------
                           ORCA NUMERICAL FREQUENCIES
                              (12-process run)
----------------------------------------------------------------------------

Number of atoms                ... 30
Central differences            ... used
Number of displacements        ... 180
Numerical increment            ... 5.000e-03 bohr
IR-spectrum generation         ... on
Raman-spectrum generation      ... off
Surface Crossing Hessian       ... off
List of participating nodes    ...  optts+freq.hostnames

The output will be reduced. Please look at the following files:
SCF program output             ... >optts+freq.lastscf
Integral program output        ... >optts+freq.lastint
Gradient program output        ... >optts+freq.lastgrad
Dipole moment program output   ... >optts+freq.lastmom
AutoCI program output          ... >optts+freq.lastautoci


         <<< Energy and Gradient at the input geometry >>>

        <<< Energy and Gradient at displaced geometries >>>
             <<<Displacing   4/coordinate 1 (+)>>>
             <<<Displacing   2/coordinate 1 (+)>>>
             <<<Displacing   3/coordinate 2 (+)>>>
             <<<Displacing   4/coordinate 3 (+)>>>
             <<<Displacing   1/coordinate 1 (+)>>>
             <<<Displacing   2/coordinate 3 (+)>>>
             <<<Displacing   3/coordinate 3 (+)>>>
             <<<Displacing   2/coordinate 2 (+)>>>
             <<<Displacing   4/coordinate 2 (+)>>>
             <<<Displacing   1/coordinate 3 (+)>>>
             <<<Displacing   2/coordinate 1 (-)>>>
             <<<Displacing   4/coordinate 1 (-)>>>
             <<<Displacing   3/coordinate 2 (-)>>>
             <<<Displacing   4/coordinate 3 (-)>>>
             <<<Displacing   3/coordinate 3 (-)>>>
             <<<Displacing   4/coordinate 2 (-)>>>
             <<<Displacing   2/coordinate 3 (-)>>>
             <<<Displacing   1/coordinate 1 (-)>>>
             <<<Displacing   3/coordinate 1 (+)>>>
             <<<Displacing   2/coordinate 2 (-)>>>
             <<<Displacing   1/coordinate 3 (-)>>>
             <<<Displacing   1/coordinate 2 (+)>>>
             <<<Displacing   3/coordinate 1 (-)>>>
             <<<Displacing   1/coordinate 2 (-)>>>
             <<<Displacing   5/coordinate 1 (+)>>>
             <<<Displacing   5/coordinate 3 (+)>>>
             <<<Displacing   6/coordinate 2 (+)>>>
             <<<Displacing   7/coordinate 3 (+)>>>
             <<<Displacing   8/coordinate 1 (+)>>>
             <<<Displacing   6/coordinate 1 (+)>>>
             <<<Displacing   5/coordinate 2 (+)>>>
             <<<Displacing   7/coordinate 3 (-)>>>
             <<<Displacing   5/coordinate 3 (-)>>>
             <<<Displacing   7/coordinate 1 (+)>>>
             <<<Displacing   6/coordinate 2 (-)>>>
             <<<Displacing   5/coordinate 1 (-)>>>
             <<<Displacing   8/coordinate 1 (-)>>>
             <<<Displacing   5/coordinate 2 (-)>>>
             <<<Displacing   6/coordinate 1 (-)>>>
             <<<Displacing   7/coordinate 2 (+)>>>
             <<<Displacing   7/coordinate 1 (-)>>>
             <<<Displacing   6/coordinate 3 (+)>>>
             <<<Displacing   7/coordinate 2 (-)>>>
             <<<Displacing   8/coordinate 2 (+)>>>
             <<<Displacing   6/coordinate 3 (-)>>>
             <<<Displacing   8/coordinate 3 (+)>>>
             <<<Displacing   8/coordinate 3 (-)>>>
             <<<Displacing   8/coordinate 2 (-)>>>
             <<<Displacing   9/coordinate 1 (+)>>>
             <<<Displacing   9/coordinate 2 (+)>>>
             <<<Displacing   9/coordinate 3 (+)>>>
             <<<Displacing  10/coordinate 2 (+)>>>
             <<<Displacing  10/coordinate 1 (+)>>>
             <<<Displacing  10/coordinate 3 (+)>>>
             <<<Displacing   9/coordinate 1 (-)>>>
             <<<Displacing   9/coordinate 2 (-)>>>
             <<<Displacing   9/coordinate 3 (-)>>>
             <<<Displacing  11/coordinate 1 (+)>>>
             <<<Displacing  10/coordinate 2 (-)>>>
             <<<Displacing  10/coordinate 3 (-)>>>
             <<<Displacing  10/coordinate 1 (-)>>>
             <<<Displacing  11/coordinate 2 (+)>>>
             <<<Displacing  11/coordinate 1 (-)>>>
             <<<Displacing  11/coordinate 3 (+)>>>
             <<<Displacing  11/coordinate 2 (-)>>>
             <<<Displacing  12/coordinate 2 (+)>>>
             <<<Displacing  12/coordinate 2 (-)>>>
             <<<Displacing  12/coordinate 1 (+)>>>
             <<<Displacing  11/coordinate 3 (-)>>>
             <<<Displacing  12/coordinate 1 (-)>>>
             <<<Displacing  12/coordinate 3 (+)>>>
             <<<Displacing  12/coordinate 3 (-)>>>
             <<<Displacing  13/coordinate 1 (+)>>>
             <<<Displacing  13/coordinate 2 (+)>>>
             <<<Displacing  13/coordinate 3 (+)>>>
             <<<Displacing  14/coordinate 2 (+)>>>
             <<<Displacing  13/coordinate 1 (-)>>>
             <<<Displacing  13/coordinate 2 (-)>>>
             <<<Displacing  14/coordinate 1 (+)>>>
             <<<Displacing  14/coordinate 2 (-)>>>
             <<<Displacing  13/coordinate 3 (-)>>>
             <<<Displacing  15/coordinate 2 (+)>>>
             <<<Displacing  14/coordinate 1 (-)>>>
             <<<Displacing  14/coordinate 3 (+)>>>
             <<<Displacing  15/coordinate 1 (+)>>>
             <<<Displacing  15/coordinate 2 (-)>>>
             <<<Displacing  14/coordinate 3 (-)>>>
             <<<Displacing  15/coordinate 1 (-)>>>
             <<<Displacing  15/coordinate 3 (+)>>>
             <<<Displacing  15/coordinate 3 (-)>>>
             <<<Displacing  16/coordinate 1 (+)>>>
             <<<Displacing  16/coordinate 1 (-)>>>
             <<<Displacing  16/coordinate 2 (+)>>>
             <<<Displacing  16/coordinate 2 (-)>>>
             <<<Displacing  16/coordinate 3 (+)>>>
             <<<Displacing  16/coordinate 3 (-)>>>
             <<<Displacing  17/coordinate 3 (+)>>>
             <<<Displacing  18/coordinate 2 (+)>>>
             <<<Displacing  17/coordinate 1 (+)>>>
             <<<Displacing  17/coordinate 3 (-)>>>
             <<<Displacing  18/coordinate 2 (-)>>>
             <<<Displacing  18/coordinate 1 (+)>>>
             <<<Displacing  19/coordinate 2 (+)>>>
             <<<Displacing  19/coordinate 1 (+)>>>
             <<<Displacing  18/coordinate 3 (+)>>>
             <<<Displacing  17/coordinate 1 (-)>>>
             <<<Displacing  19/coordinate 2 (-)>>>
             <<<Displacing  18/coordinate 1 (-)>>>
             <<<Displacing  19/coordinate 1 (-)>>>
             <<<Displacing  17/coordinate 2 (+)>>>
             <<<Displacing  18/coordinate 3 (-)>>>
             <<<Displacing  17/coordinate 2 (-)>>>
             <<<Displacing  20/coordinate 1 (+)>>>
             <<<Displacing  20/coordinate 2 (+)>>>
             <<<Displacing  20/coordinate 2 (-)>>>
             <<<Displacing  20/coordinate 1 (-)>>>
             <<<Displacing  19/coordinate 3 (+)>>>
             <<<Displacing  19/coordinate 3 (-)>>>
             <<<Displacing  20/coordinate 3 (+)>>>
             <<<Displacing  20/coordinate 3 (-)>>>
             <<<Displacing  21/coordinate 3 (+)>>>
             <<<Displacing  21/coordinate 2 (+)>>>
             <<<Displacing  21/coordinate 1 (+)>>>
             <<<Displacing  21/coordinate 3 (-)>>>
             <<<Displacing  21/coordinate 2 (-)>>>
             <<<Displacing  21/coordinate 1 (-)>>>
             <<<Displacing  22/coordinate 1 (+)>>>
             <<<Displacing  22/coordinate 1 (-)>>>
             <<<Displacing  23/coordinate 1 (+)>>>
             <<<Displacing  23/coordinate 1 (-)>>>
             <<<Displacing  22/coordinate 2 (+)>>>
             <<<Displacing  22/coordinate 3 (+)>>>
             <<<Displacing  22/coordinate 2 (-)>>>
             <<<Displacing  22/coordinate 3 (-)>>>
             <<<Displacing  24/coordinate 1 (+)>>>
             <<<Displacing  23/coordinate 2 (+)>>>
             <<<Displacing  23/coordinate 3 (+)>>>
             <<<Displacing  23/coordinate 2 (-)>>>
             <<<Displacing  24/coordinate 1 (-)>>>
             <<<Displacing  23/coordinate 3 (-)>>>
             <<<Displacing  24/coordinate 2 (+)>>>
             <<<Displacing  24/coordinate 2 (-)>>>
             <<<Displacing  24/coordinate 3 (+)>>>
             <<<Displacing  24/coordinate 3 (-)>>>
             <<<Displacing  25/coordinate 2 (+)>>>
             <<<Displacing  25/coordinate 1 (+)>>>
             <<<Displacing  25/coordinate 2 (-)>>>
             <<<Displacing  25/coordinate 1 (-)>>>
             <<<Displacing  25/coordinate 3 (+)>>>
             <<<Displacing  25/coordinate 3 (-)>>>
             <<<Displacing  26/coordinate 2 (+)>>>
             <<<Displacing  27/coordinate 1 (+)>>>
             <<<Displacing  26/coordinate 1 (+)>>>
             <<<Displacing  26/coordinate 2 (-)>>>
             <<<Displacing  27/coordinate 1 (-)>>>
             <<<Displacing  26/coordinate 1 (-)>>>
             <<<Displacing  27/coordinate 2 (+)>>>
             <<<Displacing  26/coordinate 3 (+)>>>
             <<<Displacing  26/coordinate 3 (-)>>>
             <<<Displacing  28/coordinate 2 (+)>>>
             <<<Displacing  27/coordinate 2 (-)>>>
             <<<Displacing  28/coordinate 2 (-)>>>
             <<<Displacing  27/coordinate 3 (+)>>>
             <<<Displacing  27/coordinate 3 (-)>>>
             <<<Displacing  28/coordinate 3 (+)>>>
             <<<Displacing  28/coordinate 1 (+)>>>
             <<<Displacing  28/coordinate 1 (-)>>>
             <<<Displacing  28/coordinate 3 (-)>>>
             <<<Displacing  29/coordinate 2 (+)>>>
             <<<Displacing  29/coordinate 2 (-)>>>
             <<<Displacing  29/coordinate 1 (+)>>>
             <<<Displacing  29/coordinate 1 (-)>>>
             <<<Displacing  29/coordinate 3 (+)>>>
             <<<Displacing  29/coordinate 3 (-)>>>
             <<<Displacing  30/coordinate 1 (+)>>>
             <<<Displacing  30/coordinate 1 (-)>>>
             <<<Displacing  30/coordinate 2 (+)>>>
             <<<Displacing  30/coordinate 3 (+)>>>
             <<<Displacing  30/coordinate 2 (-)>>>
             <<<Displacing  30/coordinate 3 (-)>>>

-----------------------
VIBRATIONAL FREQUENCIES
-----------------------

Scaling factor for frequencies =  1.000000000 (already applied!)

   0:         0.00 cm**-1
   1:         0.00 cm**-1
   2:         0.00 cm**-1
   3:         0.00 cm**-1
   4:         0.00 cm**-1
   5:         0.00 cm**-1
   6:      -322.17 cm**-1 ***imaginary mode***
   7:        34.07 cm**-1
   8:        55.31 cm**-1
   9:        65.81 cm**-1
  10:        87.75 cm**-1
  11:        98.12 cm**-1
  12:       117.69 cm**-1
  13:       141.95 cm**-1
  14:       152.82 cm**-1
  15:       187.65 cm**-1
  16:       246.58 cm**-1
  17:       261.83 cm**-1
  18:       272.18 cm**-1
  19:       352.73 cm**-1
  20:       375.30 cm**-1
  21:       381.07 cm**-1
  22:       408.66 cm**-1
  23:       446.93 cm**-1
  24:       486.70 cm**-1
  25:       529.90 cm**-1
  26:       581.87 cm**-1
  27:       591.16 cm**-1
  28:       621.80 cm**-1
  29:       659.02 cm**-1
  30:       753.68 cm**-1
  31:       766.67 cm**-1
  32:       818.68 cm**-1
  33:       850.12 cm**-1
  34:       858.05 cm**-1
  35:       879.13 cm**-1
  36:       902.09 cm**-1
  37:       927.76 cm**-1
  38:       933.42 cm**-1
  39:       937.14 cm**-1
  40:       945.21 cm**-1
  41:       982.01 cm**-1
  42:      1028.38 cm**-1
  43:      1063.59 cm**-1
  44:      1071.09 cm**-1
  45:      1098.80 cm**-1
  46:      1114.56 cm**-1
  47:      1121.84 cm**-1
  48:      1129.52 cm**-1
  49:      1180.42 cm**-1
  50:      1183.62 cm**-1
  51:      1200.01 cm**-1
  52:      1217.60 cm**-1
  53:      1242.00 cm**-1
  54:      1258.92 cm**-1
  55:      1268.90 cm**-1
  56:      1279.63 cm**-1
  57:      1291.24 cm**-1
  58:      1307.38 cm**-1
  59:      1328.80 cm**-1
  60:      1338.15 cm**-1
  61:      1366.01 cm**-1
  62:      1419.95 cm**-1
  63:      1427.44 cm**-1
  64:      1449.76 cm**-1
  65:      1458.08 cm**-1
  66:      1502.42 cm**-1
  67:      1503.41 cm**-1
  68:      1504.43 cm**-1
  69:      1510.84 cm**-1
  70:      1555.16 cm**-1
  71:      1557.21 cm**-1
  72:      1625.17 cm**-1
  73:      2940.17 cm**-1
  74:      2959.48 cm**-1
  75:      2964.59 cm**-1
  76:      2967.19 cm**-1
  77:      2983.04 cm**-1
  78:      2988.79 cm**-1
  79:      3000.58 cm**-1
  80:      3000.82 cm**-1
  81:      3010.22 cm**-1
  82:      3035.13 cm**-1
  83:      3055.87 cm**-1
  84:      3058.97 cm**-1
  85:      3064.98 cm**-1
  86:      3072.88 cm**-1
  87:      3079.01 cm**-1
  88:      3245.76 cm**-1
  89:      3594.71 cm**-1


------------
NORMAL MODES
------------

These modes are the cartesian displacements weighted by the diagonal matrix
M(i,i)=1/sqrt(m[i]) where m[i] is the mass of the displaced atom
Thus, these vectors are normalized but *not* orthogonal

                  0          1          2          3          4          5    
      0       0.000000   0.000000   0.000000   0.000000   0.000000   0.000000
      1       0.000000   0.000000   0.000000   0.000000   0.000000   0.000000
      2       0.000000   0.000000   0.000000   0.000000   0.000000   0.000000
      3       0.000000   0.000000   0.000000   0.000000   0.000000   0.000000
      4       0.000000   0.000000   0.000000   0.000000   0.000000   0.000000
      5       0.000000   0.000000   0.000000   0.000000   0.000000   0.000000
      6       0.000000   0.000000   0.000000   0.000000   0.000000   0.000000
      7       0.000000   0.000000   0.000000   0.000000   0.000000   0.000000
      8       0.000000   0.000000   0.000000   0.000000   0.000000   0.000000
      9       0.000000   0.000000   0.000000   0.000000   0.000000   0.000000
     10       0.000000   0.000000   0.000000   0.000000   0.000000   0.000000
     11       0.000000   0.000000   0.000000   0.000000   0.000000   0.000000
     12       0.000000   0.000000   0.000000   0.000000   0.000000   0.000000
     13       0.000000   0.000000   0.000000   0.000000   0.000000   0.000000
     14       0.000000   0.000000   0.000000   0.000000   0.000000   0.000000
     15       0.000000   0.000000   0.000000   0.000000   0.000000   0.000000
     16       0.000000   0.000000   0.000000   0.000000   0.000000   0.000000
     17       0.000000   0.000000   0.000000   0.000000   0.000000   0.000000
     18       0.000000   0.000000   0.000000   0.000000   0.000000   0.000000
     19       0.000000   0.000000   0.000000   0.000000   0.000000   0.000000
     20       0.000000   0.000000   0.000000   0.000000   0.000000   0.000000
     21       0.000000   0.000000   0.000000   0.000000   0.000000   0.000000
     22       0.000000   0.000000   0.000000   0.000000   0.000000   0.000000
     23       0.000000   0.000000   0.000000   0.000000   0.000000   0.000000
     24       0.000000   0.000000   0.000000   0.000000   0.000000   0.000000
     25       0.000000   0.000000   0.000000   0.000000   0.000000   0.000000
     26       0.000000   0.000000   0.000000   0.000000   0.000000   0.000000
     27       0.000000   0.000000   0.000000   0.000000   0.000000   0.000000
     28       0.000000   0.000000   0.000000   0.000000   0.000000   0.000000
     29       0.000000   0.000000   0.000000   0.000000   0.000000   0.000000
     30       0.000000   0.000000   0.000000   0.000000   0.000000   0.000000
     31       0.000000   0.000000   0.000000   0.000000   0.000000   0.000000
     32       0.000000   0.000000   0.000000   0.000000   0.000000   0.000000
     33       0.000000   0.000000   0.000000   0.000000   0.000000   0.000000
     34       0.000000   0.000000   0.000000   0.000000   0.000000   0.000000
     35       0.000000   0.000000   0.000000   0.000000   0.000000   0.000000
     36       0.000000   0.000000   0.000000   0.000000   0.000000   0.000000
     37       0.000000   0.000000   0.000000   0.000000   0.000000   0.000000
     38       0.000000   0.000000   0.000000   0.000000   0.000000   0.000000
     39       0.000000   0.000000   0.000000   0.000000   0.000000   0.000000
     40       0.000000   0.000000   0.000000   0.000000   0.000000   0.000000
     41       0.000000   0.000000   0.000000   0.000000   0.000000   0.000000
     42       0.000000   0.000000   0.000000   0.000000   0.000000   0.000000
     43       0.000000   0.000000   0.000000   0.000000   0.000000   0.000000
     44       0.000000   0.000000   0.000000   0.000000   0.000000   0.000000
     45       0.000000   0.000000   0.000000   0.000000   0.000000   0.000000
     46       0.000000   0.000000   0.000000   0.000000   0.000000   0.000000
     47       0.000000   0.000000   0.000000   0.000000   0.000000   0.000000
     48       0.000000   0.000000   0.000000   0.000000   0.000000   0.000000
     49       0.000000   0.000000   0.000000   0.000000   0.000000   0.000000
     50       0.000000   0.000000   0.000000   0.000000   0.000000   0.000000
     51       0.000000   0.000000   0.000000   0.000000   0.000000   0.000000
     52       0.000000   0.000000   0.000000   0.000000   0.000000   0.000000
     53       0.000000   0.000000   0.000000   0.000000   0.000000   0.000000
     54       0.000000   0.000000   0.000000   0.000000   0.000000   0.000000
     55       0.000000   0.000000   0.000000   0.000000   0.000000   0.000000
     56       0.000000   0.000000   0.000000   0.000000   0.000000   0.000000
     57       0.000000   0.000000   0.000000   0.000000   0.000000   0.000000
     58       0.000000   0.000000   0.000000   0.000000   0.000000   0.000000
     59       0.000000   0.000000   0.000000   0.000000   0.000000   0.000000
     60       0.000000   0.000000   0.000000   0.000000   0.000000   0.000000
     61       0.000000   0.000000   0.000000   0.000000   0.000000   0.000000
     62       0.000000   0.000000   0.000000   0.000000   0.000000   0.000000
     63       0.000000   0.000000   0.000000   0.000000   0.000000   0.000000
     64       0.000000   0.000000   0.000000   0.000000   0.000000   0.000000
     65       0.000000   0.000000   0.000000   0.000000   0.000000   0.000000
     66       0.000000   0.000000   0.000000   0.000000   0.000000   0.000000
     67       0.000000   0.000000   0.000000   0.000000   0.000000   0.000000
     68       0.000000   0.000000   0.000000   0.000000   0.000000   0.000000
     69       0.000000   0.000000   0.000000   0.000000   0.000000   0.000000
     70       0.000000   0.000000   0.000000   0.000000   0.000000   0.000000
     71       0.000000   0.000000   0.000000   0.000000   0.000000   0.000000
     72       0.000000   0.000000   0.000000   0.000000   0.000000   0.000000
     73       0.000000   0.000000   0.000000   0.000000   0.000000   0.000000
     74       0.000000   0.000000   0.000000   0.000000   0.000000   0.000000
     75       0.000000   0.000000   0.000000   0.000000   0.000000   0.000000
     76       0.000000   0.000000   0.000000   0.000000   0.000000   0.000000
     77       0.000000   0.000000   0.000000   0.000000   0.000000   0.000000
     78       0.000000   0.000000   0.000000   0.000000   0.000000   0.000000
     79       0.000000   0.000000   0.000000   0.000000   0.000000   0.000000
     80       0.000000   0.000000   0.000000   0.000000   0.000000   0.000000
     81       0.000000   0.000000   0.000000   0.000000   0.000000   0.000000
     82       0.000000   0.000000   0.000000   0.000000   0.000000   0.000000
     83       0.000000   0.000000   0.000000   0.000000   0.000000   0.000000
     84       0.000000   0.000000   0.000000   0.000000   0.000000   0.000000
     85       0.000000   0.000000   0.000000   0.000000   0.000000   0.000000
     86       0.000000   0.000000   0.000000   0.000000   0.000000   0.000000
     87       0.000000   0.000000   0.000000   0.000000   0.000000   0.000000
     88       0.000000   0.000000   0.000000   0.000000   0.000000   0.000000
     89       0.000000   0.000000   0.000000   0.000000   0.000000   0.000000
                  6          7          8          9         10         11    
      0       0.003087  -0.071603   0.017891   0.037777   0.010073   0.035749
      1      -0.002818   0.032362  -0.000910   0.141247   0.032155  -0.023959
      2       0.009873   0.100850  -0.019893  -0.159941  -0.073731  -0.013414
      3       0.008693  -0.079796   0.010472   0.018353   0.014803   0.034138
      4       0.018528  -0.015078  -0.026242   0.055140   0.056341  -0.018087
      5      -0.008210   0.073827   0.037788  -0.067786  -0.088326   0.051035
      6       0.002056  -0.027653   0.008133   0.019632  -0.011404   0.008176
      7       0.036839  -0.019927  -0.020915  -0.040871   0.017105   0.008803
      8      -0.024604   0.005721   0.034801   0.071546   0.008542   0.047804
      9      -0.012664   0.031624   0.011454   0.040131  -0.040166  -0.018021
     10       0.012299   0.025483   0.016111  -0.060078  -0.049377   0.019551
     11       0.005270  -0.029966  -0.034307   0.127537   0.113364   0.000972
     12      -0.013715   0.038648   0.018807   0.058169  -0.048829  -0.016253
     13      -0.001014   0.072217   0.043688   0.021703  -0.085059   0.015424
     14       0.009943   0.000108  -0.095809   0.040475   0.146101  -0.066497
     15      -0.005817  -0.012582   0.022389   0.058407  -0.023165   0.011685
     16      -0.005477   0.076337   0.034639   0.124291  -0.043726  -0.003057
     17       0.006067   0.064023  -0.088156  -0.106910   0.053859  -0.079128
     18       0.015996  -0.125375   0.007384   0.004602   0.040787   0.054018
     19       0.025440  -0.049203  -0.051970   0.071125   0.110189  -0.029786
     20      -0.016010   0.102265   0.088037  -0.113195  -0.174763   0.093016
     21      -0.022265   0.070642   0.006641   0.039887  -0.059999  -0.036384
     22       0.031673   0.025341   0.026106  -0.146031  -0.087709   0.033541
     23      -0.009396  -0.080367  -0.041973   0.248934   0.193669   0.005253
     24      -0.006517  -0.006290   0.028000   0.072687  -0.029416   0.013822
     25      -0.010098   0.113549   0.055818   0.187493  -0.072719  -0.001573
     26       0.000375   0.085014  -0.134748  -0.176710   0.079276  -0.135804
     27       0.017610   0.007467   0.000074   0.010114  -0.022885   0.028852
     28      -0.029996  -0.087659  -0.061724  -0.033107   0.098234   0.043768
     29       0.117849  -0.099476   0.102801   0.036549  -0.040218  -0.010246
     30       0.020435  -0.000984   0.003914   0.021107  -0.024323   0.026018
     31      -0.013970  -0.122569  -0.054614   0.008912   0.108030   0.017903
     32       0.016681  -0.133968   0.057993   0.039208   0.033968  -0.040420
     33      -0.003888  -0.005555   0.014331   0.049627  -0.005740   0.003620
     34      -0.001936  -0.069332  -0.020031  -0.014604   0.113045   0.034226
     35      -0.030474  -0.340606  -0.071759   0.138266   0.018658  -0.111936
     36       0.075424  -0.025801   0.013198   0.046030  -0.083847   0.029698
     37      -0.054712  -0.334169  -0.175184   0.121829   0.085313  -0.065402
     38       0.002829  -0.103353   0.066889   0.019688   0.055699  -0.032866
     39      -0.000777   0.031651   0.002576  -0.010262  -0.034516   0.026907
     40      -0.022293  -0.083711  -0.058903  -0.042386   0.090285   0.041487
     41       0.673766  -0.077344   0.184819  -0.094605  -0.107643  -0.070368
     42      -0.262741   0.035831   0.175003  -0.165921   0.136322  -0.332347
     43      -0.419674  -0.143854   0.028551  -0.281033  -0.121928  -0.072798
     44      -0.117835  -0.154677   0.036458   0.000974  -0.222180   0.085163
     45       0.024372  -0.038902  -0.000614   0.010276  -0.006664   0.012134
     46       0.117957  -0.070730  -0.043558  -0.083957   0.036980   0.026315
     47      -0.150680  -0.029677   0.079380   0.118492   0.028272   0.049630
     48       0.061455  -0.084930  -0.003144  -0.000353   0.013092   0.007901
     49       0.200594  -0.088439  -0.039258  -0.110232   0.022184   0.014826
     50      -0.404902  -0.010370   0.064388   0.202247   0.102924   0.082002
     51      -0.016630   0.019986   0.139020  -0.122287   0.094805  -0.232337
     52      -0.084898  -0.143893  -0.002908  -0.222760  -0.110288  -0.012193
     53      -0.006068  -0.145268   0.033243   0.019996  -0.188993   0.073184
     54      -0.003854   0.029369  -0.033894  -0.041597   0.030102   0.057079
     55       0.001246   0.046935   0.067471  -0.037424   0.117467   0.050988
     56       0.004406   0.057491   0.136164  -0.063616   0.094097   0.019279
     57      -0.018647   0.071356  -0.153638  -0.032083  -0.031735   0.007315
     58       0.003287   0.210981   0.284244  -0.195643   0.284079   0.215379
     59       0.012184   0.038046   0.190164  -0.068021   0.121451   0.042253
     60      -0.006303   0.007249   0.075400  -0.133077   0.186390   0.189731
     61      -0.000265  -0.014663   0.002194   0.003364   0.079140   0.008951
     62       0.007690   0.236383   0.336013  -0.189490   0.218030   0.152050
     63       0.007706  -0.110660   0.019975   0.035797   0.029546   0.056913
     64      -0.012375   0.035591  -0.006427   0.219380   0.066601  -0.041617
     65       0.017340   0.150145  -0.014482  -0.272913  -0.151455  -0.016818
     66      -0.020986   0.084121   0.021468   0.072357  -0.073565  -0.037484
     67      -0.005018   0.106274   0.072576   0.005673  -0.145310   0.028807
     68       0.011607  -0.026995  -0.150697   0.084811   0.243101  -0.111463
     69      -0.002648   0.036518  -0.071570   0.001445  -0.037380   0.002915
     70       0.003631   0.068837  -0.015403   0.085477  -0.070833  -0.105467
     71      -0.003893   0.034921  -0.127178   0.005595  -0.048364  -0.116920
     72       0.000645   0.015278   0.063277  -0.017673   0.018266   0.014852
     73       0.002773  -0.034640  -0.186784   0.206075  -0.255133  -0.383412
     74      -0.005015   0.042852  -0.183125   0.014136  -0.072071  -0.123519
     75      -0.003284   0.054805  -0.183074   0.098754  -0.196742  -0.122976
     76       0.003484   0.106846   0.034904   0.057665  -0.028336  -0.027355
     77      -0.003783  -0.074231  -0.279678   0.092206  -0.181087  -0.350316
     78      -0.002332   0.046587  -0.139967  -0.059039   0.032445   0.100803
     79       0.002125   0.169670   0.058993   0.090787  -0.078275  -0.006909
     80      -0.004598   0.141876  -0.122048  -0.048716   0.013312   0.073154
     81      -0.002371   0.051233  -0.155341  -0.032308  -0.012597   0.058117
     82       0.001538   0.183158   0.022578   0.164711  -0.201170  -0.123165
     83      -0.004109   0.130238  -0.278498  -0.020238  -0.068542  -0.008931
     84      -0.001798   0.025872  -0.063190  -0.135408   0.171509   0.221238
     85       0.002563   0.137131   0.018130   0.114299  -0.118168  -0.084231
     86      -0.005819   0.239713  -0.003968  -0.115309   0.125707   0.297766
     87      -0.002298   0.070777  -0.253510  -0.054301  -0.009232   0.100170
     88       0.001472   0.260907   0.191189  -0.002967   0.078825   0.257840
     89      -0.004584   0.132883  -0.080681  -0.050352   0.028365   0.073103
                 12         13         14         15         16         17    
      0       0.005573   0.016243   0.046247   0.043025   0.069793   0.006083
      1      -0.008812  -0.019371   0.000739  -0.013924  -0.004525   0.003041
      2       0.010218  -0.065159  -0.016411  -0.011642  -0.018387  -0.009773
      3       0.007772   0.018190   0.034088   0.064573   0.077055   0.009732
      4       0.005698   0.030963  -0.030386   0.099633   0.050732   0.021386
      5       0.016151   0.067550   0.057787  -0.082308  -0.074327  -0.031268
      6      -0.003047  -0.055258   0.023852   0.019372   0.037795   0.003562
      7       0.016702   0.060754  -0.033719   0.129048   0.046403   0.010754
      8       0.015850   0.138449   0.085910  -0.061263  -0.019995  -0.005462
      9      -0.016241  -0.152170   0.018682  -0.030941   0.046540   0.002574
     10       0.017416   0.029209  -0.028705   0.115685   0.074100   0.025519
     11       0.002754   0.112746   0.078758  -0.080176  -0.069496  -0.034149
     12      -0.019541  -0.162786   0.028713  -0.059973   0.034936  -0.002411
     13       0.001320  -0.026067  -0.000734  -0.011042   0.006580   0.003531
     14      -0.000013  -0.007950   0.003090   0.013455  -0.001427  -0.007233
     15      -0.008597  -0.076136   0.046330  -0.028167   0.045489  -0.004939
     16      -0.012147  -0.038489   0.022613  -0.095303  -0.066010  -0.023286
     17       0.004864  -0.108395  -0.057455   0.090194   0.086208   0.034237
     18       0.018322   0.085665   0.040529   0.116449   0.111197   0.016372
     19       0.006853   0.047001  -0.038961   0.142897   0.084691   0.032979
     20       0.023529   0.096228   0.082841  -0.123817  -0.111200  -0.048864
     21      -0.025092  -0.218081  -0.000914  -0.050949   0.047669   0.001526
     22       0.028174   0.047614  -0.037691   0.166672   0.107457   0.042843
     23      -0.000706   0.174520   0.117267  -0.125282  -0.118879  -0.056879
     24      -0.010941  -0.077740   0.054988  -0.053621   0.026561  -0.012263
     25      -0.024982  -0.066533   0.054936  -0.209792  -0.145459  -0.053762
     26       0.003517  -0.213001  -0.128800   0.203870   0.195829   0.081396
     27      -0.008530   0.046389   0.024744   0.055654  -0.004912   0.001867
     28       0.019692   0.007816  -0.072462   0.028165  -0.024523  -0.034222
     29       0.046593   0.027992   0.066224  -0.027875   0.078689   0.035419
     30      -0.007090   0.032597   0.021226   0.018562  -0.019230   0.009317
     31       0.025621  -0.105622  -0.053821  -0.122107  -0.041949  -0.010952
     32       0.030346  -0.160149   0.059062   0.077547  -0.084197  -0.026400
     33      -0.024999  -0.075148   0.018978  -0.052732  -0.045711   0.017710
     34      -0.022091  -0.060917  -0.058467  -0.130383  -0.000912  -0.003823
     35       0.211163  -0.361314   0.083095   0.090268  -0.251021  -0.051143
     36       0.054118   0.126487   0.048561  -0.027720   0.094018   0.051964
     37       0.213547  -0.325987  -0.018783  -0.138136  -0.198488  -0.023887
     38      -0.009147  -0.166892   0.046408   0.093349  -0.104341  -0.038720
     39      -0.001784   0.107506  -0.019549   0.159207   0.004952  -0.005043
     40       0.020335   0.022767  -0.070673   0.039484  -0.024187  -0.034196
     41       0.049058   0.159613   0.539573  -0.286296   0.045777   0.072390
     42       0.169299   0.166202  -0.470001  -0.155629  -0.067741  -0.031258
     43      -0.005397   0.030966   0.160055  -0.047050  -0.018421   0.003631
     44      -0.032829  -0.002285  -0.242454   0.004701   0.024509   0.020795
     45      -0.002725  -0.049786   0.002425  -0.000384  -0.002487  -0.007768
     46       0.020703   0.071492  -0.046885   0.052271  -0.028474  -0.026690
     47       0.032211   0.117240   0.096574   0.052846   0.102037   0.046958
     48       0.002479  -0.099688   0.012892  -0.082521  -0.023280  -0.022441
     49       0.020728   0.067374  -0.023513  -0.020800  -0.051516  -0.034609
     50       0.038665   0.078696   0.032585   0.223213   0.168012   0.062296
     51       0.119304   0.099510  -0.110211  -0.072430  -0.014854  -0.000973
     52      -0.015040   0.000510   0.267329  -0.037791  -0.016764  -0.003194
     53      -0.011070   0.014010  -0.372583  -0.037294  -0.005625  -0.002155
     54      -0.062694   0.052830  -0.022646   0.060532  -0.113222  -0.031363
     55      -0.124885  -0.021818  -0.066838  -0.153249   0.077516   0.015969
     56      -0.165441  -0.063789   0.008157   0.097728  -0.046326  -0.042320
     57      -0.101682   0.115401  -0.033197   0.057947  -0.131063   0.001077
     58      -0.300369   0.012807  -0.115147  -0.146077   0.148415  -0.058911
     59      -0.146874  -0.091563   0.012847   0.096755  -0.036362  -0.056564
     60      -0.082819  -0.012702  -0.052628   0.045351  -0.113500  -0.103011
     61      -0.064833  -0.041400  -0.051946  -0.153888   0.045595   0.030281
     62      -0.340654  -0.011292  -0.038718   0.103692   0.044424  -0.092320
     63       0.014418   0.088342   0.052977   0.079518   0.077043   0.009896
     64      -0.017993  -0.039116   0.016245  -0.053322  -0.009481   0.001841
     65       0.011649  -0.135518  -0.048099  -0.003793  -0.020580  -0.013211
     66      -0.030074  -0.236378   0.020131  -0.109900   0.010012  -0.006125
     67      -0.000451  -0.047241   0.005922  -0.049243  -0.006177   0.002602
     68      -0.005942  -0.030885  -0.018036   0.045108   0.001412  -0.008642
     69      -0.047989   0.081086  -0.008304   0.086739  -0.138524  -0.012321
     70      -0.079775   0.042270  -0.022874  -0.056587   0.022311   0.061612
     71      -0.120851   0.011845   0.026734   0.016615  -0.019398   0.042718
     72      -0.144712   0.055149  -0.017092   0.165946  -0.202985  -0.039256
     73      -0.248058   0.153135   0.002454  -0.041656  -0.011708   0.142582
     74      -0.081902   0.023158   0.030508  -0.016817   0.008119   0.054079
     75       0.018871   0.136552   0.030869   0.161242  -0.182108   0.001441
     76      -0.014593   0.009917  -0.024940  -0.041319   0.020302   0.031331
     77      -0.303911   0.108227   0.036229  -0.020186  -0.017701   0.127725
     78       0.011209   0.076006  -0.035486  -0.118771   0.007845   0.027003
     79       0.125083  -0.010849   0.003147   0.095788  -0.060134  -0.029136
     80       0.133661  -0.047016   0.027615  -0.040482   0.056030  -0.005179
     81       0.013102   0.096782  -0.022820  -0.075184   0.053758  -0.111095
     82       0.130599   0.043246   0.038537   0.225840   0.051226  -0.399395
     83       0.119246   0.046767   0.029468  -0.192567   0.431834  -0.400702
     84      -0.015023   0.002344  -0.071726  -0.203417  -0.210037   0.506621
     85       0.047936   0.030019   0.004727   0.077913   0.011716  -0.117540
     86       0.364765  -0.165241   0.024511   0.016455  -0.147316   0.235121
     87       0.079806   0.127023  -0.035020  -0.247953   0.307216  -0.280270
     88       0.351484  -0.148963  -0.011050   0.108172  -0.308331   0.347663
     89       0.108245  -0.065428   0.027513   0.006586  -0.052879   0.106550
                 18         19         20         21         22         23    
      0      -0.109437  -0.002295   0.069305  -0.009061   0.005893   0.083061
      1       0.040818  -0.003912  -0.006163  -0.097901   0.032761  -0.019856
      2      -0.018652   0.010473  -0.009430   0.172143  -0.036983  -0.074251
      3      -0.097716  -0.000819   0.064563   0.040270   0.006409   0.057112
      4       0.038359   0.002321   0.062130   0.115799   0.040401  -0.018451
      5      -0.082039   0.015627   0.114868  -0.167140   0.005777  -0.005539
      6      -0.039483   0.002902   0.027613   0.004724   0.009050  -0.070325
      7      -0.032837   0.014563   0.136033   0.025485  -0.020043  -0.013775
      8      -0.032505  -0.009171   0.027663   0.014905   0.090941   0.132379
      9      -0.053416  -0.010093  -0.033405  -0.030986  -0.016608   0.042158
     10       0.001950  -0.000305   0.113125  -0.073583   0.032073   0.087564
     11      -0.100947   0.011639   0.045659   0.182413  -0.021320   0.032169
     12      -0.060666  -0.012630  -0.070284   0.008409  -0.025590   0.052854
     13       0.006403  -0.003230  -0.021790   0.099860   0.015648   0.061605
     14      -0.027850   0.004122   0.051063  -0.176024  -0.038215  -0.023414
     15      -0.118318  -0.007240   0.000445  -0.003129  -0.039841   0.117848
     16      -0.010032   0.008053  -0.017906  -0.011908  -0.033202  -0.074835
     17       0.077238  -0.019169  -0.059831   0.001890   0.051032   0.071900
     18      -0.141052  -0.000564   0.120510   0.087845   0.011443   0.158954
     19       0.045611  -0.004002   0.041175   0.244893   0.063721   0.047799
     20      -0.139451   0.028868   0.209011  -0.388057  -0.038599  -0.040710
     21      -0.049889  -0.016002  -0.094111  -0.079269  -0.043872   0.070430
     22       0.036286  -0.006481   0.173035  -0.201417   0.106930   0.131972
     23      -0.150315   0.029570   0.042682   0.426200  -0.087525  -0.072234
     24      -0.127998  -0.004971  -0.001535  -0.007683  -0.049043   0.104615
     25      -0.044780   0.015200  -0.042443  -0.034117  -0.075568  -0.124059
     26       0.189750  -0.041409  -0.136632   0.012603   0.101950   0.120838
     27       0.013012   0.012105   0.054256   0.007857   0.043438  -0.173268
     28      -0.119801  -0.004275  -0.180614  -0.028290  -0.079879  -0.008823
     29       0.082652  -0.008367  -0.163307  -0.031853  -0.070195  -0.029224
     30       0.091543   0.008274   0.055218   0.007589   0.078365  -0.166518
     31       0.055125  -0.002640  -0.026762  -0.003082   0.130909   0.033620
     32       0.112234   0.008651   0.107118   0.013450  -0.089506   0.000351
     33       0.208519   0.023469   0.265792   0.040034   0.206311  -0.192298
     34       0.028249  -0.005342  -0.065579  -0.009073   0.123531   0.019636
     35       0.253106   0.023326   0.320108   0.046153  -0.027639   0.046750
     36       0.057829   0.001871  -0.099923  -0.017806   0.061640  -0.241268
     37       0.237046   0.017266   0.250442   0.038751   0.231193   0.051653
     38       0.103361   0.008538   0.127994   0.017330  -0.091692   0.024484
     39      -0.052367   0.040842   0.022434  -0.007178  -0.106901  -0.289186
     40      -0.125016  -0.000080  -0.178374  -0.028999  -0.092287  -0.020023
     41       0.273667  -0.140023  -0.084414  -0.008136   0.389589   0.336369
     42      -0.106958  -0.677605   0.274864   0.070999   0.009907   0.061663
     43       0.029558   0.280388   0.041108   0.041802   0.147266   0.350160
     44       0.069018   0.648085  -0.125698  -0.011125   0.137876   0.250152
     45      -0.023019   0.008723  -0.013106  -0.003438   0.013661  -0.124710
     46      -0.102003   0.008804  -0.082554  -0.020664  -0.075856  -0.033180
     47       0.101392  -0.028056  -0.127177  -0.007191   0.011213  -0.042064
[...]
  32       -39.209706   -48.308753    0.002780  0.000754
  33       -39.209569   -48.222747    0.002949  0.000787
  34       -39.209426   -48.132941    0.003123  0.000822
  35       -39.209277   -48.039213    0.003301  0.000858
  36       -39.209121   -47.941433    0.003483  0.000895
  37       -39.208959   -47.839461    0.003669  0.000933
  38       -39.208789   -47.733154    0.003857  0.000972
  39       -39.208613   -47.622357    0.004049  0.001013
  40       -39.208429   -47.506874    0.004244  0.001056
  41       -39.208237   -47.386524    0.004441  0.001101
  42       -39.208037   -47.261108    0.004639  0.001147
  43       -39.207829   -47.130421    0.004840  0.001195
  44       -39.207612   -46.994260    0.005041  0.001245
  45       -39.207386   -46.852415    0.005243  0.001297
  46       -39.207150   -46.704661    0.005446  0.001351
  47       -39.206905   -46.550771    0.005648  0.001407
  48       -39.206650   -46.390504    0.005853  0.001465
  49       -39.206384   -46.223588    0.006143  0.001526
  50       -39.206107   -46.049786    0.006516  0.001589
  51       -39.205818   -45.868862    0.006901  0.001654
  52       -39.205518   -45.680572    0.007297  0.001721
  53       -39.205206   -45.484677    0.007704  0.001790
  54       -39.204881   -45.280941    0.008122  0.001861
  55       -39.204544   -45.069146    0.008549  0.001934
  56       -39.204193   -44.849093    0.008984  0.002009
  57       -39.203829   -44.620578    0.009426  0.002086
  58       -39.203451   -44.383412    0.009878  0.002164
  59       -39.203059   -44.137411    0.010336  0.002244
  60       -39.202653   -43.882381    0.010803  0.002326
  61       -39.202231   -43.618160    0.011277  0.002409
  62       -39.201796   -43.344602    0.011757  0.002493
  63       -39.201345   -43.061573    0.012243  0.002579
  64       -39.200878   -42.768933    0.012733  0.002665
  65       -39.200396   -42.466529    0.013230  0.002754
  66       -39.199899   -42.154190    0.013734  0.002843
  67       -39.199385   -41.831784    0.014240  0.002934
  68       -39.198855   -41.499224    0.014749  0.003025
  69       -39.198308   -41.156407    0.015259  0.003118
  70       -39.197746   -40.803193    0.015767  0.003212
  71       -39.197166   -40.439431    0.016273  0.003307
  72       -39.196569   -40.064963    0.016773  0.003403
  73       -39.195955   -39.679638    0.017267  0.003501
  74       -39.195323   -39.283304    0.017752  0.003601
  75       -39.194674   -38.875813    0.018225  0.003701
  76       -39.194007   -38.457035    0.018683  0.003803
  77       -39.193321   -38.026866    0.019125  0.003905
  78       -39.192617   -37.585231    0.019548  0.004008
  79       -39.191895   -37.132100    0.019950  0.004111
  80       -39.191155   -36.667495    0.020329  0.004214
  81       -39.190396   -36.191511    0.020683  0.004315
  82       -39.189620   -35.704328    0.021010  0.004414
  83       -39.188826   -35.206199    0.021309  0.004511
  84       -39.188015   -34.697459    0.021581  0.004604
  85       -39.187188   -34.178527    0.021824  0.004694
  86       -39.186346   -33.649901    0.022039  0.004778
  87       -39.185489   -33.112160    0.022224  0.004857
  88       -39.184619   -32.565965    0.022380  0.004929
  89       -39.183736   -32.012037    0.022508  0.004995
  90       -39.182842   -31.451150    0.022608  0.005054
  91       -39.181938   -30.884127    0.022681  0.005105
  92       -39.181026   -30.311824    0.022728  0.005148
  93       -39.180107   -29.735128    0.022748  0.005184
  94       -39.179183   -29.154940    0.022743  0.005211
  95       -39.178254   -28.572159    0.022713  0.005230
  96       -39.177323   -27.987654    0.022658  0.005242
  97       -39.176390   -27.402185    0.022578  0.005248
  98       -39.175456   -26.816173    0.022471  0.005254
  99       -39.174522   -26.230423    0.022398  0.005238
 100       -39.173590   -25.645655    0.022253  0.005247
 101       -39.172659   -25.061033    0.022163  0.005198
 102       -39.171734   -24.480691    0.021991  0.005214
 103       -39.170808   -23.899716    0.021874  0.005128
 104       -39.169896   -23.327284    0.021682  0.005147
 105       -39.168982   -22.753889    0.021530  0.005034
 106       -39.168086   -22.191898    0.021324  0.005060
 107       -39.167188   -21.627857    0.021145  0.004915
 108       -39.166313   -21.079135    0.020928  0.004943
 109       -39.165435   -20.528118    0.020728  0.004784
 110       -39.164585   -19.994449    0.020501  0.004809
 111       -39.163731   -19.458551    0.020291  0.004646
 112       -39.162905   -18.940667    0.020057  0.004667
 113       -39.162077   -18.420737    0.019845  0.004508
 114       -39.161276   -17.918508    0.019603  0.004526
 115       -39.160473   -17.414483    0.019394  0.004374
 116       -39.159697   -16.927340    0.019142  0.004390
 117       -39.158918   -16.438669    0.018932  0.004244
 118       -39.158165   -15.966107    0.018670  0.004260
 119       -39.157410   -15.492244    0.018453  0.004116
 120       -39.156680   -15.034170    0.018183  0.004130
 121       -39.155948   -14.575015    0.017954  0.003986
 122       -39.155242   -14.131744    0.017675  0.003998
 123       -39.154534   -13.687632    0.017434  0.003851
 124       -39.153852   -13.259714    0.017147  0.003861
 125       -39.153169   -12.831214    0.016894  0.003711
 126       -39.152513   -12.419206    0.016602  0.003718
 127       -39.151856   -12.006907    0.016340  0.003568
 128       -39.151225   -11.611208    0.016043  0.003571
 129       -39.150594   -11.215526    0.015775  0.003422
 130       -39.149990   -10.836341    0.015476  0.003422
 131       -39.149387   -10.457506    0.015203  0.003276
 132       -39.148809   -10.094843    0.014903  0.003273
 133       -39.148232   -9.732851    0.014627  0.003130
 134       -39.147680   -9.386620    0.014327  0.003124
 135       -39.147130   -9.041350    0.014051  0.002985
 136       -39.146604   -8.711407    0.013751  0.002976
 137       -39.146080   -8.382744    0.013477  0.002844
 138       -39.145580   -8.068654    0.013178  0.002833
 139       -39.145082   -7.756082    0.012904  0.002705
 140       -39.144606   -7.457558    0.012608  0.002691
 141       -39.144133   -7.160828    0.012336  0.002569
 142       -39.143681   -6.877524    0.012043  0.002553
 143       -39.143233   -6.596267    0.011772  0.002436
 144       -39.142805   -6.327814    0.011481  0.002418
 145       -39.142381   -6.061662    0.011210  0.002307
 146       -39.141977   -5.807696    0.010919  0.002286
 147       -39.141576   -5.556262    0.010651  0.002180
 148       -39.141194   -5.316408    0.010364  0.002157
 149       -39.140816   -5.079271    0.010099  0.002057
 150       -39.140455   -4.853111    0.009817  0.002033
 151       -39.140099   -4.629817    0.009555  0.001937
 152       -39.139760   -4.416960    0.009278  0.001911
 153       -39.139426   -4.207110    0.009020  0.001822
 154       -39.139107   -4.007106    0.008749  0.001795
 155       -39.138793   -3.810201    0.008501  0.001710
 156       -39.138494   -3.622535    0.008242  0.001683
 157       -39.138200   -3.438013    0.007999  0.001603
 158       -39.137920   -3.262181    0.007747  0.001575
 159       -39.137645   -3.089558    0.007510  0.001500
 160       -39.137383   -2.925126    0.007264  0.001472
 161       -39.137126   -2.763956    0.007033  0.001401
 162       -39.136882   -2.610510    0.006795  0.001372
 163       -39.136642   -2.460357    0.006569  0.001305
 164       -39.136415   -2.317489    0.006338  0.001276
 165       -39.136192   -2.177940    0.006118  0.001213
 166       -39.135981   -2.045269    0.005893  0.001184
 167       -39.135775   -1.915930    0.005676  0.001124
 168       -39.135579   -1.793101    0.005458  0.001095
 169       -39.135388   -1.673611    0.005247  0.001038
 170       -39.135208   -1.560271    0.005036  0.001009
 171       -39.135033   -1.450271    0.004832  0.000956
 172       -39.134867   -1.346081    0.004627  0.000926
 173       -39.134706   -1.245215    0.004428  0.000876
 174       -39.134554   -1.149852    0.004230  0.000846
 175       -39.134407   -1.057794    0.004036  0.000798
 176       -39.134269   -0.970955    0.003844  0.000769
 177       -39.134136   -0.887396    0.003656  0.000724
 178       -39.134010   -0.808799    0.003471  0.000695
 179       -39.133890   -0.733450    0.003289  0.000652
 180       -39.133778   -0.662834    0.003110  0.000623
 181       -39.133670   -0.595436    0.002932  0.000582
 182       -39.133570   -0.532566    0.002757  0.000553
 183       -39.133475   -0.472883    0.002587  0.000514
 184       -39.133387   -0.417414    0.002463  0.000487
 185       -39.133303   -0.364984    0.002303  0.000451
 186       -39.133226   -0.316907    0.001928  0.000429
 187       -39.133153   -0.271149    0.001833  0.000391
 188       -39.133091   -0.231872    0.001836  0.000407
 189       -39.133047   -0.204500    0.001953  0.000416
 190       -39.133005   -0.177769    0.002027  0.000436
 191       -39.132953   -0.145426    0.002437  0.000514
 192       -39.132721    0.000000    0.000011  0.000004 <= TS
 193       -39.132990   -0.168505    0.002509  0.000547
 194       -39.133045   -0.202934    0.001982  0.000444
 195       -39.133104   -0.239945    0.002217  0.000483
 196       -39.133144   -0.265176    0.002344  0.000434
 197       -39.133215   -0.309914    0.002576  0.000435
 198       -39.133297   -0.360905    0.002822  0.000479
 199       -39.133382   -0.414523    0.003079  0.000503
 200       -39.133476   -0.473299    0.003341  0.000548
 201       -39.133574   -0.535225    0.003611  0.000576
 202       -39.133681   -0.602384    0.003889  0.000624
 203       -39.133793   -0.672748    0.004182  0.000653
 204       -39.133915   -0.748835    0.004491  0.000707
 205       -39.134041   -0.828179    0.004816  0.000735
 206       -39.134178   -0.913798    0.005146  0.000794
 207       -39.134319   -1.002709    0.005497  0.000823
 208       -39.134472   -1.098517    0.005853  0.000887
 209       -39.134630   -1.197676    0.006237  0.000917
 210       -39.134800   -1.304528    0.006625  0.000989
 211       -39.134976   -1.414800    0.007050  0.001019
 212       -39.135166   -1.533805    0.007481  0.001102
 213       -39.135361   -1.656311    0.007958  0.001132
 214       -39.135572   -1.788849    0.008438  0.001227
 215       -39.135789   -1.924950    0.008973  0.001258
 216       -39.136024   -2.072669    0.009511  0.001368
 217       -39.136266   -2.223999    0.010114  0.001399
 218       -39.136528   -2.388954    0.010722  0.001528
 219       -39.136797   -2.557543    0.011406  0.001558
 220       -39.137092   -2.742352    0.012102  0.001713
 221       -39.137392   -2.930736    0.012880  0.001741
 222       -39.137723   -3.138556    0.013674  0.001926
 223       -39.138060   -3.349761    0.014555  0.001950
 224       -39.138433   -3.584347    0.015463  0.002173
 225       -39.138812   -3.821958    0.016456  0.002191
 226       -39.139235   -4.087596    0.017489  0.002457
 227       -39.139663   -4.355640    0.018593  0.002466
 228       -39.140143   -4.656873    0.019753  0.002779
 229       -39.140625   -4.959652    0.020967  0.002777
 230       -39.141169   -5.300877    0.022248  0.003137
 231       -39.141713   -5.642558    0.023552  0.003121
 232       -39.142327   -6.027380    0.024929  0.003523
 233       -39.142939   -6.411438    0.026302  0.003492
 234       -39.143625   -6.842210    0.027744  0.003926
 235       -39.144309   -7.271101    0.029161  0.003883
 236       -39.145069   -7.748231    0.030620  0.004331
 237       -39.145825   -8.222604    0.032030  0.004277
 238       -39.146657   -8.744526    0.033444  0.004721
 239       -39.147483   -9.263077    0.034808  0.004661
 240       -39.148381   -9.826394    0.036129  0.005083
 241       -39.149273   -10.386164    0.037408  0.005021
 242       -39.150228   -10.985609    0.038584  0.005400
 243       -39.151178   -11.581816    0.039724  0.005339
 244       -39.152179   -12.209606    0.040695  0.005653
 245       -39.153176   -12.835235    0.041635  0.005602
 246       -39.154206   -13.481556    0.042357  0.005822
 247       -39.155235   -14.127767    0.043031  0.005787
 248       -39.156282   -14.784607    0.043467  0.005913
 249       -39.157330   -15.442302    0.043807  0.005888
 250       -39.158380   -16.100808    0.043930  0.005914
 251       -39.159430   -16.759948    0.043871  0.005899
 252       -39.160478   -17.417205    0.043599  0.005876
 253       -39.161519   -18.070931    0.043115  0.005835
 254       -39.162552   -18.718854    0.042421  0.005772
 255       -39.163571   -19.358547    0.041520  0.005687
 256       -39.164574   -19.987620    0.040419  0.005582
 257       -39.165556   -20.603823    0.039127  0.005457
 258       -39.166514   -21.205130    0.037661  0.005316
 259       -39.167446   -21.789803    0.036041  0.005160
 260       -39.168349   -22.356448    0.034298  0.004993
 261       -39.169221   -22.904069    0.032464  0.004820
 262       -39.170063   -23.432078    0.030580  0.004643
 263       -39.170873   -23.940280    0.028688  0.004465
 264       -39.171651   -24.428820    0.026829  0.004291
 265       -39.172399   -24.898096    0.025042  0.004120
 266       -39.173117   -25.348661    0.023356  0.003955
 267       -39.173806   -25.781133    0.021795  0.003796
 268       -39.174468   -26.196136    0.020370  0.003642
 269       -39.175102   -26.594248    0.019081  0.003493
 270       -39.175710   -26.976008    0.017924  0.003349
 271       -39.176294   -27.341960    0.016885  0.003209
 272       -39.176852   -27.692571    0.015949  0.003074
 273       -39.177387   -28.028290    0.015096  0.002943
 274       -39.177899   -28.349577    0.014314  0.002816
 275       -39.178389   -28.656936    0.013587  0.002693
 276       -39.178858   -28.950914    0.012906  0.002576
 277       -39.179306   -29.232099    0.012264  0.002464
 278       -39.179735   -29.501119    0.011655  0.002358
 279       -39.180145   -29.758636    0.011076  0.002258
 280       -39.180538   -30.005341    0.010528  0.002164
 281       -39.180915   -30.241940    0.010007  0.002077
 282       -39.181277   -30.469126    0.009515  0.001995
 283       -39.181625   -30.687577    0.009051  0.001920
 284       -39.181960   -30.897942    0.008616  0.001851
 285       -39.182284   -31.100829    0.008210  0.001786
 286       -39.182596   -31.296804    0.007858  0.001727
 287       -39.182898   -31.486389    0.007600  0.001672
 288       -39.183191   -31.670063    0.007354  0.001620
 289       -39.183475   -31.848248    0.007122  0.001573
 290       -39.183751   -32.021323    0.006902  0.001529
 291       -39.184019   -32.189635    0.006695  0.001488
 292       -39.184280   -32.353481    0.006501  0.001449
 293       -39.184534   -32.513117    0.006317  0.001412
 294       -39.184782   -32.668768    0.006144  0.001377
 295       -39.185024   -32.820627    0.005980  0.001344
 296       -39.185261   -32.968868    0.005824  0.001312
 297       -39.185491   -33.113643    0.005676  0.001282
 298       -39.185717   -33.255090    0.005535  0.001253
 299       -39.185937   -33.393348    0.005403  0.001225
 300       -39.186153   -33.528541    0.005275  0.001198
 301       -39.186363   -33.660776    0.005153  0.001172
 302       -39.186570   -33.790151    0.005037  0.001147
 303       -39.186771   -33.916761    0.004925  0.001122
 304       -39.186969   -34.040686    0.004816  0.001098
 305       -39.187162   -34.161971    0.004710  0.001075
 306       -39.187351   -34.280692    0.004604  0.001052
 307       -39.187536   -34.396922    0.004503  0.001030
 308       -39.187718   -34.510729    0.004404  0.001009
 309       -39.187895   -34.622183    0.004310  0.000988
 310       -39.188069   -34.731352    0.004218  0.000968
 311       -39.188240   -34.838294    0.004129  0.000948
 312       -39.188407   -34.943062    0.004041  0.000929
 313       -39.188570   -35.045707    0.003954  0.000910
 314       -39.188731   -35.146271    0.003873  0.000892
 315       -39.188888   -35.244776    0.003784  0.000875
 316       -39.189041   -35.341106    0.003718  0.000861
 317       -39.189191   -35.435027    0.003625  0.000841
 318       -39.189338   -35.527358    0.003560  0.000826
 319       -39.189482   -35.617518    0.003468  0.000807
 320       -39.189623   -35.706091    0.003407  0.000792
 321       -39.189761   -35.792605    0.003317  0.000774
 322       -39.189896   -35.877557    0.003259  0.000760
 323       -39.190028   -35.960543    0.003166  0.000742
 324       -39.190158   -36.041948    0.003105  0.000728
 325       -39.190285   -36.121459    0.003017  0.000711
 326       -39.190409   -36.199416    0.002958  0.000697
 327       -39.190530   -36.275577    0.002874  0.000681
 328       -39.190649   -36.350231    0.002817  0.000667
 329       -39.190766   -36.423185    0.002735  0.000652
 330       -39.190879   -36.494660    0.002679  0.000638
 331       -39.190991   -36.564510    0.002617  0.000624
 332       -39.191100   -36.632917    0.002553  0.000611
 333       -39.191206   -36.699780    0.002514  0.000597
 334       -39.191311   -36.765236    0.002453  0.000584
 335       -39.191413   -36.829215    0.002415  0.000571
 336       -39.191512   -36.891839    0.002359  0.000559
 337       -39.191610   -36.953078    0.002323  0.000546
 338       -39.191705   -37.013001    0.002269  0.000535
 339       -39.191799   -37.071601    0.002233  0.000523
 340       -39.191890   -37.128918    0.002180  0.000511
 341       -39.191980   -37.184971    0.002146  0.000500
 342       -39.192067   -37.239763    0.002093  0.000489
 343       -39.192152   -37.293367    0.002061  0.000478
 344       -39.192236   -37.345770    0.002010  0.000467
 345       -39.192317   -37.397043    0.001981  0.000457
 346       -39.192397   -37.447151    0.001929  0.000447
 347       -39.192475   -37.496176    0.001903  0.000437
 348       -39.192552   -37.544020    0.001849  0.000426
 349       -39.192626   -37.590783    0.001829  0.000417
 350       -39.192699   -37.636378    0.001768  0.000406
 351       -39.192770   -37.680898    0.001758  0.000396
 352       -39.192839   -37.724241    0.001682  0.000386
 353       -39.192906   -37.766538    0.001695  0.000377
 354       -39.192972   -37.807690    0.001586  0.000366
 355       -39.193036   -37.847825    0.001651  0.000357
 356       -39.193098   -37.886842    0.001542  0.000348
 357       -39.193159   -37.924829    0.001598  0.000338
 358       -39.193217   -37.961738    0.001464  0.000329
 359       -39.193275   -37.997591    0.001528  0.000319
 360       -39.193330   -38.032389    0.001362  0.000310
 361       -39.193384   -38.066143    0.001457  0.000300
 362       -39.193436   -38.098906    0.001240  0.000292
 363       -39.193487   -38.130663    0.001381  0.000283
 364       -39.193536   -38.161462    0.001121  0.000274
 365       -39.193583   -38.191250    0.001288  0.000265
 366       -39.193629   -38.220126    0.001038  0.000257
 367       -39.193674   -38.248005    0.001214  0.000249
 368       -39.193717   -38.274982    0.000962  0.000242
 369       -39.193758   -38.300913    0.001224  0.000238
 370       -39.193797   -38.325619    0.001075  0.000236
 371       -39.193834   -38.348878    0.001358  0.000248
 372       -39.193850   -38.358703    0.000888  0.000244
 373       -39.193867   -38.369419    0.000981  0.000212
 374       -39.193886   -38.381077    0.000842  0.000209
 375       -39.193904   -38.392466    0.000959  0.000204
 376       -39.193922   -38.403681    0.000832  0.000201
 377       -39.193939   -38.414688    0.000917  0.000197

Timings for individual modules:

Sum of individual times         ...      168.861 sec (=   2.814 min)
Geometry relaxation             ...        3.970 sec (=   0.066 min)   2.4 %
XTB module                      ...      164.891 sec (=   2.748 min)  97.6 %
                             ****ORCA TERMINATED NORMALLY****
TOTAL RUN TIME: 0 days 0 hours 5 minutes 24 seconds 57 msec
