
                                 *****************
                                 * O   R   C   A *
                                 *****************

           --- An Ab Initio, DFT and Semiempirical electronic structure package ---

                  #######################################################
                  #                        -***-                        #
                  #          Department of theory and spectroscopy      #
                  #               Directorship: Frank Neese             #
                  #        Max Planck Institute fuer Kohlenforschung    #
                  #                Kaiser Wilhelm Platz 1               #
                  #                 D-45470 Muelheim/Ruhr               #
                  #                      Germany                        #
                  #                                                     #
                  #                  All rights reserved                #
                  #                        -***-                        #
                  #######################################################


                         Program Version 4.2.1 -  RELEASE  -


 With contributions from (in alphabetic order):
   Daniel Aravena         : Magnetic Suceptibility
   Michael Atanasov       : Ab Initio Ligand Field Theory (pilot matlab implementation)
   Alexander A. Auer      : GIAO ZORA, VPT2
   Ute Becker             : Parallelization
   Giovanni Bistoni       : ED, misc. LED, open-shell LED, HFLD
   Martin Brehm           : Molecular dynamics
   Dmytro Bykov           : SCF Hessian
   Vijay G. Chilkuri      : MRCI spin determinant printing, contributions to CSF-ICE
   Dipayan Datta          : RHF DLPNO-CCSD density
   Achintya Kumar Dutta   : EOM-CC, STEOM-CC
   Dmitry Ganyushin       : Spin-Orbit,Spin-Spin,Magnetic field MRCI
   Miquel Garcia          : C-PCM Hessian, Gaussian charge scheme
   Yang Guo               : DLPNO-NEVPT2, CIM, IAO-localization
   Andreas Hansen         : Spin unrestricted coupled pair/coupled cluster methods
   Benjamin Helmich-Paris : CASSCF linear response (MC-RPA)
   Lee Huntington         : MR-EOM, pCC
   Robert Izsak           : Overlap fitted RIJCOSX, COSX-SCS-MP3, EOM
   Christian Kollmar      : KDIIS, OOCD, Brueckner-CCSD(T), CCSD density
   Simone Kossmann        : Meta GGA functionals, TD-DFT gradient, OOMP2, MP2 Hessian
   Martin Krupicka        : AUTO-CI
   Lucas Lang             : DCDCAS
   Dagmar Lenk            : GEPOL surface, SMD
   Dimitrios Liakos       : Extrapolation schemes; Compound Job, initial MDCI parallelization
   Dimitrios Manganas     : Further ROCIS development; embedding schemes
   Dimitrios Pantazis     : SARC Basis sets
   Taras Petrenko         : DFT Hessian,TD-DFT gradient, ASA, ECA, R-Raman, ABS, FL, XAS/XES, NRVS
   Peter Pinski           : DLPNO-MP2, DLPNO-MP2 Gradient
   Christoph Reimann      : Effective Core Potentials
   Marius Retegan         : Local ZFS, SOC
   Christoph Riplinger    : Optimizer, TS searches, QM/MM, DLPNO-CCSD(T), (RO)-DLPNO pert. Triples
   Tobias Risthaus        : Range-separated hybrids, TD-DFT gradient, RPA, STAB
   Michael Roemelt        : Original ROCIS implementation
   Masaaki Saitow         : Open-shell DLPNO-CCSD energy and density
   Barbara Sandhoefer     : DKH picture change effects
   Avijit Sen             : IP-ROCIS
   Kantharuban Sivalingam : CASSCF convergence, NEVPT2, FIC-MRCI
   Bernardo de Souza      : ESD, SOC TD-DFT
   Georgi Stoychev        : AutoAux, RI-MP2 NMR
   Willem Van den Heuvel  : Paramagnetic NMR
   Boris Wezisla          : Elementary symmetry handling
   Frank Wennmohs         : Technical directorship


 We gratefully acknowledge several colleagues who have allowed us to
 interface, adapt or use parts of their codes:
   Stefan Grimme, W. Hujo, H. Kruse,             : VdW corrections, initial TS optimization,
                  C. Bannwarth                     DFT functionals, gCP, sTDA/sTD-DF
   Ed Valeev, F. Pavosevic, A. Kumar             : LibInt (2-el integral package), F12 methods
   Garnet Chan, S. Sharma, J. Yang, R. Olivares  : DMRG
   Ulf Ekstrom                                   : XCFun DFT Library
   Mihaly Kallay                                 : mrcc  (arbitrary order and MRCC methods)
   Andreas Klamt, Michael Diedenhofen            : otool_cosmo (COSMO solvation model)
   Jiri Pittner, Ondrej Demel                    : Mk-CCSD
   Frank Weinhold                                : gennbo (NPA and NBO analysis)
   Christopher J. Cramer and Donald G. Truhlar   : smd solvation model
   Lars Goerigk                                  : TD-DFT with DH, B97 family of functionals
   V. Asgeirsson, H. Jonsson                     : NEB implementation
   FAccTs GmbH                                   : IRC, NEB, NEB-TS, Multilevel, MM, QM/MM, CI optimization
   S Lehtola, MJT Oliveira, MAL Marques          : LibXC Library


 Your calculation uses the libint2 library for the computation of 2-el integrals
 For citations please refer to: http://libint.valeyev.net

 Your ORCA version has been built with support for libXC version: 4.2.3
 For citations please refer to: https://tddft.org/programs/libxc/

 This ORCA versions uses:
   CBLAS   interface :  Fast vector & matrix operations
   LAPACKE interface :  Fast linear algebra routines
   SCALAPACK package :  Parallel linear algebra routines




***************************************
The coordinates will be read from file: init.xyz
***************************************


Your calculation utilizes the SMD solvation module
Please cite in your paper:
A.V. Marenich, C.J. Cramer, D.G. Truhlar J. Phys. Chem. B, 113, (2009), 6378 

Your calculation utilizes the semiempirical GFN2-xTB method
Please cite in your paper:
C. Bannwarth, Ehlert S., S. Grimme,  J. Chem. Theory Comput., 15, (2019), 1652.
   

----- Orbital basis set information -----
Your calculation utilizes the basis: def2-SVP
   F. Weigend and R. Ahlrichs, Phys. Chem. Chem. Phys. 7, 3297 (2005).

================================================================================
                                        WARNINGS
                       Please study these warnings very carefully!
================================================================================


WARNING: The environment variable RSH_COMMAND is not set!
  ===> : All Displacements for the Numerical Hessian calculation
         will be started on localhost

WARNING: Geometry Optimization
  ===> : Switching off AutoStart
         For restart on a previous wavefunction, please use MOREAD

WARNING: Found dipole moment calculation with XTB calculation
  ===> : Switching off dipole moment calculation


INFO   : the flag for use of LIBINT has been found!

================================================================================
                                       INPUT FILE
================================================================================
NAME = optts+freq.inp
|  1> ! XTB2 OptTS NumFreq IRC
|  2> 
|  3> %geom
|  4>  ts_mode
|  5>   {B 20 22}
|  6>  end
|  7>  ts_active_atoms
|  8>   {0 9 10 14 15 20 22}
|  9>  end
| 10>  calc_hess true
| 11>  numhess true
| 12> end
| 13> 
| 14> %irc
| 15>  maxiter 1000
| 16>  de_init_displ 0.25
| 17>  TolMAXG 1e-3
| 18>  TolRMSG 2e-4
| 19> end
| 20> 
| 21> %cpcm
| 22>  smd true
| 23>  smdsolvent "ch2cl2"
| 24> end
| 25> 
| 26> %pal
| 27>  nprocs 12
| 28> end
| 29> 
| 30> *xyzfile 0 1 init.xyz
| 31> 
| 32>                          ****END OF INPUT****
================================================================================

                       *****************************
                       * Geometry Optimization Run *
                       *****************************

Geometry optimization settings:
Update method            Update   .... Bofill
Choice of coordinates    CoordSys .... Z-matrix Internals
Initial Hessian          InHess   .... Almoef's Model

Convergence Tolerances:
Energy Change            TolE     ....  5.0000e-06 Eh
Max. Gradient            TolMAXG  ....  3.0000e-04 Eh/bohr
RMS Gradient             TolRMSG  ....  1.0000e-04 Eh/bohr
Max. Displacement        TolMAXD  ....  4.0000e-03 bohr
RMS Displacement         TolRMSD  ....  2.0000e-03 bohr
Strict Convergence                ....  False
------------------------------------------------------------------------------
                        ORCA OPTIMIZATION COORDINATE SETUP
------------------------------------------------------------------------------

The optimization will be done in new redundant internal coordinates
Making redundant internal coordinates   ...  (new redundants) done
Following TS mode number                ...    internal coordinate number: 34
TS-active-atoms for coordinate setup... 0 9 10 14 15 20 22 
Evaluating the initial hessian          ...  (Is done on the fly) done
Evaluating the coordinates              ...  done
Calculating the B-matrix                .... done
Calculating the G-matrix                .... done
Diagonalizing the G-matrix              .... done
Small eigenvalue found = 2.638e-03
Small eigenvalue found = 6.549e-03
Small eigenvalue found = 1.106e-02
Small eigenvalue found = 1.420e-02
Small eigenvalue found = 2.401e-02
The first mode is                       ....  137
The number of degrees of freedom        ....  132

    -----------------------------------------------------------------
                    Redundant Internal Coordinates


    -----------------------------------------------------------------
         Definition                    Initial Value    d2E/dq (diagonal element)
    -----------------------------------------------------------------
      1. B(C   1,C   0)                  1.3894         0.000000   
      2. B(C   2,C   1)                  1.3979         0.000000   
      3. B(C   2,C   0)                  2.4258         0.000000   
      4. B(C   3,C   2)                  1.3964         0.000000   
      5. B(C   3,C   0)                  2.7788         0.000000   
      6. B(C   4,C   3)                  1.3904         0.000000   
      7. B(C   4,C   0)                  2.4041         0.000000   
      8. B(C   5,C   0)                  1.3921         0.000000   
      9. B(C   5,C   4)                  1.3917         0.000000   
     10. B(H   6,C   1)                  1.0834         0.000000   
     11. B(H   7,C   3)                  1.0807         0.000000   
     12. B(H   8,C   5)                  1.0823         0.000000   
     13. B(N   9,C   2)                  2.4308         0.000000   
     14. B(N   9,C   3)                  2.8831         0.000000   
     15. B(C  11,N   9)                  1.4578         0.000000   
     16. B(H  12,C  11)                  1.1003         0.000000   
     17. B(H  13,C  11)                  1.0997         0.000000   
     18. B(H  14,N   9)                  1.4598         0.000000   
     19. B(N  15,N   9)                  2.5874         0.000000   
     20. B(N  15,H  14)                  1.1752         0.000000   
     21. B(N  15,H  10)                  1.0411         0.000000   
     22. B(C  17,N  15)                  1.4777         0.000000   
     23. B(C  17,H  10)                  2.1054         0.000000   
     24. B(H  18,C  17)                  1.0904         0.000000   
     25. B(H  19,C  17)                  1.0900         0.000000   
     26. B(C  20,C   1)                  2.4974         0.000000   
     27. B(C  20,N   9)                  1.3320         0.000000   
     28. B(C  20,C   2)                  1.4938         0.000000   
     29. B(C  20,C  11)                  2.3575         0.000000   
     30. B(C  20,C   3)                  2.5299         0.000000   
     31. B(H  21,C  20)                  1.0908         0.000000   
     32. B(O  22,C   2)                  2.5789         0.000000   
     33. B(O  22,H  10)                  1.7984         0.000000   
     34. B(O  22,C  20)                  1.8600         0.000000   
     35. B(O  22,N   9)                  2.5977         0.000000   
     36. B(O  22,H  16)                  0.9634         0.000000   
     37. B(O  22,N  15)                  2.6841         0.000000   
     38. B(H  23,N  15)                  1.0158         0.000000   
     39. B(C  24,N   9)                  2.4624         0.000000   
     40. B(C  24,C  11)                  1.5250         0.000000   
     41. B(H  25,C  24)                  1.0954         0.000000   
     42. B(H  26,C  24)                  1.0947         0.000000   
     43. B(C  27,N  15)                  2.4954         0.000000   
     44. B(C  27,C  17)                  1.5224         0.000000   
     45. B(H  28,C  27)                  1.0948         0.000000   
     46. B(H  29,C  27)                  1.0942         0.000000   
     47. B(H  30,C   0)                  1.0824         0.000000   
     48. B(H  31,C   4)                  1.0826         0.000000   
     49. B(C  32,C  24)                  1.5272         0.000000   
     50. B(H  33,C  32)                  1.0946         0.000000   
     51. B(H  34,C  32)                  1.0945         0.000000   
     52. B(C  35,C  27)                  1.5281         0.000000   
     53. B(H  36,C  35)                  1.0943         0.000000   
     54. B(H  37,C  35)                  1.0939         0.000000   
     55. B(C  38,C  35)                  1.5269         0.000000   
     56. B(H  39,C  38)                  1.0916         0.000000   
     57. B(H  40,C  38)                  1.0926         0.000000   
     58. B(H  41,C  38)                  1.0925         0.000000   
     59. B(C  42,C  32)                  1.5271         0.000000   
     60. B(H  43,C  42)                  1.0919         0.000000   
     61. B(H  44,C  42)                  1.0928         0.000000   
     62. B(H  45,C  42)                  1.0930         0.000000   
     63. A(C   1,C   0,H  30)          119.8367         0.000000   
     64. A(C   5,C   0,H  30)          120.1005         0.000000   
     65. A(C   1,C   0,C   5)          120.0626         0.000000   
     66. A(C   0,C   1,C   2)          120.9840         0.000000   
     67. A(C   2,C   1,H   6)          119.2568         0.000000   
     68. A(C   0,C   1,H   6)          119.7590         0.000000   
     69. A(C   1,C   2,C  20)          119.4162         0.000000   
     70. A(C   1,C   2,C   3)          118.4522         0.000000   
     71. A(C   3,C   2,C  20)          122.1305         0.000000   
     72. A(C   2,C   3,C   4)          120.6828         0.000000   
     73. A(C   4,C   3,H   7)          119.9054         0.000000   
     74. A(C   2,C   3,H   7)          119.3979         0.000000   
     75. A(C   3,C   4,H  31)          119.6824         0.000000   
     76. A(C   5,C   4,H  31)          119.9590         0.000000   
     77. A(C   3,C   4,C   5)          120.3550         0.000000   
     78. A(C   0,C   5,H   8)          120.2537         0.000000   
     79. A(C   0,C   5,C   4)          119.4479         0.000000   
     80. A(C   4,C   5,H   8)          120.2954         0.000000   
     81. A(C  11,N   9,C  20)          115.2831         0.000000   
     82. A(H  14,N   9,C  20)          104.6343         0.000000   
     83. A(C  11,N   9,H  14)          109.2980         0.000000   
     84. A(N  15,H  10,O  22)          140.4277         0.000000   
     85. A(H  12,C  11,C  24)          108.8448         0.000000   
     86. A(N   9,C  11,H  13)          110.5710         0.000000   
     87. A(N   9,C  11,H  12)          110.9043         0.000000   
     88. A(H  13,C  11,C  24)          109.2853         0.000000   
     89. A(H  12,C  11,H  13)          105.8076         0.000000   
     90. A(N   9,C  11,C  24)          111.2620         0.000000   
     91. A(N   9,H  14,N  15)          158.0668         0.000000   
     92. A(H  10,N  15,H  14)           95.7539         0.000000   
     93. A(H  14,N  15,C  17)          114.1206         0.000000   
     94. A(H  10,N  15,C  17)          112.2522         0.000000   
     95. A(C  17,N  15,H  23)          111.8122         0.000000   
     96. A(H  14,N  15,H  23)          111.9047         0.000000   
     97. A(H  10,N  15,H  23)          109.9785         0.000000   
     98. A(H  18,C  17,H  19)          107.5789         0.000000   
     99. A(N  15,C  17,C  27)          112.5523         0.000000   
    100. A(N  15,C  17,H  19)          107.0662         0.000000   
    101. A(H  19,C  17,C  27)          110.5380         0.000000   
    102. A(H  18,C  17,C  27)          110.7849         0.000000   
    103. A(N  15,C  17,H  18)          108.1150         0.000000   
    104. A(H  21,C  20,O  22)           94.1730         0.000000   
    105. A(N   9,C  20,O  22)          107.7940         0.000000   
    106. A(C   2,C  20,O  22)           99.9442         0.000000   
    107. A(N   9,C  20,H  21)          117.9622         0.000000   
    108. A(C   2,C  20,H  21)          113.1340         0.000000   
    109. A(C   2,C  20,N   9)          118.5664         0.000000   
    110. A(H  16,O  22,C  20)          106.1252         0.000000   
    111. A(H  10,O  22,C  20)           94.5231         0.000000   
    112. A(H  10,O  22,H  16)          120.7395         0.000000   
    113. A(H  26,C  24,C  32)          109.7828         0.000000   
    114. A(H  25,C  24,C  32)          109.3820         0.000000   
    115. A(C  11,C  24,C  32)          113.3569         0.000000   
    116. A(H  25,C  24,H  26)          106.2713         0.000000   
    117. A(C  11,C  24,H  26)          108.9018         0.000000   
    118. A(C  11,C  24,H  25)          108.8977         0.000000   
    119. A(H  29,C  27,C  35)          109.7073         0.000000   
    120. A(H  28,C  27,C  35)          109.5831         0.000000   
    121. A(C  17,C  27,C  35)          112.6293         0.000000   
    122. A(H  28,C  27,H  29)          106.7426         0.000000   
    123. A(C  17,C  27,H  29)          108.8655         0.000000   
    124. A(C  17,C  27,H  28)          109.1366         0.000000   
    125. A(H  33,C  32,H  34)          106.1896         0.000000   
    126. A(C  24,C  32,H  34)          109.2467         0.000000   
    127. A(C  24,C  32,H  33)          109.2376         0.000000   
    128. A(H  34,C  32,C  42)          109.4142         0.000000   
    129. A(H  33,C  32,C  42)          109.4435         0.000000   
    130. A(C  24,C  32,C  42)          113.0763         0.000000   
    131. A(C  27,C  35,C  38)          112.7933         0.000000   
    132. A(H  36,C  35,H  37)          106.3437         0.000000   
    133. A(C  27,C  35,H  37)          109.1765         0.000000   
    134. A(C  27,C  35,H  36)          109.2549         0.000000   
    135. A(H  37,C  35,C  38)          109.5377         0.000000   
    136. A(H  36,C  35,C  38)          109.5282         0.000000   
    137. A(H  40,C  38,H  41)          107.6361         0.000000   
    138. A(H  39,C  38,H  41)          107.7458         0.000000   
    139. A(C  35,C  38,H  41)          111.1179         0.000000   
    140. A(H  39,C  38,H  40)          107.7359         0.000000   
    141. A(C  35,C  38,H  40)          111.1229         0.000000   
    142. A(C  35,C  38,H  39)          111.3095         0.000000   
    143. A(H  44,C  42,H  45)          107.4961         0.000000   
    144. A(H  43,C  42,H  45)          107.6396         0.000000   
    145. A(C  32,C  42,H  45)          111.1364         0.000000   
    146. A(H  43,C  42,H  44)          107.6577         0.000000   
    147. A(C  32,C  42,H  44)          111.1318         0.000000   
    148. A(C  32,C  42,H  43)          111.5867         0.000000   
    149. D(C   2,C   1,C   0,C   5)     -0.0220         0.000000   
    150. D(C   2,C   1,C   0,H  30)    179.8097         0.000000   
    151. D(H   6,C   1,C   0,C   5)    179.8258         0.000000   
    152. D(H   6,C   1,C   0,H  30)     -0.3425         0.000000   
    153. D(C  20,C   2,C   1,C   0)    179.3416         0.000000   
    154. D(C   3,C   2,C   1,C   0)     -1.0277         0.000000   
    155. D(C   3,C   2,C   1,H   6)    179.1237         0.000000   
    156. D(C  20,C   2,C   1,H   6)     -0.5070         0.000000   
    157. D(H   7,C   3,C   2,C  20)      2.4385         0.000000   
    158. D(C   4,C   3,C   2,C  20)   -178.9217         0.000000   
    159. D(H   7,C   3,C   2,C   1)   -177.1816         0.000000   
    160. D(C   4,C   3,C   2,C   1)      1.4582         0.000000   
    161. D(C   5,C   4,C   3,H   7)    177.7863         0.000000   
    162. D(H  31,C   4,C   3,C   2)    179.8414         0.000000   
    163. D(C   5,C   4,C   3,C   2)     -0.8467         0.000000   
    164. D(H  31,C   4,C   3,H   7)     -1.5256         0.000000   
    165. D(H   8,C   5,C   4,H  31)     -0.2940         0.000000   
    166. D(C   0,C   5,C   4,H  31)    179.0813         0.000000   
    167. D(H   8,C   5,C   4,C   3)   -179.6039         0.000000   
    168. D(H   8,C   5,C   0,H  30)      0.2026         0.000000   
    169. D(C   4,C   5,C   0,H  30)   -179.1730         0.000000   
    170. D(C   0,C   5,C   4,C   3)     -0.2286         0.000000   
    171. D(C   4,C   5,C   0,C   1)      0.6583         0.000000   
    172. D(H   8,C   5,C   0,C   1)   -179.9661         0.000000   
    173. D(C  24,C  11,N   9,C  20)    167.3185         0.000000   
    174. D(H  13,C  11,N   9,H  14)    163.1595         0.000000   
    175. D(H  13,C  11,N   9,C  20)     45.6794         0.000000   
    176. D(H  12,C  11,N   9,H  14)     46.1070         0.000000   
    177. D(H  12,C  11,N   9,C  20)    -71.3731         0.000000   
    178. D(C  24,C  11,N   9,H  14)    -75.2014         0.000000   
    179. D(N  15,H  14,N   9,C  11)    -87.2250         0.000000   
    180. D(N  15,H  14,N   9,C  20)     36.7701         0.000000   
    181. D(H  23,N  15,H  14,N   9)   -127.7517         0.000000   
    182. D(C  17,N  15,H  14,N   9)    104.0176         0.000000   
    183. D(H  10,N  15,H  14,N   9)    -13.5070         0.000000   
    184. D(H  23,N  15,H  10,O  22)    127.7370         0.000000   
    185. D(C  17,N  15,H  10,O  22)   -107.0990         0.000000   
    186. D(H  14,N  15,H  10,O  22)     11.9139         0.000000   
    187. D(C  27,C  17,N  15,H  14)   -171.0223         0.000000   
    188. D(C  27,C  17,N  15,H  10)    -63.4512         0.000000   
    189. D(H  19,C  17,N  15,H  23)   -177.6407         0.000000   
    190. D(H  19,C  17,N  15,H  14)    -49.3630         0.000000   
    191. D(H  18,C  17,N  15,H  23)    -61.9930         0.000000   
    192. D(H  19,C  17,N  15,H  10)     58.2080         0.000000   
    193. D(H  18,C  17,N  15,H  14)     66.2847         0.000000   
    194. D(C  27,C  17,N  15,H  23)     60.7001         0.000000   
    195. D(H  18,C  17,N  15,H  10)    173.8557         0.000000   
    196. D(O  22,C  20,N   9,C  11)     78.5305         0.000000   
    197. D(H  21,C  20,N   9,H  14)   -146.4279         0.000000   
    198. D(H  21,C  20,N   9,C  11)    -26.3561         0.000000   
    199. D(C   2,C  20,N   9,H  14)     70.8697         0.000000   
    200. D(C   2,C  20,N   9,C  11)   -169.0586         0.000000   
    201. D(O  22,C  20,C   2,C   3)    105.1723         0.000000   
    202. D(O  22,C  20,C   2,C   1)    -75.2112         0.000000   
    203. D(H  21,C  20,C   2,C   1)     23.7198         0.000000   
    204. D(N   9,C  20,C   2,C   3)    -11.4892         0.000000   
    205. D(N   9,C  20,C   2,C   1)    168.1274         0.000000   
    206. D(O  22,C  20,N   9,H  14)    -41.5413         0.000000   
    207. D(H  21,C  20,C   2,C   3)   -155.8968         0.000000   
    208. D(H  16,O  22,C  20,N   9)    165.1092         0.000000   
    209. D(H  16,O  22,C  20,C   2)     40.6284         0.000000   
    210. D(C  20,O  22,H  10,N  15)    -29.1343         0.000000   
    211. D(H  16,O  22,H  10,N  15)   -140.9234         0.000000   
    212. D(H  10,O  22,C  20,H  21)    162.4310         0.000000   
    213. D(H  10,O  22,C  20,N   9)     41.2881         0.000000   
    214. D(H  10,O  22,C  20,C   2)    -83.1927         0.000000   
    215. D(H  16,O  22,C  20,H  21)    -73.7480         0.000000   
    216. D(C  32,C  24,C  11,H  13)    -59.3716         0.000000   
    217. D(C  32,C  24,C  11,N   9)    178.2436         0.000000   
    218. D(H  26,C  24,C  11,H  13)     63.1454         0.000000   
    219. D(H  26,C  24,C  11,H  12)    178.2563         0.000000   
    220. D(H  26,C  24,C  11,N   9)    -59.2394         0.000000   
    221. D(H  25,C  24,C  11,H  13)    178.6285         0.000000   
    222. D(C  32,C  24,C  11,H  12)     55.7393         0.000000   
    223. D(H  25,C  24,C  11,H  12)    -66.2605         0.000000   
    224. D(H  25,C  24,C  11,N   9)     56.2438         0.000000   
    225. D(C  35,C  27,C  17,H  19)     60.1702         0.000000   
    226. D(C  35,C  27,C  17,H  18)    -58.9845         0.000000   
    227. D(C  35,C  27,C  17,N  15)    179.8352         0.000000   
    228. D(H  29,C  27,C  17,H  19)    -61.7356         0.000000   
    229. D(H  29,C  27,C  17,H  18)    179.1097         0.000000   
    230. D(H  29,C  27,C  17,N  15)     57.9294         0.000000   
    231. D(H  28,C  27,C  17,H  19)   -177.8906         0.000000   
    232. D(H  28,C  27,C  17,H  18)     62.9547         0.000000   
    233. D(H  28,C  27,C  17,N  15)    -58.2256         0.000000   
    234. D(C  42,C  32,C  24,H  26)     58.1382         0.000000   
    235. D(C  42,C  32,C  24,H  25)    -58.1052         0.000000   
    236. D(C  42,C  32,C  24,C  11)   -179.8346         0.000000   
    237. D(H  34,C  32,C  24,H  26)    -63.9653         0.000000   
    238. D(H  34,C  32,C  24,H  25)    179.7914         0.000000   
    239. D(H  34,C  32,C  24,C  11)     58.0619         0.000000   
    240. D(H  33,C  32,C  24,H  26)   -179.7273         0.000000   
    241. D(H  33,C  32,C  24,H  25)     64.0293         0.000000   
    242. D(H  33,C  32,C  24,C  11)    -57.7001         0.000000   
    243. D(C  38,C  35,C  27,H  28)     58.3940         0.000000   
    244. D(C  38,C  35,C  27,C  17)   -179.9197         0.000000   
    245. D(H  37,C  35,C  27,H  29)     63.5282         0.000000   
    246. D(H  37,C  35,C  27,H  28)   -179.5863         0.000000   
    247. D(H  37,C  35,C  27,C  17)    -57.9000         0.000000   
    248. D(H  36,C  35,C  27,H  29)    179.4450         0.000000   
    249. D(H  36,C  35,C  27,H  28)    -63.6694         0.000000   
    250. D(C  38,C  35,C  27,H  29)    -58.4915         0.000000   
    251. D(H  36,C  35,C  27,C  17)     58.0168         0.000000   
    252. D(H  41,C  38,C  35,H  37)    -61.6926         0.000000   
    253. D(H  41,C  38,C  35,C  27)     60.1234         0.000000   
    254. D(H  40,C  38,C  35,H  37)    178.4801         0.000000   
    255. D(H  40,C  38,C  35,H  36)     62.2055         0.000000   
    256. D(H  40,C  38,C  35,C  27)    -59.7039         0.000000   
    257. D(H  39,C  38,C  35,H  37)     58.3983         0.000000   
    258. D(H  41,C  38,C  35,H  36)   -177.9672         0.000000   
    259. D(H  39,C  38,C  35,H  36)    -57.8763         0.000000   
    260. D(H  39,C  38,C  35,C  27)   -179.7857         0.000000   
    261. D(H  45,C  42,C  32,H  34)   -177.9043         0.000000   
    262. D(H  45,C  42,C  32,H  33)    -61.9331         0.000000   
    263. D(H  45,C  42,C  32,C  24)     60.0860         0.000000   
    264. D(H  44,C  42,C  32,H  34)     62.4269         0.000000   
    265. D(H  44,C  42,C  32,H  33)    178.3981         0.000000   
    266. D(H  44,C  42,C  32,C  24)    -59.5827         0.000000   
    267. D(H  43,C  42,C  32,H  34)    -57.7486         0.000000   
    268. D(H  43,C  42,C  32,H  33)     58.2226         0.000000   
    269. D(H  43,C  42,C  32,C  24)   -179.7582         0.000000   
    -----------------------------------------------------------------

Number of atoms                         .... 46
Number of degrees of freedom            .... 269

         *************************************************************
         *                GEOMETRY OPTIMIZATION CYCLE   1            *
         *************************************************************
      -----------------------------------------------------------      
     |                   =====================                   |     
     |                           x T B                           |     
     |                   =====================                   |     
     |                         S. Grimme                         |     
     |          Mulliken Center for Theoretical Chemistry        |     
     |                    University of Bonn                     |     
      -----------------------------------------------------------      

   * xtb version 6.3.0 (49875a8) compiled by 'schneider@apollo14' on 2020-05-23

   xtb is free software: you can redistribute it and/or modify it under
   the terms of the GNU Lesser General Public License as published by
   the Free Software Foundation, either version 3 of the License, or
   (at your option) any later version.
   
   xtb is distributed in the hope that it will be useful,
   but WITHOUT ANY WARRANTY; without even the implied warranty of
   MERCHANTABILITY or FITNESS FOR A PARTICULAR PURPOSE.  See the
   GNU Lesser General Public License for more details.
   
   Cite this work as:
   * S. Grimme, C. Bannwarth, P. Shushkov, J. Chem. Theory Comput., 2017,
     13, 1989-2009. DOI: 10.1021/acs.jctc.7b00118
   * C. Bannwarth, S. Ehlert and S. Grimme., J. Chem. Theory Comput., 2019,
     15, 1652-1671. DOI: 10.1021/acs.jctc.8b01176
   * P. Pracht, E. Caldeweyher, S. Ehlert, S. Grimme, ChemRxiv, 2019, preprint.
     DOI: 10.26434/chemrxiv.8326202.v1
   
   for GFN-FF:
   * S. Spicher and S. Grimme, Angew. Chem. Int. Ed., 2020,
     DOI: 10.1002/anie.202004239
   
   for DFT-D4:
   * E. Caldeweyher, C. Bannwarth and S. Grimme, J. Chem. Phys., 2017,
     147, 034112. DOI: 10.1063/1.4993215
   * E. Caldeweyher, S. Ehlert, A. Hansen, H. Neugebauer, S. Spicher,
     C. Bannwarth and S. Grimme, J. Chem. Phys., 2019, 150, 154122.
     DOI: 10.1063/1.5090222
   
   for sTDA-xTB:
   * S. Grimme and C. Bannwarth, J. Chem. Phys., 2016, 145, 054103.
     DOI: 10.1063/1.4959605
   
   in the mass-spec context:
   * V. Asgeirsson, C. Bauer and S. Grimme, Chem. Sci., 2017, 8, 4879.
     DOI: 10.1039/c7sc00601b
   * J. Koopman and S. Grimme, ACS Omega 2019, 4, 12, 15120-15133.
     DOI: 10.1021/acsomega.9b02011
   
   for metadynamics refer to:
   * S. Grimme, J. Chem. Theory Comput., 2019, 155, 2847-2862
     DOI: 10.1021/acs.jctc.9b00143
   
   with help from (in alphabetical order)
   C. Bannwarth, F. Bohle, G. Brandenburg, E. Caldeweyher, M. Checinski,
   S. Dohm, S. Ehlert, S. Ehrlich, F. März, H. Neugebauer, J. Pisarek,
   P. Pracht, P. Shushkov, and S. Spicher.
   
 * started run on 2020/06/20 at 07:53:26.584     

           -------------------------------------------------
          |                Calculation Setup                |
           -------------------------------------------------

          program call               : /opt/orca/otool_xtb optts+freq_XTB.xyz --grad -c 0 -u 0 -P 12 --namespace optts+freq --gbsa CH2Cl2
          calculation namespace      : optts+freq
          coordinate file            : optts+freq_XTB.xyz
          number of atoms            :                    46
          number of electrons        :                   104
          charge                     :                     0
          spin                       :                   0.0
          first test random number   :      0.46498418634945

   ID    Z sym.   atoms
    1    6 C      1-6, 12, 18, 21, 25, 28, 33, 36, 39, 43
    2    1 H      7-9, 11, 13-15, 17, 19, 20, 22, 24, 26, 27, 29-32, 34, 35,
                  37, 38, 40-42, 44-46
    3    7 N      10, 16
    4    8 O      23

molecular fragmentation (1/2 indicates fragments):
1111111111211122222211221112221111122222221111
# atoms in fragment 1/2:    27    19
 fragment masses (1/2) :      161.24       91.15
CMA distance (Bohr)    :   8.553
constraining FC (au)   :  0.0500
########################################################################
[WARNING] Please study the warnings concerning your input carefully
-1- prog_main_parseArguments: Process number higher than OMP_NUM_THREADS, I hope you know what you are doing.
########################################################################
 Solvent             : CH2Cl2
 Using internal parameter file: .param_gbsa2_CH2Cl2
 Gsolv ref. state (COSMO-RS): gsolv [1 M gas/solution]
 temperature (mdtemp)       :    298.14999999999998     
 dielectric constant        :    8.9299999999999997     
 rho                        :    1.3300000000000003     
 mass                       :    84.930000000000007     
 surface tension            :    15.568945408385856     
 probe radius               :   0.71987590000000001     
 Gshift (Eh)                :    4.4408291734517593E-003
 c1                         :    1.4917377599999999     
 soset                      :    0.0000000000000000     
 HB correction              :  F

           -------------------------------------------------
          |                 G F N 2 - x T B                 |
           -------------------------------------------------

        Reference                      10.1021/acs.jctc.8b01176
      * Hamiltonian:
        H0-scaling (s, p, d)           1.850000    2.230000    2.230000
        zeta-weighting                 0.500000
      * Dispersion:
        s8                             2.700000
        a1                             0.520000
        a2                             5.000000
        s9                             5.000000
      * Repulsion:
        kExp                           1.500000    1.000000
        rExp                           1.000000
      * Coulomb:
        alpha                          2.000000
        third order                    shell-resolved
        anisotropic                    true
        a3                             3.000000
        a5                             4.000000
        cn-shift                       1.200000
        cn-exp                         4.000000
        max-rad                        5.000000


          ...................................................
          :                      SETUP                      :
          :.................................................:
          :  # basis functions                 100          :
          :  # atomic orbitals                 100          :
          :  # shells                           64          :
          :  # electrons                       104          :
          :  max. iterations                   250          :
          :  Hamiltonian                  GFN2-xTB          :
          :  restarted?                      false          :
          :  GBSA solvation                   true          :
          :  PC potential                    false          :
          :  electronic temp.          300.0000000     K    :
          :  accuracy                    1.0000000          :
          :  -> integral cutoff          0.2500000E+02      :
          :  -> integral neglect         0.1000000E-07      :
          :  -> SCF convergence          0.1000000E-05 Eh   :
          :  -> wf. convergence          0.1000000E-03 e    :
          :  Broyden damping             0.4000000          :
          ...................................................

 iter      E             dE          RMSdq      gap      omega  full diag
   1    -56.9135177 -0.569135E+02  0.364E+00    3.18       0.0  T
   2    -57.0310436 -0.117526E+00  0.199E+00    3.00       1.0  T
   3    -57.0320972 -0.105361E-02  0.856E-01    2.75       1.0  T
   4    -57.0316619  0.435307E-03  0.329E-01    2.86       1.0  T
   5    -57.0362980 -0.463610E-02  0.703E-02    2.84       1.0  T
   6    -57.0363130 -0.149979E-04  0.345E-02    2.85       1.0  T
   7    -57.0363198 -0.683037E-05  0.138E-02    2.85       1.1  T
   8    -57.0363229 -0.307939E-05  0.446E-03    2.85       3.3  T
   9    -57.0363230 -0.143554E-06  0.243E-03    2.85       6.1  T
  10    -57.0363230 -0.237587E-07  0.704E-04    2.85      20.9  T
  11    -57.0363231 -0.691735E-08  0.331E-04    2.85      44.6  T

   *** convergence criteria satisfied after 11 iterations ***

         #    Occupation            Energy/Eh            Energy/eV
      -------------------------------------------------------------
         1        2.0000           -0.6783514             -18.4589
       ...           ...                  ...                  ...
        46        2.0000           -0.4212039             -11.4615
        47        2.0000           -0.4204723             -11.4416
        48        2.0000           -0.4079566             -11.1011
        49        2.0000           -0.3984089             -10.8413
        50        2.0000           -0.3917529             -10.6601
        51        2.0000           -0.3700909             -10.0707
        52        2.0000           -0.3462761              -9.4227 (HOMO)
        53                         -0.2417017              -6.5770 (LUMO)
        54                         -0.2286632              -6.2222
        55                         -0.1604219              -4.3653
        56                         -0.0863990              -2.3510
        57                         -0.0478956              -1.3033
       ...                                ...                  ...
       100                          0.6430217              17.4975
      -------------------------------------------------------------
                  HL-Gap            0.1045745 Eh            2.8456 eV
             Fermi-level           -0.2939889 Eh           -7.9998 eV

 SCC (total)                   0 d,  0 h,  0 min,  0.245 sec
 SCC setup                      ...        0 min,  0.004 sec (  1.573%)
 Dispersion                     ...        0 min,  0.001 sec (  0.460%)
 classical contributions        ...        0 min,  0.001 sec (  0.384%)
 integral evaluation            ...        0 min,  0.032 sec ( 13.234%)
 iterations                     ...        0 min,  0.153 sec ( 62.623%)
 molecular gradient             ...        0 min,  0.052 sec ( 21.417%)
 printout                       ...        0 min,  0.001 sec (  0.299%)

         :::::::::::::::::::::::::::::::::::::::::::::::::::::
         ::                     SUMMARY                     ::
         :::::::::::::::::::::::::::::::::::::::::::::::::::::
         :: total energy             -56.260483452131 Eh    ::
         :: total w/o Gsasa/hb       -56.237377109699 Eh    ::
         :: gradient norm              0.039090350872 Eh/a0 ::
         :: HOMO-LUMO gap              2.845616334561 eV    ::
         ::.................................................::
         :: SCC energy               -57.059429399283 Eh    ::
         :: -> isotropic ES            0.104710967371 Eh    ::
         :: -> anisotropic ES         -0.003566982250 Eh    ::
         :: -> anisotropic XC          0.034727008534 Eh    ::
         :: -> dispersion             -0.037890885242 Eh    ::
         :: -> Gsolv                  -0.038901296516 Eh    ::
         ::    -> Gborn               -0.015794954084 Eh    ::
         ::    -> Gsasa               -0.027547171605 Eh    ::
         ::    -> Ghb                  0.000000000000 Eh    ::
         ::    -> Gshift               0.004440829173 Eh    ::
         :: repulsion energy           0.798743911222 Eh    ::
         :: add. restraining           0.000000000000 Eh    ::
         :::::::::::::::::::::::::::::::::::::::::::::::::::::

           -------------------------------------------------
          |                Property Printout                |
           -------------------------------------------------

    * Orbital Energies and Occupations

         #    Occupation            Energy/Eh            Energy/eV
      -------------------------------------------------------------
         1        2.0000           -0.6783514             -18.4589
       ...           ...                  ...                  ...
        40        2.0000           -0.4429034             -12.0520
        41        2.0000           -0.4419237             -12.0254
        42        2.0000           -0.4399982             -11.9730
        43        2.0000           -0.4341213             -11.8130
        44        2.0000           -0.4294557             -11.6861
        45        2.0000           -0.4266091             -11.6086
        46        2.0000           -0.4212039             -11.4615
        47        2.0000           -0.4204723             -11.4416
        48        2.0000           -0.4079566             -11.1011
        49        2.0000           -0.3984089             -10.8413
        50        2.0000           -0.3917529             -10.6601
        51        2.0000           -0.3700909             -10.0707
        52        2.0000           -0.3462761              -9.4227 (HOMO)
        53                         -0.2417017              -6.5770 (LUMO)
        54                         -0.2286632              -6.2222
        55                         -0.1604219              -4.3653
        56                         -0.0863990              -2.3510
        57                         -0.0478956              -1.3033
        58                          0.0344659               0.9379
        59                          0.0549800               1.4961
        60                          0.0821247               2.2347
        61                          0.0909763               2.4756
        62                          0.0994370               2.7058
        63                          0.1056398               2.8746
       ...                                ...                  ...
       100                          0.6430217              17.4975
      -------------------------------------------------------------
                  HL-Gap            0.1045745 Eh            2.8456 eV
             Fermi-level           -0.2939889 Eh           -7.9998 eV

     #   Z        covCN         q      C6AA      α(0)
     1   6 C      2.913    -0.032    28.804     8.801
     2   6 C      2.921    -0.036    28.897     8.815
     3   6 C      2.966     0.002    27.986     8.677
     4   6 C      2.919    -0.043    29.057     8.840
     5   6 C      2.914    -0.032    28.807     8.801
     6   6 C      2.914    -0.033    28.817     8.803
     7   1 H      0.925     0.023     2.692     2.566
     8   1 H      0.926     0.043     2.412     2.428
     9   1 H      0.925     0.041     2.436     2.441
    10   7 N      2.041    -0.392    31.021     8.262
    11   1 H      0.858     0.251     0.880     1.470
    12   6 C      3.759     0.031    20.096     6.391
    13   1 H      0.923    -0.000     3.062     2.736
    14   1 H      0.923    -0.008     3.192     2.794
    15   1 H      1.026     0.268     0.807     1.403
    16   7 N      3.433    -0.221    25.811     7.546
    17   1 H      0.805     0.216     1.039     1.601
    18   6 C      3.732    -0.008    20.819     6.513
    19   1 H      0.924     0.074     2.045     2.236
    20   1 H      0.925     0.070     2.087     2.259
    21   6 C      3.235     0.141    24.138     7.972
    22   1 H      0.924    -0.007     3.184     2.790
    23   8 O      1.194    -0.712    28.744     7.200
    24   1 H      0.860     0.210     1.056     1.610
    25   6 C      3.802    -0.068    21.795     6.647
    26   1 H      0.924     0.035     2.511     2.478
    27   1 H      0.924     0.035     2.516     2.481
    28   6 C      3.801    -0.072    21.878     6.659
    29   1 H      0.924     0.052     2.293     2.368
    30   1 H      0.924     0.047     2.360     2.403
    31   1 H      0.925     0.036     2.501     2.473
    32   1 H      0.925     0.044     2.396     2.421
    33   6 C      3.799    -0.052    21.514     6.604
    34   1 H      0.924     0.028     2.610     2.526
    35   1 H      0.924     0.026     2.651     2.546
    36   6 C      3.800    -0.056    21.589     6.615
    37   1 H      0.924     0.043     2.411     2.428
    38   1 H      0.924     0.038     2.473     2.459
    39   6 C      3.750    -0.106    22.587     6.778
    40   1 H      0.924     0.040     2.446     2.446
    41   1 H      0.924     0.040     2.447     2.446
    42   1 H      0.924     0.037     2.489     2.467
    43   6 C      3.749    -0.103    22.534     6.770
    44   1 H      0.924     0.037     2.495     2.470
    45   1 H      0.924     0.035     2.513     2.479
    46   1 H      0.924     0.038     2.473     2.459

 Mol. C6AA /au·bohr⁶  :      17427.485572
 Mol. C8AA /au·bohr⁸  :     382307.968366
 Mol. α(0) /au        :        202.379320


Wiberg/Mayer (AO) data.
largest (>0.10) Wiberg bond orders for each atom
          total WBO             WBO to atom ...
     1  C   3.991        C    2 1.451    C    6 1.434    H   31 0.971    C    4 0.108
     2  C   3.992        C    1 1.451    C    3 1.397    H    7 0.969    C    5 0.109
     3  C   3.987        C    4 1.398    C    2 1.397    C   21 1.026    C    6 0.107
     4  C   3.991        C    5 1.450    C    3 1.398    H    8 0.966    C    1 0.108
     5  C   3.991        C    4 1.450    C    6 1.435    H   32 0.970    C    2 0.109
     6  C   3.990        C    5 1.435    C    1 1.434    H    9 0.971    C    3 0.107
     7  H   0.999        C    2 0.969
     8  H   0.998        C    4 0.966
     9  H   0.998        C    6 0.971
    10  N   3.060        C   21 1.406    C   12 1.013    H   15 0.288    O   23 0.151    N   16 0.100
    11  H   0.937        N   16 0.857
    12  C   3.990        N   10 1.013    C   25 1.004    H   14 0.967    H   13 0.964
    13  H   1.000        C   12 0.964
    14  H   1.000        C   12 0.967
    15  H   0.928        N   16 0.605    N   10 0.288
    16  N   3.564        C   18 0.976    H   24 0.939    H   11 0.857    H   15 0.605    N   10 0.100
    17  H   0.953        O   23 0.943
    18  C   3.946        C   28 1.006    N   16 0.976    H   19 0.971    H   20 0.971
    19  H   0.994        C   18 0.971
    20  H   0.995        C   18 0.971
    21  C   3.956        N   10 1.406    C    3 1.026    H   22 0.952    O   23 0.494
    22  H   1.000        C   21 0.952
    23  O   1.755        H   17 0.943    C   21 0.494    N   10 0.151
    24  H   0.956        N   16 0.939
    25  C   3.996        C   33 1.008    C   12 1.004    H   27 0.977    H   26 0.976
    26  H   0.999        C   25 0.976
    27  H   0.999        C   25 0.977
    28  C   3.991        C   18 1.006    C   36 1.005    H   30 0.975    H   29 0.974
    29  H   0.997        C   28 0.974
    30  H   0.998        C   28 0.975
    31  H   0.998        C    1 0.971
    32  H   0.998        C    5 0.970
    33  C   3.997        C   43 1.019    C   25 1.008    H   35 0.978    H   34 0.978
    34  H   0.999        C   33 0.978
    35  H   0.999        C   33 0.978
    36  C   3.995        C   39 1.020    C   28 1.005    H   38 0.978    H   37 0.977
    37  H   0.998        C   36 0.977
    38  H   0.999        C   36 0.978
    39  C   3.995        C   36 1.020    H   42 0.988    H   41 0.987    H   40 0.987
    40  H   0.998        C   39 0.987
    41  H   0.998        C   39 0.987
    42  H   0.999        C   39 0.988
    43  C   3.996        C   33 1.019    H   45 0.988    H   46 0.988    H   44 0.987
    44  H   0.998        C   43 0.987
    45  H   0.999        C   43 0.988
    46  H   0.999        C   43 0.988
Topologies differ in total number of bonds
Writing topology from bond orders to xtbtopo.mol

molecular dipole:
                 x           y           z       tot (Debye)
 q only:       -0.186      -2.137      -2.060
   full:        0.094      -1.942      -1.396       6.083
molecular quadrupole (traceless):
                xx          xy          yy          xz          yz          zz
 q only:        2.848      12.174       7.376       7.887       8.194     -10.223
  q+dip:        1.327       9.410       3.888       5.668      11.358      -5.216
   full:        0.961       9.470       6.257       6.161       9.637      -7.218


           -------------------------------------------------
          | TOTAL ENERGY              -56.260483452131 Eh   |
          | GRADIENT NORM               0.039090350872 Eh/α |
          | HOMO-LUMO GAP               2.845616334561 eV   |
           -------------------------------------------------

------------------------------------------------------------------------
 * finished run on 2020/06/20 at 07:53:26.952     
------------------------------------------------------------------------
 total:
 * wall-time:     0 d,  0 h,  0 min,  0.367 sec
 *  cpu-time:     0 d,  0 h,  0 min,  3.879 sec
 * ratio c/w:    10.559 speedup
 SCF:
 * wall-time:     0 d,  0 h,  0 min,  0.245 sec
 *  cpu-time:     0 d,  0 h,  0 min,  2.650 sec
 * ratio c/w:    10.809 speedup


-------------------------   --------------------
FINAL SINGLE POINT ENERGY       -56.260483452130
-------------------------   --------------------


----------------------------------------------------------------------------
                           ORCA NUMERICAL FREQUENCIES
                              (12-process run)
----------------------------------------------------------------------------

Number of atoms                ... 46
Central differences            ... used
Number of displacements        ... 276
Numerical increment            ... 5.000e-03 bohr
IR-spectrum generation         ... on
Raman-spectrum generation      ... off
Surface Crossing Hessian       ... off
List of participating nodes    ...  optts+freq.hostnames

The output will be reduced. Please look at the following files:
SCF program output             ... >optts+freq.lastscf
Integral program output        ... >optts+freq.lastint
Gradient program output        ... >optts+freq.lastgrad
Dipole moment program output   ... >optts+freq.lastmom
AutoCI program output          ... >optts+freq.lastautoci


         <<< Energy and Gradient at the input geometry >>>

        <<< Energy and Gradient at displaced geometries >>>
             <<<Displacing   1/coordinate 2 (+)>>>
             <<<Displacing   3/coordinate 2 (+)>>>
             <<<Displacing   3/coordinate 3 (+)>>>
             <<<Displacing   2/coordinate 2 (+)>>>
             <<<Displacing   4/coordinate 2 (+)>>>
             <<<Displacing   4/coordinate 3 (+)>>>
             <<<Displacing   2/coordinate 3 (+)>>>
             <<<Displacing   2/coordinate 1 (+)>>>
             <<<Displacing   1/coordinate 1 (+)>>>
             <<<Displacing   3/coordinate 1 (+)>>>
             <<<Displacing   1/coordinate 3 (+)>>>
             <<<Displacing   4/coordinate 1 (+)>>>
             <<<Displacing   3/coordinate 1 (-)>>>
             <<<Displacing   3/coordinate 3 (-)>>>
             <<<Displacing   4/coordinate 1 (-)>>>
             <<<Displacing   4/coordinate 2 (-)>>>
             <<<Displacing   2/coordinate 1 (-)>>>
             <<<Displacing   2/coordinate 3 (-)>>>
             <<<Displacing   1/coordinate 1 (-)>>>
             <<<Displacing   2/coordinate 2 (-)>>>
             <<<Displacing   3/coordinate 2 (-)>>>
             <<<Displacing   4/coordinate 3 (-)>>>
             <<<Displacing   1/coordinate 3 (-)>>>
             <<<Displacing   1/coordinate 2 (-)>>>
             <<<Displacing   5/coordinate 1 (+)>>>
             <<<Displacing   5/coordinate 2 (+)>>>
             <<<Displacing   7/coordinate 1 (+)>>>
             <<<Displacing   8/coordinate 1 (+)>>>
             <<<Displacing   5/coordinate 3 (+)>>>
             <<<Displacing   6/coordinate 1 (+)>>>
             <<<Displacing   6/coordinate 2 (+)>>>
             <<<Displacing   6/coordinate 3 (+)>>>
             <<<Displacing   7/coordinate 2 (+)>>>
             <<<Displacing   5/coordinate 1 (-)>>>
             <<<Displacing   5/coordinate 2 (-)>>>
             <<<Displacing   7/coordinate 3 (+)>>>
             <<<Displacing   5/coordinate 3 (-)>>>
             <<<Displacing   8/coordinate 1 (-)>>>
             <<<Displacing   7/coordinate 1 (-)>>>
             <<<Displacing   6/coordinate 1 (-)>>>
             <<<Displacing   8/coordinate 2 (+)>>>
             <<<Displacing   7/coordinate 2 (-)>>>
             <<<Displacing   6/coordinate 3 (-)>>>
             <<<Displacing   6/coordinate 2 (-)>>>
             <<<Displacing   8/coordinate 3 (+)>>>
             <<<Displacing   7/coordinate 3 (-)>>>
             <<<Displacing   8/coordinate 2 (-)>>>
             <<<Displacing   8/coordinate 3 (-)>>>
             <<<Displacing   9/coordinate 1 (+)>>>
             <<<Displacing   9/coordinate 2 (+)>>>
             <<<Displacing  10/coordinate 3 (+)>>>
             <<<Displacing   9/coordinate 3 (+)>>>
             <<<Displacing  10/coordinate 2 (+)>>>
             <<<Displacing  11/coordinate 1 (+)>>>
             <<<Displacing   9/coordinate 1 (-)>>>
             <<<Displacing   9/coordinate 2 (-)>>>
             <<<Displacing  10/coordinate 1 (+)>>>
             <<<Displacing  10/coordinate 3 (-)>>>
             <<<Displacing   9/coordinate 3 (-)>>>
             <<<Displacing  11/coordinate 1 (-)>>>
             <<<Displacing  10/coordinate 2 (-)>>>
             <<<Displacing  11/coordinate 3 (+)>>>
             <<<Displacing  11/coordinate 2 (+)>>>
             <<<Displacing  10/coordinate 1 (-)>>>
             <<<Displacing  11/coordinate 2 (-)>>>
             <<<Displacing  11/coordinate 3 (-)>>>
             <<<Displacing  12/coordinate 2 (+)>>>
             <<<Displacing  12/coordinate 1 (+)>>>
             <<<Displacing  12/coordinate 1 (-)>>>
             <<<Displacing  12/coordinate 3 (+)>>>
             <<<Displacing  12/coordinate 2 (-)>>>
             <<<Displacing  12/coordinate 3 (-)>>>
             <<<Displacing  13/coordinate 1 (+)>>>
             <<<Displacing  14/coordinate 1 (+)>>>
             <<<Displacing  13/coordinate 2 (+)>>>
             <<<Displacing  13/coordinate 3 (+)>>>
             <<<Displacing  14/coordinate 2 (+)>>>
             <<<Displacing  13/coordinate 1 (-)>>>
             <<<Displacing  13/coordinate 3 (-)>>>
             <<<Displacing  14/coordinate 1 (-)>>>
             <<<Displacing  13/coordinate 2 (-)>>>
             <<<Displacing  14/coordinate 3 (+)>>>
             <<<Displacing  15/coordinate 3 (+)>>>
             <<<Displacing  14/coordinate 2 (-)>>>
             <<<Displacing  15/coordinate 1 (+)>>>
             <<<Displacing  15/coordinate 2 (+)>>>
             <<<Displacing  14/coordinate 3 (-)>>>
             <<<Displacing  15/coordinate 3 (-)>>>
             <<<Displacing  16/coordinate 1 (+)>>>
             <<<Displacing  15/coordinate 1 (-)>>>
             <<<Displacing  16/coordinate 1 (-)>>>
             <<<Displacing  15/coordinate 2 (-)>>>
             <<<Displacing  16/coordinate 2 (+)>>>
             <<<Displacing  16/coordinate 3 (+)>>>
             <<<Displacing  16/coordinate 2 (-)>>>
             <<<Displacing  16/coordinate 3 (-)>>>
             <<<Displacing  17/coordinate 1 (+)>>>
             <<<Displacing  17/coordinate 2 (+)>>>
             <<<Displacing  17/coordinate 3 (+)>>>
             <<<Displacing  18/coordinate 1 (+)>>>
             <<<Displacing  17/coordinate 2 (-)>>>
             <<<Displacing  17/coordinate 1 (-)>>>
             <<<Displacing  17/coordinate 3 (-)>>>
             <<<Displacing  18/coordinate 2 (+)>>>
             <<<Displacing  18/coordinate 1 (-)>>>
             <<<Displacing  18/coordinate 3 (+)>>>
             <<<Displacing  20/coordinate 1 (+)>>>
             <<<Displacing  19/coordinate 2 (+)>>>
             <<<Displacing  19/coordinate 1 (+)>>>
             <<<Displacing  19/coordinate 3 (+)>>>
             <<<Displacing  20/coordinate 1 (-)>>>
             <<<Displacing  18/coordinate 2 (-)>>>
             <<<Displacing  18/coordinate 3 (-)>>>
             <<<Displacing  19/coordinate 3 (-)>>>
             <<<Displacing  19/coordinate 1 (-)>>>
             <<<Displacing  19/coordinate 2 (-)>>>
             <<<Displacing  20/coordinate 2 (+)>>>
             <<<Displacing  20/coordinate 2 (-)>>>
             <<<Displacing  20/coordinate 3 (+)>>>
             <<<Displacing  20/coordinate 3 (-)>>>
             <<<Displacing  21/coordinate 2 (+)>>>
             <<<Displacing  21/coordinate 1 (+)>>>
             <<<Displacing  21/coordinate 3 (+)>>>
             <<<Displacing  22/coordinate 1 (+)>>>
             <<<Displacing  22/coordinate 2 (+)>>>
             <<<Displacing  21/coordinate 1 (-)>>>
             <<<Displacing  21/coordinate 2 (-)>>>
             <<<Displacing  21/coordinate 3 (-)>>>
             <<<Displacing  23/coordinate 3 (+)>>>
             <<<Displacing  22/coordinate 2 (-)>>>
             <<<Displacing  22/coordinate 1 (-)>>>
             <<<Displacing  22/coordinate 3 (+)>>>
             <<<Displacing  23/coordinate 1 (+)>>>
             <<<Displacing  23/coordinate 3 (-)>>>
             <<<Displacing  23/coordinate 2 (+)>>>
             <<<Displacing  22/coordinate 3 (-)>>>
             <<<Displacing  23/coordinate 1 (-)>>>
             <<<Displacing  23/coordinate 2 (-)>>>
             <<<Displacing  24/coordinate 1 (+)>>>
             <<<Displacing  24/coordinate 2 (+)>>>
             <<<Displacing  24/coordinate 1 (-)>>>
             <<<Displacing  24/coordinate 2 (-)>>>
             <<<Displacing  24/coordinate 3 (+)>>>
             <<<Displacing  24/coordinate 3 (-)>>>
             <<<Displacing  25/coordinate 1 (+)>>>
             <<<Displacing  25/coordinate 2 (+)>>>
             <<<Displacing  26/coordinate 1 (+)>>>
             <<<Displacing  25/coordinate 3 (+)>>>
             <<<Displacing  26/coordinate 2 (+)>>>
             <<<Displacing  25/coordinate 1 (-)>>>
             <<<Displacing  25/coordinate 2 (-)>>>
             <<<Displacing  26/coordinate 1 (-)>>>
             <<<Displacing  25/coordinate 3 (-)>>>
             <<<Displacing  27/coordinate 1 (+)>>>
             <<<Displacing  26/coordinate 2 (-)>>>
             <<<Displacing  27/coordinate 1 (-)>>>
             <<<Displacing  26/coordinate 3 (+)>>>
             <<<Displacing  27/coordinate 2 (+)>>>
             <<<Displacing  26/coordinate 3 (-)>>>
             <<<Displacing  27/coordinate 3 (+)>>>
             <<<Displacing  27/coordinate 2 (-)>>>
             <<<Displacing  27/coordinate 3 (-)>>>
             <<<Displacing  28/coordinate 1 (+)>>>
             <<<Displacing  28/coordinate 2 (+)>>>
             <<<Displacing  28/coordinate 2 (-)>>>
             <<<Displacing  28/coordinate 3 (+)>>>
             <<<Displacing  28/coordinate 1 (-)>>>
             <<<Displacing  28/coordinate 3 (-)>>>
             <<<Displacing  29/coordinate 1 (+)>>>
             <<<Displacing  29/coordinate 3 (+)>>>
             <<<Displacing  29/coordinate 2 (+)>>>
             <<<Displacing  29/coordinate 1 (-)>>>
             <<<Displacing  29/coordinate 2 (-)>>>
             <<<Displacing  29/coordinate 3 (-)>>>
             <<<Displacing  30/coordinate 1 (+)>>>
             <<<Displacing  30/coordinate 2 (+)>>>
             <<<Displacing  30/coordinate 1 (-)>>>
             <<<Displacing  30/coordinate 3 (+)>>>
             <<<Displacing  30/coordinate 2 (-)>>>
             <<<Displacing  30/coordinate 3 (-)>>>
             <<<Displacing  31/coordinate 2 (+)>>>
             <<<Displacing  31/coordinate 1 (+)>>>
             <<<Displacing  31/coordinate 2 (-)>>>
             <<<Displacing  31/coordinate 1 (-)>>>
             <<<Displacing  31/coordinate 3 (+)>>>
             <<<Displacing  32/coordinate 2 (+)>>>
             <<<Displacing  32/coordinate 1 (+)>>>
             <<<Displacing  31/coordinate 3 (-)>>>
             <<<Displacing  32/coordinate 2 (-)>>>
             <<<Displacing  32/coordinate 1 (-)>>>
             <<<Displacing  32/coordinate 3 (+)>>>
             <<<Displacing  32/coordinate 3 (-)>>>
             <<<Displacing  33/coordinate 2 (+)>>>
             <<<Displacing  33/coordinate 1 (+)>>>
             <<<Displacing  33/coordinate 3 (+)>>>
             <<<Displacing  33/coordinate 2 (-)>>>
             <<<Displacing  34/coordinate 2 (+)>>>
             <<<Displacing  34/coordinate 1 (+)>>>
             <<<Displacing  33/coordinate 1 (-)>>>
             <<<Displacing  33/coordinate 3 (-)>>>
             <<<Displacing  34/coordinate 3 (+)>>>
             <<<Displacing  34/coordinate 2 (-)>>>
             <<<Displacing  34/coordinate 1 (-)>>>
             <<<Displacing  34/coordinate 3 (-)>>>
             <<<Displacing  35/coordinate 1 (+)>>>
             <<<Displacing  35/coordinate 1 (-)>>>
             <<<Displacing  36/coordinate 1 (+)>>>
             <<<Displacing  35/coordinate 2 (+)>>>
             <<<Displacing  36/coordinate 2 (+)>>>
             <<<Displacing  36/coordinate 1 (-)>>>
             <<<Displacing  35/coordinate 2 (-)>>>
             <<<Displacing  36/coordinate 2 (-)>>>
             <<<Displacing  35/coordinate 3 (+)>>>
             <<<Displacing  35/coordinate 3 (-)>>>
             <<<Displacing  36/coordinate 3 (+)>>>
             <<<Displacing  36/coordinate 3 (-)>>>
             <<<Displacing  37/coordinate 2 (+)>>>
             <<<Displacing  37/coordinate 3 (+)>>>
             <<<Displacing  37/coordinate 3 (-)>>>
             <<<Displacing  37/coordinate 1 (+)>>>
             <<<Displacing  37/coordinate 2 (-)>>>
             <<<Displacing  38/coordinate 2 (+)>>>
             <<<Displacing  37/coordinate 1 (-)>>>
             <<<Displacing  38/coordinate 1 (+)>>>
             <<<Displacing  38/coordinate 2 (-)>>>
             <<<Displacing  38/coordinate 3 (+)>>>
             <<<Displacing  38/coordinate 1 (-)>>>
             <<<Displacing  38/coordinate 3 (-)>>>
             <<<Displacing  39/coordinate 1 (+)>>>
             <<<Displacing  39/coordinate 1 (-)>>>
             <<<Displacing  40/coordinate 1 (+)>>>
             <<<Displacing  39/coordinate 3 (+)>>>
             <<<Displacing  39/coordinate 3 (-)>>>
             <<<Displacing  40/coordinate 1 (-)>>>
             <<<Displacing  40/coordinate 2 (+)>>>
             <<<Displacing  39/coordinate 2 (+)>>>
             <<<Displacing  39/coordinate 2 (-)>>>
             <<<Displacing  40/coordinate 3 (+)>>>
             <<<Displacing  40/coordinate 2 (-)>>>
             <<<Displacing  40/coordinate 3 (-)>>>
             <<<Displacing  41/coordinate 1 (+)>>>
             <<<Displacing  42/coordinate 2 (+)>>>
             <<<Displacing  41/coordinate 2 (+)>>>
             <<<Displacing  42/coordinate 1 (+)>>>
             <<<Displacing  41/coordinate 3 (+)>>>
             <<<Displacing  41/coordinate 1 (-)>>>
             <<<Displacing  42/coordinate 2 (-)>>>
             <<<Displacing  42/coordinate 1 (-)>>>
             <<<Displacing  41/coordinate 2 (-)>>>
             <<<Displacing  42/coordinate 3 (+)>>>
             <<<Displacing  41/coordinate 3 (-)>>>
             <<<Displacing  42/coordinate 3 (-)>>>
             <<<Displacing  43/coordinate 1 (+)>>>
             <<<Displacing  43/coordinate 2 (+)>>>
             <<<Displacing  43/coordinate 1 (-)>>>
             <<<Displacing  43/coordinate 3 (+)>>>
             <<<Displacing  43/coordinate 2 (-)>>>
             <<<Displacing  43/coordinate 3 (-)>>>
             <<<Displacing  44/coordinate 2 (+)>>>
             <<<Displacing  44/coordinate 1 (+)>>>
             <<<Displacing  44/coordinate 1 (-)>>>
             <<<Displacing  44/coordinate 2 (-)>>>
             <<<Displacing  44/coordinate 3 (+)>>>
             <<<Displacing  44/coordinate 3 (-)>>>
             <<<Displacing  45/coordinate 2 (+)>>>
             <<<Displacing  45/coordinate 1 (+)>>>
             <<<Displacing  45/coordinate 3 (+)>>>
             <<<Displacing  45/coordinate 1 (-)>>>
             <<<Displacing  45/coordinate 2 (-)>>>
             <<<Displacing  45/coordinate 3 (-)>>>
             <<<Displacing  46/coordinate 3 (+)>>>
             <<<Displacing  46/coordinate 1 (+)>>>
             <<<Displacing  46/coordinate 1 (-)>>>
             <<<Displacing  46/coordinate 3 (-)>>>
             <<<Displacing  46/coordinate 2 (+)>>>
             <<<Displacing  46/coordinate 2 (-)>>>

-----------------------
VIBRATIONAL FREQUENCIES
-----------------------

Scaling factor for frequencies =  1.000000000 (already applied!)

   0:         0.00 cm**-1
   1:         0.00 cm**-1
   2:         0.00 cm**-1
   3:         0.00 cm**-1
   4:         0.00 cm**-1
   5:         0.00 cm**-1
   6:      -739.89 cm**-1 ***imaginary mode***
   7:        30.82 cm**-1
   8:        43.27 cm**-1
   9:        49.26 cm**-1
  10:        63.17 cm**-1
  11:        75.53 cm**-1
  12:        88.90 cm**-1
  13:        94.49 cm**-1
  14:        96.55 cm**-1
  15:       112.50 cm**-1
  16:       120.59 cm**-1
  17:       128.89 cm**-1
  18:       142.97 cm**-1
  19:       169.12 cm**-1
  20:       183.80 cm**-1
  21:       204.77 cm**-1
  22:       231.12 cm**-1
  23:       251.50 cm**-1
  24:       268.24 cm**-1
  25:       273.99 cm**-1
  26:       280.38 cm**-1
  27:       283.71 cm**-1
  28:       342.21 cm**-1
  29:       369.76 cm**-1
  30:       385.95 cm**-1
  31:       393.20 cm**-1
  32:       419.58 cm**-1
  33:       426.89 cm**-1
  34:       451.86 cm**-1
  35:       488.59 cm**-1
  36:       536.65 cm**-1
  37:       555.67 cm**-1
  38:       591.02 cm**-1
  39:       629.11 cm**-1
  40:       677.32 cm**-1
  41:       725.20 cm**-1
  42:       767.34 cm**-1
  43:       772.89 cm**-1
  44:       774.53 cm**-1
  45:       821.57 cm**-1
  46:       824.82 cm**-1
  47:       837.31 cm**-1
  48:       870.89 cm**-1
  49:       884.21 cm**-1
  50:       912.36 cm**-1
  51:       920.88 cm**-1
  52:       933.33 cm**-1
  53:       935.19 cm**-1
  54:       941.98 cm**-1
  55:       944.69 cm**-1
  56:       950.07 cm**-1
  57:       982.78 cm**-1
  58:       994.15 cm**-1
  59:      1026.36 cm**-1
  60:      1047.94 cm**-1
  61:      1050.56 cm**-1
  62:      1068.97 cm**-1
  63:      1073.84 cm**-1
  64:      1087.22 cm**-1
  65:      1092.98 cm**-1
  66:      1106.80 cm**-1
  67:      1111.53 cm**-1
  68:      1112.08 cm**-1
  69:      1130.70 cm**-1
  70:      1133.86 cm**-1
  71:      1152.62 cm**-1
  72:      1177.39 cm**-1
  73:      1185.04 cm**-1
  74:      1195.55 cm**-1
  75:      1207.21 cm**-1
  76:      1216.58 cm**-1
  77:      1238.89 cm**-1
  78:      1257.98 cm**-1
  79:      1268.72 cm**-1
  80:      1270.13 cm**-1
  81:      1274.98 cm**-1
  82:      1276.08 cm**-1
  83:      1278.31 cm**-1
  84:      1281.67 cm**-1
  85:      1283.37 cm**-1
  86:      1309.91 cm**-1
  87:      1329.69 cm**-1
  88:      1341.63 cm**-1
  89:      1369.74 cm**-1
  90:      1372.76 cm**-1
  91:      1391.53 cm**-1
  92:      1410.99 cm**-1
  93:      1427.86 cm**-1
  94:      1428.47 cm**-1
  95:      1439.13 cm**-1
  96:      1461.56 cm**-1
  97:      1467.02 cm**-1
  98:      1478.57 cm**-1
  99:      1497.15 cm**-1
 100:      1502.14 cm**-1
 101:      1503.18 cm**-1
 102:      1506.13 cm**-1
 103:      1507.28 cm**-1
 104:      1508.60 cm**-1
 105:      1509.93 cm**-1
 106:      1512.48 cm**-1
 107:      1513.78 cm**-1
 108:      1532.11 cm**-1
 109:      1562.67 cm**-1
 110:      1572.21 cm**-1
 111:      2833.10 cm**-1
 112:      2876.41 cm**-1
 113:      2901.67 cm**-1
 114:      2931.80 cm**-1
 115:      2942.29 cm**-1
 116:      2942.88 cm**-1
 117:      2951.65 cm**-1
 118:      2953.18 cm**-1
 119:      2958.84 cm**-1
 120:      2963.91 cm**-1
 121:      2967.58 cm**-1
 122:      2971.61 cm**-1
 123:      2977.45 cm**-1
 124:      2982.45 cm**-1
 125:      2983.22 cm**-1
 126:      2988.79 cm**-1
 127:      2996.19 cm**-1
 128:      3000.64 cm**-1
 129:      3005.52 cm**-1
 130:      3021.13 cm**-1
 131:      3041.31 cm**-1
 132:      3049.06 cm**-1
 133:      3054.46 cm**-1
 134:      3065.66 cm**-1
 135:      3081.96 cm**-1
 136:      3394.82 cm**-1
 137:      3593.28 cm**-1


------------
NORMAL MODES
------------

These modes are the cartesian displacements weighted by the diagonal matrix
M(i,i)=1/sqrt(m[i]) where m[i] is the mass of the displaced atom
Thus, these vectors are normalized but *not* orthogonal

                  0          1          2          3          4          5    
      0       0.000000   0.000000   0.000000   0.000000   0.000000   0.000000
      1       0.000000   0.000000   0.000000   0.000000   0.000000   0.000000
      2       0.000000   0.000000   0.000000   0.000000   0.000000   0.000000
      3       0.000000   0.000000   0.000000   0.000000   0.000000   0.000000
      4       0.000000   0.000000   0.000000   0.000000   0.000000   0.000000
      5       0.000000   0.000000   0.000000   0.000000   0.000000   0.000000
      6       0.000000   0.000000   0.000000   0.000000   0.000000   0.000000
      7       0.000000   0.000000   0.000000   0.000000   0.000000   0.000000
      8       0.000000   0.000000   0.000000   0.000000   0.000000   0.000000
      9       0.000000   0.000000   0.000000   0.000000   0.000000   0.000000
     10       0.000000   0.000000   0.000000   0.000000   0.000000   0.000000
     11       0.000000   0.000000   0.000000   0.000000   0.000000   0.000000
     12       0.000000   0.000000   0.000000   0.000000   0.000000   0.000000
     13       0.000000   0.000000   0.000000   0.000000   0.000000   0.000000
     14       0.000000   0.000000   0.000000   0.000000   0.000000   0.000000
     15       0.000000   0.000000   0.000000   0.000000   0.000000   0.000000
     16       0.000000   0.000000   0.000000   0.000000   0.000000   0.000000
     17       0.000000   0.000000   0.000000   0.000000   0.000000   0.000000
     18       0.000000   0.000000   0.000000   0.000000   0.000000   0.000000
     19       0.000000   0.000000   0.000000   0.000000   0.000000   0.000000
     20       0.000000   0.000000   0.000000   0.000000   0.000000   0.000000
     21       0.000000   0.000000   0.000000   0.000000   0.000000   0.000000
     22       0.000000   0.000000   0.000000   0.000000   0.000000   0.000000
     23       0.000000   0.000000   0.000000   0.000000   0.000000   0.000000
     24       0.000000   0.000000   0.000000   0.000000   0.000000   0.000000
     25       0.000000   0.000000   0.000000   0.000000   0.000000   0.000000
     26       0.000000   0.000000   0.000000   0.000000   0.000000   0.000000
     27       0.000000   0.000000   0.000000   0.000000   0.000000   0.000000
     28       0.000000   0.000000   0.000000   0.000000   0.000000   0.000000
     29       0.000000   0.000000   0.000000   0.000000   0.000000   0.000000
     30       0.000000   0.000000   0.000000   0.000000   0.000000   0.000000
     31       0.000000   0.000000   0.000000   0.000000   0.000000   0.000000
     32       0.000000   0.000000   0.000000   0.000000   0.000000   0.000000
     33       0.000000   0.000000   0.000000   0.000000   0.000000   0.000000
     34       0.000000   0.000000   0.000000   0.000000   0.000000   0.000000
     35       0.000000   0.000000   0.000000   0.000000   0.000000   0.000000
     36       0.000000   0.000000   0.000000   0.000000   0.000000   0.000000
     37       0.000000   0.000000   0.000000   0.000000   0.000000   0.000000
     38       0.000000   0.000000   0.000000   0.000000   0.000000   0.000000
     39       0.000000   0.000000   0.000000   0.000000   0.000000   0.000000
     40       0.000000   0.000000   0.000000   0.000000   0.000000   0.000000
     41       0.000000   0.000000   0.000000   0.000000   0.000000   0.000000
     42       0.000000   0.000000   0.000000   0.000000   0.000000   0.000000
     43       0.000000   0.000000   0.000000   0.000000   0.000000   0.000000
     44       0.000000   0.000000   0.000000   0.000000   0.000000   0.000000
     45       0.000000   0.000000   0.000000   0.000000   0.000000   0.000000
     46       0.000000   0.000000   0.000000   0.000000   0.000000   0.000000
     47       0.000000   0.000000   0.000000   0.000000   0.000000   0.000000
     48       0.000000   0.000000   0.000000   0.000000   0.000000   0.000000
     49       0.000000   0.000000   0.000000   0.000000   0.000000   0.000000
     50       0.000000   0.000000   0.000000   0.000000   0.000000   0.000000
     51       0.000000   0.000000   0.000000   0.000000   0.000000   0.000000
     52       0.000000   0.000000   0.000000   0.000000   0.000000   0.000000
     53       0.000000   0.000000   0.000000   0.000000   0.000000   0.000000
     54       0.000000   0.000000   0.000000   0.000000   0.000000   0.000000
     55       0.000000   0.000000   0.000000   0.000000   0.000000   0.000000
     56       0.000000   0.000000   0.000000   0.000000   0.000000   0.000000
     57       0.000000   0.000000   0.000000   0.000000   0.000000   0.000000
     58       0.000000   0.000000   0.000000   0.000000   0.000000   0.000000
     59       0.000000   0.000000   0.000000   0.000000   0.000000   0.000000
     60       0.000000   0.000000   0.000000   0.000000   0.000000   0.000000
     61       0.000000   0.000000   0.000000   0.000000   0.000000   0.000000
     62       0.000000   0.000000   0.000000   0.000000   0.000000   0.000000
     63       0.000000   0.000000   0.000000   0.000000   0.000000   0.000000
     64       0.000000   0.000000   0.000000   0.000000   0.000000   0.000000
     65       0.000000   0.000000   0.000000   0.000000   0.000000   0.000000
     66       0.000000   0.000000   0.000000   0.000000   0.000000   0.000000
     67       0.000000   0.000000   0.000000   0.000000   0.000000   0.000000
     68       0.000000   0.000000   0.000000   0.000000   0.000000   0.000000
     69       0.000000   0.000000   0.000000   0.000000   0.000000   0.000000
     70       0.000000   0.000000   0.000000   0.000000   0.000000   0.000000
     71       0.000000   0.000000   0.000000   0.000000   0.000000   0.000000
     72       0.000000   0.000000   0.000000   0.000000   0.000000   0.000000
     73       0.000000   0.000000   0.000000   0.000000   0.000000   0.000000
     74       0.000000   0.000000   0.000000   0.000000   0.000000   0.000000
     75       0.000000   0.000000   0.000000   0.000000   0.000000   0.000000
     76       0.000000   0.000000   0.000000   0.000000   0.000000   0.000000
     77       0.000000   0.000000   0.000000   0.000000   0.000000   0.000000
     78       0.000000   0.000000   0.000000   0.000000   0.000000   0.000000
     79       0.000000   0.000000   0.000000   0.000000   0.000000   0.000000
     80       0.000000   0.000000   0.000000   0.000000   0.000000   0.000000
     81       0.000000   0.000000   0.000000   0.000000   0.000000   0.000000
     82       0.000000   0.000000   0.000000   0.000000   0.000000   0.000000
     83       0.000000   0.000000   0.000000   0.000000   0.000000   0.000000
     84       0.000000   0.000000   0.000000   0.000000   0.000000   0.000000
     85       0.000000   0.000000   0.000000   0.000000   0.000000   0.000000
     86       0.000000   0.000000   0.000000   0.000000   0.000000   0.000000
     87       0.000000   0.000000   0.000000   0.000000   0.000000   0.000000
     88       0.000000   0.000000   0.000000   0.000000   0.000000   0.000000
     89       0.000000   0.000000   0.000000   0.000000   0.000000   0.000000
     90       0.000000   0.000000   0.000000   0.000000   0.000000   0.000000
     91       0.000000   0.000000   0.000000   0.000000   0.000000   0.000000
     92       0.000000   0.000000   0.000000   0.000000   0.000000   0.000000
     93       0.000000   0.000000   0.000000   0.000000   0.000000   0.000000
     94       0.000000   0.000000   0.000000   0.000000   0.000000   0.000000
     95       0.000000   0.000000   0.000000   0.000000   0.000000   0.000000
     96       0.000000   0.000000   0.000000   0.000000   0.000000   0.000000
     97       0.000000   0.000000   0.000000   0.000000   0.000000   0.000000
     98       0.000000   0.000000   0.000000   0.000000   0.000000   0.000000
     99       0.000000   0.000000   0.000000   0.000000   0.000000   0.000000
    100       0.000000   0.000000   0.000000   0.000000   0.000000   0.000000
    101       0.000000   0.000000   0.000000   0.000000   0.000000   0.000000
    102       0.000000   0.000000   0.000000   0.000000   0.000000   0.000000
    103       0.000000   0.000000   0.000000   0.000000   0.000000   0.000000
    104       0.000000   0.000000   0.000000   0.000000   0.000000   0.000000
    105       0.000000   0.000000   0.000000   0.000000   0.000000   0.000000
    106       0.000000   0.000000   0.000000   0.000000   0.000000   0.000000
    107       0.000000   0.000000   0.000000   0.000000   0.000000   0.000000
    108       0.000000   0.000000   0.000000   0.000000   0.000000   0.000000
    109       0.000000   0.000000   0.000000   0.000000   0.000000   0.000000
    110       0.000000   0.000000   0.000000   0.000000   0.000000   0.000000
    111       0.000000   0.000000   0.000000   0.000000   0.000000   0.000000
    112       0.000000   0.000000   0.000000   0.000000   0.000000   0.000000
    113       0.000000   0.000000   0.000000   0.000000   0.000000   0.000000
    114       0.000000   0.000000   0.000000   0.000000   0.000000   0.000000
    115       0.000000   0.000000   0.000000   0.000000   0.000000   0.000000
    116       0.000000   0.000000   0.000000   0.000000   0.000000   0.000000
    117       0.000000   0.000000   0.000000   0.000000   0.000000   0.000000
    118       0.000000   0.000000   0.000000   0.000000   0.000000   0.000000
    119       0.000000   0.000000   0.000000   0.000000   0.000000   0.000000
    120       0.000000   0.000000   0.000000   0.000000   0.000000   0.000000
    121       0.000000   0.000000   0.000000   0.000000   0.000000   0.000000
    122       0.000000   0.000000   0.000000   0.000000   0.000000   0.000000
    123       0.000000   0.000000   0.000000   0.000000   0.000000   0.000000
    124       0.000000   0.000000   0.000000   0.000000   0.000000   0.000000
    125       0.000000   0.000000   0.000000   0.000000   0.000000   0.000000
    126       0.000000   0.000000   0.000000   0.000000   0.000000   0.000000
    127       0.000000   0.000000   0.000000   0.000000   0.000000   0.000000
    128       0.000000   0.000000   0.000000   0.000000   0.000000   0.000000
    129       0.000000   0.000000   0.000000   0.000000   0.000000   0.000000
    130       0.000000   0.000000   0.000000   0.000000   0.000000   0.000000
    131       0.000000   0.000000   0.000000   0.000000   0.000000   0.000000
    132       0.000000   0.000000   0.000000   0.000000   0.000000   0.000000
    133       0.000000   0.000000   0.000000   0.000000   0.000000   0.000000
    134       0.000000   0.000000   0.000000   0.000000   0.000000   0.000000
    135       0.000000   0.000000   0.000000   0.000000   0.000000   0.000000
    136       0.000000   0.000000   0.000000   0.000000   0.000000   0.000000
    137       0.000000   0.000000   0.000000   0.000000   0.000000   0.000000
                  6          7          8          9         10         11    
      0       0.003566  -0.041024   0.005513   0.013520   0.014353  -0.011722
      1       0.002032  -0.040007   0.100994  -0.119178   0.031918   0.135779
      2       0.000457  -0.017725  -0.029456  -0.024239  -0.063359   0.044523
      3       0.005304  -0.039098   0.009044   0.016801   0.022619  -0.030892
      4      -0.000015  -0.034101   0.063961  -0.031987   0.029143   0.150177
      5       0.003052  -0.010991  -0.013075  -0.018353  -0.030639  -0.030993
      6       0.010384  -0.045307   0.008407  -0.007779   0.002513   0.022973
[...]
 --------------------------------------------------------


-------------------
GIBBS FREE ENERGY
-------------------

The Gibbs free energy is G = H - T*S

Total enthalpy                    ...    -55.84246785 Eh 
Total entropy correction          ...     -0.07048997 Eh    -44.23 kcal/mol
-----------------------------------------------------------------------
Final Gibbs free energy         ...    -55.91295782 Eh

For completeness - the Gibbs free energy minus the electronic energy
G-E(el)                           ...      0.35057700 Eh    219.99 kcal/mol


Total Time for Numerical Frequencies  :       151.429 sec



------------------------------------------------------------------------------- 
                    Intrinsic Reaction Coordinate Calculation                  
------------------------------------------------------------------------------- 

System:
Nr. of atoms                        .... 46
Algorithm: SD (steepest descent step) plus correction
Settings:
Max. no of cycles        MaxIter    .... 1000
Direction                           .... Forward and backward
Initial displacement Hessian type   .... Read
Hessian Filename                    .... optts+freq.hess
Following Hessian mode              .... 0
Initial displacement type           .... Energy
  Initial displacement energy change.... 0.250 mEh
Coordinate system following type    .... Cartesian
Length of steepest descent step     .... 0.150 bohr
Do parabolic fit 
  if SD step is uphill              .... YES
Do Correction to SD step            .... YES
Scaling for length of correction
  compared to SD step               .... 0.333
Do parabolic fit to SD correction   .... YES
Only interpolate for parabolic fit  .... YES
Do update to length of
  SD step and correction            .... YES
Convergence Tolerances:
  Max. Gradient            TolMAXG  ....  1.0000e-03 Eh/bohr
  RMS Gradient             TolRMSG  ....  2.0000e-04 Eh/bohr
Storing full IRC trajectory in      .... optts+freq_IRC_Full_trj.xyz
Storing forward trajectory in       .... optts+freq_IRC_F_trj.xyz
Storing backward trajectory in      .... optts+freq_IRC_B_trj.xyz


 ...good, the file optts+freq.hess exists
Reading the hessian file           ...... done
Determining length of initial displacement:
  Requested energy change (quadratic behavior): 0.250 mEh
  Resulting scaling factor for initial displacement along normalized TS mode: 0.1264

         *************************************************************
         *                          FORWARD IRC                      *
         *************************************************************

Iteration    E(Eh)      dE(kcal/mol)  max(|G|)   RMS(G) 
Convergence thresholds                0.001000  0.000200            
    0       -56.263815   -0.175770    0.004850  0.000752
    1       -56.265511   -1.239982    0.011808  0.001926
    2       -56.268883   -3.355963    0.022212  0.002688
    3       -56.274755   -7.040806    0.030257  0.003852
    4       -56.281234   -11.106411    0.030270  0.003904
    5       -56.287745   -15.191943    0.021942  0.003621
    6       -56.293402   -18.742034    0.016351  0.003102
    7       -56.297468   -21.293269    0.010948  0.002159
    8       -56.300468   -23.175847    0.007610  0.001617
    9       -56.302907   -24.706436    0.005914  0.001315
   10       -56.304904   -25.959565    0.004736  0.001105
   11       -56.306550   -26.992084    0.003853  0.000974
   12       -56.307840   -27.801873    0.006571  0.001048
   13       -56.308157   -28.000488    0.003073  0.000916
   14       -56.308371   -28.135247    0.002900  0.000767
   15       -56.308666   -28.320142    0.002705  0.000693
   16       -56.308962   -28.506184    0.002545  0.000670
   17       -56.309244   -28.682726    0.002361  0.000636
   18       -56.309516   -28.853295    0.002220  0.000613
   19       -56.309774   -29.015490    0.002046  0.000583
   20       -56.310023   -29.171889    0.001927  0.000561
   21       -56.310261   -29.320769    0.001759  0.000534
   22       -56.310489   -29.464231    0.001672  0.000515
   23       -56.310707   -29.600876    0.001616  0.000490
   24       -56.310917   -29.732425    0.001457  0.000472
   25       -56.311116   -29.857835    0.001530  0.000451
   26       -56.311308   -29.978324    0.001370  0.000432
   27       -56.311492   -30.093677    0.001384  0.000414
   28       -56.311669   -30.204303    0.001375  0.000397
   29       -56.311837   -30.310001    0.001367  0.000379
   30       -56.311998   -30.411188    0.001354  0.000363
   31       -56.312152   -30.507978    0.001347  0.000347
   32       -56.312300   -30.600657    0.001330  0.000333
   33       -56.312441   -30.689094    0.001321  0.000322
   34       -56.312574   -30.772494    0.001289  0.000321
   35       -56.312695   -30.848574    0.001302  0.000343
   36       -56.312747   -30.880982    0.001275  0.000337
   37       -56.312802   -30.915356    0.001271  0.000281
   38       -56.312863   -30.953713    0.001254  0.000277
   39       -56.312922   -30.991019    0.001254  0.000270
   40       -56.312981   -31.027612    0.001235  0.000264
   41       -56.313038   -31.063463    0.001231  0.000259
   42       -56.313094   -31.098573    0.001213  0.000253
   43       -56.313148   -31.132958    0.001208  0.000248
   44       -56.313202   -31.166631    0.001189  0.000243
   45       -56.313255   -31.199608    0.001182  0.000238
   46       -56.313306   -31.231904    0.001163  0.000233
   47       -56.313357   -31.263533    0.001155  0.000228
   48       -56.313406   -31.294520    0.001137  0.000224
   49       -56.313454   -31.324892    0.001130  0.000219
   50       -56.313502   -31.354648    0.001110  0.000215
   51       -56.313548   -31.383809    0.001101  0.000210
   52       -56.313594   -31.412379    0.001081  0.000206
   53       -56.313638   -31.440370    0.001073  0.000202
   54       -56.313682   -31.467761    0.001049  0.000198
   55       -56.313725   -31.494528    0.001042  0.000195
   56       -56.313766   -31.520614    0.001013  0.000193
   57       -56.313807   -31.545902    0.001013  0.000192
   58       -56.313845   -31.570203    0.000973  0.000195

                      ***********************HURRAY********************
                      ***            THE IRC HAS CONVERGED          ***
                      *************************************************


         *************************************************************
         *                          BACKWARD IRC                     *
         *************************************************************

Iteration    E(Eh)      dE(kcal/mol)  max(|G|)   RMS(G) 
Convergence thresholds                0.001000  0.000200            
    0       -56.263741   -0.129089    0.004475  0.000688
    1       -56.264066   -0.333468    0.004167  0.000924
    2       -56.264224   -0.432632    0.004309  0.000779
    3       -56.264570   -0.649453    0.005105  0.000878
    4       -56.265001   -0.920216    0.006330  0.001072
    5       -56.265486   -1.224466    0.007688  0.001191
    6       -56.266061   -1.584894    0.009063  0.001401
    7       -56.266689   -1.979191    0.010575  0.001520
    8       -56.267413   -2.433478    0.012099  0.001743
    9       -56.268190   -2.921179    0.013732  0.001859
   10       -56.269065   -3.470516    0.015321  0.002085
   11       -56.269989   -4.050051    0.016908  0.002184
   12       -56.271000   -4.684366    0.018291  0.002373
   13       -56.272045   -5.340031    0.019488  0.002435
   14       -56.273144   -6.029789    0.020285  0.002536
   15       -56.274255   -6.726936    0.020713  0.002545
   16       -56.275373   -7.428842    0.020625  0.002537
   17       -56.276481   -8.123908    0.019958  0.002487
   18       -56.277558   -8.799880    0.018806  0.002400
   19       -56.278591   -9.447818    0.017251  0.002287
   20       -56.279571   -10.062553    0.015488  0.002163
   21       -56.280495   -10.642842    0.013723  0.002039
   22       -56.281367   -11.189954    0.012152  0.001922
   23       -56.282189   -11.705721    0.010847  0.001812
   24       -56.282964   -12.192154    0.009804  0.001709
   25       -56.283696   -12.651000    0.008943  0.001613
   26       -56.284385   -13.083785    0.008228  0.001523
   27       -56.285035   -13.491661    0.007576  0.001440
   28       -56.285645   -13.874424    0.007041  0.001377
   29       -56.286213   -14.230679    0.006519  0.001286
   30       -56.286754   -14.570271    0.006072  0.001224
   31       -56.287259   -14.887304    0.005630  0.001142
   32       -56.287740   -15.188900    0.005245  0.001084
   33       -56.288189   -15.470515    0.004864  0.001012
   34       -56.288614   -15.737677    0.004524  0.000958
   35       -56.289012   -15.987071    0.004187  0.000894
   36       -56.289388   -16.223020    0.003878  0.000844
   37       -56.289739   -16.443262    0.003656  0.000788
   38       -56.290070   -16.651085    0.003452  0.000742
   39       -56.290379   -16.845063    0.003247  0.000692
   40       -56.290670   -17.027703    0.003055  0.000650
   41       -56.290942   -17.198216    0.002869  0.000607
   42       -56.291197   -17.358514    0.002687  0.000570
   43       -56.291436   -17.508300    0.002528  0.000532
   44       -56.291660   -17.648964    0.002346  0.000500
   45       -56.291870   -17.780521    0.002233  0.000469
   46       -56.292066   -17.903801    0.002047  0.000440
   47       -56.292251   -18.019884    0.001948  0.000414
   48       -56.292425   -18.129033    0.001786  0.000391
   49       -56.292589   -18.231909    0.001696  0.000372
   50       -56.292743   -18.328350    0.001564  0.000360
   51       -56.292885   -18.417546    0.001470  0.000361
   52       -56.293011   -18.496620    0.001575  0.000405
   53       -56.293046   -18.518766    0.001363  0.000350
   54       -56.293108   -18.557207    0.001338  0.000307
   55       -56.293173   -18.598338    0.001296  0.000298
   56       -56.293238   -18.638694    0.001246  0.000291
   57       -56.293300   -18.678096    0.001220  0.000284
   58       -56.293362   -18.716619    0.001167  0.000278
   59       -56.293422   -18.754279    0.001152  0.000272
   60       -56.293480   -18.791133    0.001094  0.000266
   61       -56.293538   -18.827180    0.001088  0.000260
   62       -56.293594   -18.862484    0.001026  0.000255
   63       -56.293649   -18.897027    0.001028  0.000250
   64       -56.293703   -18.930860    0.000963  0.000245
   65       -56.293756   -18.963953    0.000975  0.000240
   66       -56.293807   -18.996297    0.000899  0.000236
   67       -56.293858   -19.027849    0.000935  0.000234
   68       -56.293907   -19.058485    0.000870  0.000231
   69       -56.293954   -19.088159    0.000909  0.000233
   70       -56.293999   -19.116392    0.000867  0.000235
   71       -56.294042   -19.143314    0.000900  0.000247
   72       -56.294081   -19.168043    0.000968  0.000248
   73       -56.294119   -19.191686    0.000900  0.000267
   74       -56.294134   -19.201487    0.000793  0.000226
   75       -56.294155   -19.214460    0.000815  0.000202
   76       -56.294177   -19.228355    0.000802  0.000201
   77       -56.294199   -19.242085    0.000809  0.000199

                      ***********************HURRAY********************
                      ***            THE IRC HAS CONVERGED          ***
                      *************************************************


---------------------------------------------------------------
                       IRC PATH SUMMARY              
---------------------------------------------------------------
All gradients are in Eh/Bohr.

Step        E(Eh)      dE(kcal/mol)  max(|G|)   RMS(G) 
   1       -56.294199   -19.242085    0.000809  0.000199
   2       -56.294177   -19.228355    0.000802  0.000201
   3       -56.294155   -19.214460    0.000815  0.000202
   4       -56.294134   -19.201487    0.000793  0.000226
   5       -56.294119   -19.191686    0.000900  0.000267
   6       -56.294081   -19.168043    0.000968  0.000248
   7       -56.294042   -19.143314    0.000900  0.000247
   8       -56.293999   -19.116392    0.000867  0.000235
   9       -56.293954   -19.088159    0.000909  0.000233
  10       -56.293907   -19.058485    0.000870  0.000231
  11       -56.293858   -19.027849    0.000935  0.000234
  12       -56.293807   -18.996297    0.000899  0.000236
  13       -56.293756   -18.963953    0.000975  0.000240
  14       -56.293703   -18.930860    0.000963  0.000245
  15       -56.293649   -18.897027    0.001028  0.000250
  16       -56.293594   -18.862484    0.001026  0.000255
  17       -56.293538   -18.827180    0.001088  0.000260
  18       -56.293480   -18.791133    0.001094  0.000266
  19       -56.293422   -18.754279    0.001152  0.000272
  20       -56.293362   -18.716619    0.001167  0.000278
  21       -56.293300   -18.678096    0.001220  0.000284
  22       -56.293238   -18.638694    0.001246  0.000291
  23       -56.293173   -18.598338    0.001296  0.000298
  24       -56.293108   -18.557207    0.001338  0.000307
  25       -56.293046   -18.518766    0.001363  0.000350
  26       -56.293011   -18.496620    0.001575  0.000405
  27       -56.292885   -18.417546    0.001470  0.000361
  28       -56.292743   -18.328350    0.001564  0.000360
  29       -56.292589   -18.231909    0.001696  0.000372
  30       -56.292425   -18.129033    0.001786  0.000391
  31       -56.292251   -18.019884    0.001948  0.000414
  32       -56.292066   -17.903801    0.002047  0.000440
  33       -56.291870   -17.780521    0.002233  0.000469
  34       -56.291660   -17.648964    0.002346  0.000500
  35       -56.291436   -17.508300    0.002528  0.000532
  36       -56.291197   -17.358514    0.002687  0.000570
  37       -56.290942   -17.198216    0.002869  0.000607
  38       -56.290670   -17.027703    0.003055  0.000650
  39       -56.290379   -16.845063    0.003247  0.000692
  40       -56.290070   -16.651085    0.003452  0.000742
  41       -56.289739   -16.443262    0.003656  0.000788
  42       -56.289388   -16.223020    0.003878  0.000844
  43       -56.289012   -15.987071    0.004187  0.000894
  44       -56.288614   -15.737677    0.004524  0.000958
  45       -56.288189   -15.470515    0.004864  0.001012
  46       -56.287740   -15.188900    0.005245  0.001084
  47       -56.287259   -14.887304    0.005630  0.001142
  48       -56.286754   -14.570271    0.006072  0.001224
  49       -56.286213   -14.230679    0.006519  0.001286
  50       -56.285645   -13.874424    0.007041  0.001377
  51       -56.285035   -13.491661    0.007576  0.001440
  52       -56.284385   -13.083785    0.008228  0.001523
  53       -56.283696   -12.651000    0.008943  0.001613
  54       -56.282964   -12.192154    0.009804  0.001709
  55       -56.282189   -11.705721    0.010847  0.001812
  56       -56.281367   -11.189954    0.012152  0.001922
  57       -56.280495   -10.642842    0.013723  0.002039
  58       -56.279571   -10.062553    0.015488  0.002163
  59       -56.278591   -9.447818    0.017251  0.002287
  60       -56.277558   -8.799880    0.018806  0.002400
  61       -56.276481   -8.123908    0.019958  0.002487
  62       -56.275373   -7.428842    0.020625  0.002537
  63       -56.274255   -6.726936    0.020713  0.002545
  64       -56.273144   -6.029789    0.020285  0.002536
  65       -56.272045   -5.340031    0.019488  0.002435
  66       -56.271000   -4.684366    0.018291  0.002373
  67       -56.269989   -4.050051    0.016908  0.002184
  68       -56.269065   -3.470516    0.015321  0.002085
  69       -56.268190   -2.921179    0.013732  0.001859
  70       -56.267413   -2.433478    0.012099  0.001743
  71       -56.266689   -1.979191    0.010575  0.001520
  72       -56.266061   -1.584894    0.009063  0.001401
  73       -56.265486   -1.224466    0.007688  0.001191
  74       -56.265001   -0.920216    0.006330  0.001072
  75       -56.264570   -0.649453    0.005105  0.000878
  76       -56.264224   -0.432632    0.004309  0.000779
  77       -56.264066   -0.333468    0.004167  0.000924
  78       -56.263741   -0.129089    0.004475  0.000688
  79       -56.263535    0.000000    0.000024  0.000004 <= TS
  80       -56.263815   -0.175770    0.004850  0.000752
  81       -56.265511   -1.239982    0.011808  0.001926
  82       -56.268883   -3.355963    0.022212  0.002688
  83       -56.274755   -7.040806    0.030257  0.003852
  84       -56.281234   -11.106411    0.030270  0.003904
  85       -56.287745   -15.191943    0.021942  0.003621
  86       -56.293402   -18.742034    0.016351  0.003102
  87       -56.297468   -21.293269    0.010948  0.002159
  88       -56.300468   -23.175847    0.007610  0.001617
  89       -56.302907   -24.706436    0.005914  0.001315
  90       -56.304904   -25.959565    0.004736  0.001105
  91       -56.306550   -26.992084    0.003853  0.000974
  92       -56.307840   -27.801873    0.006571  0.001048
  93       -56.308157   -28.000488    0.003073  0.000916
  94       -56.308371   -28.135247    0.002900  0.000767
  95       -56.308666   -28.320142    0.002705  0.000693
  96       -56.308962   -28.506184    0.002545  0.000670
  97       -56.309244   -28.682726    0.002361  0.000636
  98       -56.309516   -28.853295    0.002220  0.000613
  99       -56.309774   -29.015490    0.002046  0.000583
 100       -56.310023   -29.171889    0.001927  0.000561
 101       -56.310261   -29.320769    0.001759  0.000534
 102       -56.310489   -29.464231    0.001672  0.000515
 103       -56.310707   -29.600876    0.001616  0.000490
 104       -56.310917   -29.732425    0.001457  0.000472
 105       -56.311116   -29.857835    0.001530  0.000451
 106       -56.311308   -29.978324    0.001370  0.000432
 107       -56.311492   -30.093677    0.001384  0.000414
 108       -56.311669   -30.204303    0.001375  0.000397
 109       -56.311837   -30.310001    0.001367  0.000379
 110       -56.311998   -30.411188    0.001354  0.000363
 111       -56.312152   -30.507978    0.001347  0.000347
 112       -56.312300   -30.600657    0.001330  0.000333
 113       -56.312441   -30.689094    0.001321  0.000322
 114       -56.312574   -30.772494    0.001289  0.000321
 115       -56.312695   -30.848574    0.001302  0.000343
 116       -56.312747   -30.880982    0.001275  0.000337
 117       -56.312802   -30.915356    0.001271  0.000281
 118       -56.312863   -30.953713    0.001254  0.000277
 119       -56.312922   -30.991019    0.001254  0.000270
 120       -56.312981   -31.027612    0.001235  0.000264
 121       -56.313038   -31.063463    0.001231  0.000259
 122       -56.313094   -31.098573    0.001213  0.000253
 123       -56.313148   -31.132958    0.001208  0.000248
 124       -56.313202   -31.166631    0.001189  0.000243
 125       -56.313255   -31.199608    0.001182  0.000238
 126       -56.313306   -31.231904    0.001163  0.000233
 127       -56.313357   -31.263533    0.001155  0.000228
 128       -56.313406   -31.294520    0.001137  0.000224
 129       -56.313454   -31.324892    0.001130  0.000219
 130       -56.313502   -31.354648    0.001110  0.000215
 131       -56.313548   -31.383809    0.001101  0.000210
 132       -56.313594   -31.412379    0.001081  0.000206
 133       -56.313638   -31.440370    0.001073  0.000202
 134       -56.313682   -31.467761    0.001049  0.000198
 135       -56.313725   -31.494528    0.001042  0.000195
 136       -56.313766   -31.520614    0.001013  0.000193
 137       -56.313807   -31.545902    0.001013  0.000192
 138       -56.313845   -31.570203    0.000973  0.000195

Timings for individual modules:

Sum of individual times         ...      111.480 sec (=   1.858 min)
Geometry relaxation             ...        8.822 sec (=   0.147 min)   7.9 %
XTB module                      ...      102.658 sec (=   1.711 min)  92.1 %
                             ****ORCA TERMINATED NORMALLY****
TOTAL RUN TIME: 0 days 0 hours 7 minutes 10 seconds 983 msec
