
                                 *****************
                                 * O   R   C   A *
                                 *****************

           --- An Ab Initio, DFT and Semiempirical electronic structure package ---

                  #######################################################
                  #                        -***-                        #
                  #          Department of theory and spectroscopy      #
                  #               Directorship: Frank Neese             #
                  #        Max Planck Institute fuer Kohlenforschung    #
                  #                Kaiser Wilhelm Platz 1               #
                  #                 D-45470 Muelheim/Ruhr               #
                  #                      Germany                        #
                  #                                                     #
                  #                  All rights reserved                #
                  #                        -***-                        #
                  #######################################################


                         Program Version 4.2.1 -  RELEASE  -


 With contributions from (in alphabetic order):
   Daniel Aravena         : Magnetic Suceptibility
   Michael Atanasov       : Ab Initio Ligand Field Theory (pilot matlab implementation)
   Alexander A. Auer      : GIAO ZORA, VPT2
   Ute Becker             : Parallelization
   Giovanni Bistoni       : ED, misc. LED, open-shell LED, HFLD
   Martin Brehm           : Molecular dynamics
   Dmytro Bykov           : SCF Hessian
   Vijay G. Chilkuri      : MRCI spin determinant printing, contributions to CSF-ICE
   Dipayan Datta          : RHF DLPNO-CCSD density
   Achintya Kumar Dutta   : EOM-CC, STEOM-CC
   Dmitry Ganyushin       : Spin-Orbit,Spin-Spin,Magnetic field MRCI
   Miquel Garcia          : C-PCM Hessian, Gaussian charge scheme
   Yang Guo               : DLPNO-NEVPT2, CIM, IAO-localization
   Andreas Hansen         : Spin unrestricted coupled pair/coupled cluster methods
   Benjamin Helmich-Paris : CASSCF linear response (MC-RPA)
   Lee Huntington         : MR-EOM, pCC
   Robert Izsak           : Overlap fitted RIJCOSX, COSX-SCS-MP3, EOM
   Christian Kollmar      : KDIIS, OOCD, Brueckner-CCSD(T), CCSD density
   Simone Kossmann        : Meta GGA functionals, TD-DFT gradient, OOMP2, MP2 Hessian
   Martin Krupicka        : AUTO-CI
   Lucas Lang             : DCDCAS
   Dagmar Lenk            : GEPOL surface, SMD
   Dimitrios Liakos       : Extrapolation schemes; Compound Job, initial MDCI parallelization
   Dimitrios Manganas     : Further ROCIS development; embedding schemes
   Dimitrios Pantazis     : SARC Basis sets
   Taras Petrenko         : DFT Hessian,TD-DFT gradient, ASA, ECA, R-Raman, ABS, FL, XAS/XES, NRVS
   Peter Pinski           : DLPNO-MP2, DLPNO-MP2 Gradient
   Christoph Reimann      : Effective Core Potentials
   Marius Retegan         : Local ZFS, SOC
   Christoph Riplinger    : Optimizer, TS searches, QM/MM, DLPNO-CCSD(T), (RO)-DLPNO pert. Triples
   Tobias Risthaus        : Range-separated hybrids, TD-DFT gradient, RPA, STAB
   Michael Roemelt        : Original ROCIS implementation
   Masaaki Saitow         : Open-shell DLPNO-CCSD energy and density
   Barbara Sandhoefer     : DKH picture change effects
   Avijit Sen             : IP-ROCIS
   Kantharuban Sivalingam : CASSCF convergence, NEVPT2, FIC-MRCI
   Bernardo de Souza      : ESD, SOC TD-DFT
   Georgi Stoychev        : AutoAux, RI-MP2 NMR
   Willem Van den Heuvel  : Paramagnetic NMR
   Boris Wezisla          : Elementary symmetry handling
   Frank Wennmohs         : Technical directorship


 We gratefully acknowledge several colleagues who have allowed us to
 interface, adapt or use parts of their codes:
   Stefan Grimme, W. Hujo, H. Kruse,             : VdW corrections, initial TS optimization,
                  C. Bannwarth                     DFT functionals, gCP, sTDA/sTD-DF
   Ed Valeev, F. Pavosevic, A. Kumar             : LibInt (2-el integral package), F12 methods
   Garnet Chan, S. Sharma, J. Yang, R. Olivares  : DMRG
   Ulf Ekstrom                                   : XCFun DFT Library
   Mihaly Kallay                                 : mrcc  (arbitrary order and MRCC methods)
   Andreas Klamt, Michael Diedenhofen            : otool_cosmo (COSMO solvation model)
   Jiri Pittner, Ondrej Demel                    : Mk-CCSD
   Frank Weinhold                                : gennbo (NPA and NBO analysis)
   Christopher J. Cramer and Donald G. Truhlar   : smd solvation model
   Lars Goerigk                                  : TD-DFT with DH, B97 family of functionals
   V. Asgeirsson, H. Jonsson                     : NEB implementation
   FAccTs GmbH                                   : IRC, NEB, NEB-TS, Multilevel, MM, QM/MM, CI optimization
   S Lehtola, MJT Oliveira, MAL Marques          : LibXC Library


 Your calculation uses the libint2 library for the computation of 2-el integrals
 For citations please refer to: http://libint.valeyev.net

 Your ORCA version has been built with support for libXC version: 4.2.3
 For citations please refer to: https://tddft.org/programs/libxc/

 This ORCA versions uses:
   CBLAS   interface :  Fast vector & matrix operations
   LAPACKE interface :  Fast linear algebra routines
   SCALAPACK package :  Parallel linear algebra routines




***************************************
The coordinates will be read from file: init.xyz
***************************************


Your calculation utilizes the SMD solvation module
Please cite in your paper:
A.V. Marenich, C.J. Cramer, D.G. Truhlar J. Phys. Chem. B, 113, (2009), 6378 

Your calculation utilizes the semiempirical GFN2-xTB method
Please cite in your paper:
C. Bannwarth, Ehlert S., S. Grimme,  J. Chem. Theory Comput., 15, (2019), 1652.
   

----- Orbital basis set information -----
Your calculation utilizes the basis: def2-SVP
   F. Weigend and R. Ahlrichs, Phys. Chem. Chem. Phys. 7, 3297 (2005).

================================================================================
                                        WARNINGS
                       Please study these warnings very carefully!
================================================================================


WARNING: The environment variable RSH_COMMAND is not set!
  ===> : All Displacements for the Numerical Hessian calculation
         will be started on localhost

WARNING: Geometry Optimization
  ===> : Switching off AutoStart
         For restart on a previous wavefunction, please use MOREAD

WARNING: Found dipole moment calculation with XTB calculation
  ===> : Switching off dipole moment calculation


INFO   : the flag for use of LIBINT has been found!

================================================================================
                                       INPUT FILE
================================================================================
NAME = optts+freq.inp
|  1> ! XTB2 OptTS NumFreq IRC
|  2> 
|  3> %geom
|  4>  ts_mode
|  5>   {B 17 19}
|  6>  end
|  7>  ts_active_atoms
|  8>   {0 9 10 14 15 17 19}
|  9>  end
| 10>  calc_hess true
| 11>  numhess true
| 12> end
| 13> 
| 14> %irc
| 15>  maxiter 1000
| 16>  de_init_displ 0.25
| 17>  TolMAXG 1e-3
| 18>  TolRMSG 2e-4
| 19> end
| 20> 
| 21> %cpcm
| 22>  smd true
| 23>  smdsolvent "ch2cl2"
| 24> end
| 25> 
| 26> %pal
| 27>  nprocs 12
| 28> end
| 29> 
| 30> *xyzfile 0 1 init.xyz
| 31> 
| 32>                          ****END OF INPUT****
================================================================================

                       *****************************
                       * Geometry Optimization Run *
                       *****************************

Geometry optimization settings:
Update method            Update   .... Bofill
Choice of coordinates    CoordSys .... Z-matrix Internals
Initial Hessian          InHess   .... Almoef's Model

Convergence Tolerances:
Energy Change            TolE     ....  5.0000e-06 Eh
Max. Gradient            TolMAXG  ....  3.0000e-04 Eh/bohr
RMS Gradient             TolRMSG  ....  1.0000e-04 Eh/bohr
Max. Displacement        TolMAXD  ....  4.0000e-03 bohr
RMS Displacement         TolRMSD  ....  2.0000e-03 bohr
Strict Convergence                ....  False
------------------------------------------------------------------------------
                        ORCA OPTIMIZATION COORDINATE SETUP
------------------------------------------------------------------------------

The optimization will be done in new redundant internal coordinates
Making redundant internal coordinates   ...  (new redundants) done
Following TS mode number                ...    internal coordinate number: 29
TS-active-atoms for coordinate setup... 0 9 10 14 15 17 19 
Evaluating the initial hessian          ...  (Is done on the fly) done
Evaluating the coordinates              ...  done
Calculating the B-matrix                .... done
Calculating the G-matrix                .... done
Diagonalizing the G-matrix              .... done
Small eigenvalue found = 7.028e-03
Small eigenvalue found = 1.749e-02
The first mode is                       ....   81
The number of degrees of freedom        ....   93

    -----------------------------------------------------------------
                    Redundant Internal Coordinates


    -----------------------------------------------------------------
         Definition                    Initial Value    d2E/dq (diagonal element)
    -----------------------------------------------------------------
      1. B(C   1,C   0)                  1.3828         0.000000   
      2. B(C   2,C   0)                  2.4130         0.000000   
      3. B(C   2,C   1)                  1.3937         0.000000   
      4. B(C   3,C   0)                  2.7691         0.000000   
      5. B(C   3,C   2)                  1.3935         0.000000   
      6. B(C   4,C   0)                  2.3958         0.000000   
      7. B(C   4,C   3)                  1.3829         0.000000   
      8. B(C   5,C   4)                  1.3855         0.000000   
      9. B(C   5,C   0)                  1.3854         0.000000   
     10. B(H   6,C   1)                  1.0816         0.000000   
     11. B(H   7,C   3)                  1.0790         0.000000   
     12. B(H   8,C   5)                  1.0798         0.000000   
     13. B(N   9,C   2)                  2.4018         0.000000   
     14. B(N   9,C   3)                  2.8421         0.000000   
     15. B(C  11,N   9)                  1.4456         0.000000   
     16. B(H  12,C  11)                  1.1005         0.000000   
     17. B(H  13,C  11)                  1.1002         0.000000   
     18. B(H  14,N   9)                  1.4420         0.000000   
     19. B(O  15,H  14)                  1.1413         0.000000   
     20. B(O  15,H  10)                  1.1285         0.000000   
     21. B(O  15,N   9)                  2.5100         0.000000   
     22. B(C  17,C   2)                  1.4770         0.000000   
     23. B(C  17,O  15)                  2.9350         0.000000   
     24. B(C  17,C  11)                  2.3633         0.000000   
     25. B(C  17,C   3)                  2.5039         0.000000   
     26. B(C  17,C   1)                  2.4846         0.000000   
     27. B(C  17,N   9)                  1.3077         0.000000   
     28. B(H  18,C  17)                  1.0951         0.000000   
     29. B(O  19,C  17)                  1.9680         0.000000   
     30. B(O  19,O  15)                  2.5163         0.000000   
     31. B(O  19,N   9)                  2.6477         0.000000   
     32. B(O  19,C   2)                  2.6132         0.000000   
     33. B(O  19,H  16)                  0.9590         0.000000   
     34. B(O  19,H  10)                  1.4288         0.000000   
     35. B(H  20,O  15)                  1.0163         0.000000   
     36. B(C  21,N   9)                  2.4324         0.000000   
     37. B(C  21,C  11)                  1.5273         0.000000   
     38. B(H  22,C  21)                  1.0920         0.000000   
     39. B(H  23,C  21)                  1.0919         0.000000   
     40. B(H  24,C   0)                  1.0803         0.000000   
     41. B(H  25,C   4)                  1.0801         0.000000   
     42. B(C  26,C  21)                  1.5264         0.000000   
     43. B(H  27,C  26)                  1.0930         0.000000   
     44. B(H  28,C  26)                  1.0927         0.000000   
     45. B(C  29,C  26)                  1.5245         0.000000   
     46. B(H  30,C  29)                  1.0877         0.000000   
     47. B(H  31,C  29)                  1.0879         0.000000   
     48. B(H  32,C  29)                  1.0878         0.000000   
     49. A(C   1,C   0,C   5)          120.1053         0.000000   
     50. A(C   5,C   0,H  24)          120.1529         0.000000   
     51. A(C   1,C   0,H  24)          119.7413         0.000000   
     52. A(C   0,C   1,H   6)          120.0858         0.000000   
     53. A(C   2,C   1,H   6)          119.2114         0.000000   
     54. A(C   0,C   1,C   2)          120.7021         0.000000   
     55. A(C   1,C   2,C   3)          118.6992         0.000000   
     56. A(C   1,C   2,C  17)          119.8549         0.000000   
     57. A(C   3,C   2,C  17)          121.4282         0.000000   
     58. A(C   2,C   3,H   7)          118.9750         0.000000   
     59. A(C   2,C   3,C   4)          120.5089         0.000000   
     60. A(C   4,C   3,H   7)          120.4906         0.000000   
     61. A(C   3,C   4,C   5)          120.2951         0.000000   
     62. A(C   5,C   4,H  25)          119.9989         0.000000   
     63. A(C   3,C   4,H  25)          119.7054         0.000000   
     64. A(C   0,C   5,C   4)          119.6800         0.000000   
     65. A(C   0,C   5,H   8)          120.0913         0.000000   
     66. A(C   4,C   5,H   8)          120.2265         0.000000   
     67. A(C  11,N   9,H  14)          111.4516         0.000000   
     68. A(C  11,N   9,C  17)          118.1769         0.000000   
     69. A(H  14,N   9,C  17)          105.3401         0.000000   
     70. A(O  15,H  10,O  19)          159.3254         0.000000   
     71. A(H  12,C  11,H  13)          106.8390         0.000000   
     72. A(N   9,C  11,H  13)          110.5261         0.000000   
     73. A(N   9,C  11,H  12)          109.7860         0.000000   
     74. A(H  12,C  11,C  21)          109.8956         0.000000   
     75. A(N   9,C  11,C  21)          109.7786         0.000000   
     76. A(H  13,C  11,C  21)          109.9727         0.000000   
     77. A(N   9,H  14,O  15)          152.4450         0.000000   
     78. A(H  14,O  15,H  20)          112.8151         0.000000   
     79. A(H  10,O  15,H  20)          110.9274         0.000000   
     80. A(H  10,O  15,H  14)           90.4580         0.000000   
     81. A(N   9,C  17,H  18)          119.4920         0.000000   
     82. A(C   2,C  17,H  18)          114.4197         0.000000   
     83. A(C   2,C  17,N   9)          119.0761         0.000000   
     84. A(H  10,O  19,H  16)          110.2252         0.000000   
     85. A(H  22,C  21,H  23)          107.6377         0.000000   
     86. A(C  11,C  21,H  23)          108.5728         0.000000   
     87. A(C  11,C  21,H  22)          108.8562         0.000000   
     88. A(H  23,C  21,C  26)          109.8920         0.000000   
     89. A(H  22,C  21,C  26)          109.6608         0.000000   
     90. A(C  11,C  21,C  26)          112.1078         0.000000   
     91. A(H  28,C  26,C  29)          109.5015         0.000000   
     92. A(H  27,C  26,C  29)          109.5066         0.000000   
     93. A(C  21,C  26,C  29)          111.8565         0.000000   
     94. A(H  27,C  26,H  28)          107.5017         0.000000   
     95. A(C  21,C  26,H  28)          109.2019         0.000000   
     96. A(C  21,C  26,H  27)          109.1711         0.000000   
     97. A(H  31,C  29,H  32)          108.3769         0.000000   
     98. A(H  30,C  29,H  32)          108.4615         0.000000   
     99. A(C  26,C  29,H  32)          110.5040         0.000000   
    100. A(H  30,C  29,H  31)          108.4604         0.000000   
    101. A(C  26,C  29,H  31)          110.4760         0.000000   
    102. A(C  26,C  29,H  30)          110.4916         0.000000   
    103. D(H   6,C   1,C   0,H  24)     -0.1758         0.000000   
    104. D(H   6,C   1,C   0,C   5)   -179.9257         0.000000   
    105. D(C   2,C   1,C   0,C   5)      0.3800         0.000000   
    106. D(C   2,C   1,C   0,H  24)   -179.8700         0.000000   
    107. D(C  17,C   2,C   1,H   6)      0.7888         0.000000   
    108. D(C   3,C   2,C   1,H   6)    179.2801         0.000000   
    109. D(C   3,C   2,C   1,C   0)     -1.0230         0.000000   
    110. D(C  17,C   2,C   1,C   0)   -179.5143         0.000000   
    111. D(H   7,C   3,C   2,C   1)   -177.3273         0.000000   
    112. D(H   7,C   3,C   2,C  17)      1.1393         0.000000   
    113. D(C   4,C   3,C   2,C   1)      0.8452         0.000000   
    114. D(C   4,C   3,C   2,C  17)    179.3117         0.000000   
    115. D(C   5,C   4,C   3,H   7)    178.1186         0.000000   
    116. D(H  25,C   4,C   3,C   2)   -179.7586         0.000000   
    117. D(C   5,C   4,C   3,C   2)     -0.0260         0.000000   
    118. D(H  25,C   4,C   3,H   7)     -1.6140         0.000000   
    119. D(H   8,C   5,C   4,H  25)     -0.3628         0.000000   
    120. D(H   8,C   5,C   4,C   3)    179.9054         0.000000   
    121. D(C   0,C   5,C   4,C   3)     -0.6319         0.000000   
    122. D(H   8,C   5,C   0,H  24)      0.1700         0.000000   
    123. D(H   8,C   5,C   0,C   1)    179.9190         0.000000   
    124. D(C   0,C   5,C   4,H  25)    179.0999         0.000000   
    125. D(C   4,C   5,C   0,C   1)      0.4555         0.000000   
    126. D(C   4,C   5,C   0,H  24)   -179.2935         0.000000   
    127. D(C  21,C  11,N   9,H  14)    -71.7208         0.000000   
    128. D(C  21,C  11,N   9,C  17)    166.0752         0.000000   
    129. D(H  13,C  11,N   9,H  14)    166.7974         0.000000   
    130. D(H  12,C  11,N   9,C  17)    -73.0145         0.000000   
    131. D(H  12,C  11,N   9,H  14)     49.1895         0.000000   
    132. D(H  13,C  11,N   9,C  17)     44.5934         0.000000   
    133. D(O  15,H  14,N   9,C  11)    -94.5401         0.000000   
    134. D(O  15,H  14,N   9,C  17)     34.7964         0.000000   
    135. D(H  20,O  15,H  14,N   9)   -117.2797         0.000000   
    136. D(H  10,O  15,H  14,N   9)     -4.2706         0.000000   
    137. D(H  20,O  15,H  10,O  19)    110.8209         0.000000   
    138. D(H  14,O  15,H  10,O  19)     -3.9010         0.000000   
    139. D(H  18,C  17,N   9,H  14)   -143.2472         0.000000   
    140. D(C   2,C  17,N   9,H  14)     67.6665         0.000000   
    141. D(C   2,C  17,N   9,C  11)   -167.0828         0.000000   
    142. D(H  18,C  17,C   2,C   3)   -156.6301         0.000000   
    143. D(H  18,C  17,C   2,C   1)     21.8191         0.000000   
    144. D(H  18,C  17,N   9,C  11)    -17.9965         0.000000   
    145. D(N   9,C  17,C   2,C   3)     -6.0437         0.000000   
    146. D(N   9,C  17,C   2,C   1)    172.4054         0.000000   
    147. D(H  16,O  19,H  10,O  15)   -119.3445         0.000000   
    148. D(C  26,C  21,C  11,H  13)    -60.1046         0.000000   
    149. D(C  26,C  21,C  11,H  12)     57.2382         0.000000   
    150. D(C  26,C  21,C  11,N   9)    178.0824         0.000000   
    151. D(H  23,C  21,C  11,H  13)     61.4909         0.000000   
    152. D(H  23,C  21,C  11,H  12)    178.8337         0.000000   
    153. D(H  23,C  21,C  11,N   9)    -60.3222         0.000000   
    154. D(H  22,C  21,C  11,H  13)    178.3967         0.000000   
    155. D(H  22,C  21,C  11,H  12)    -64.2605         0.000000   
    156. D(H  22,C  21,C  11,N   9)     56.5837         0.000000   
    157. D(C  29,C  26,C  21,H  22)    -58.4899         0.000000   
    158. D(C  29,C  26,C  21,C  11)   -179.5256         0.000000   
    159. D(H  28,C  26,C  21,H  23)    -61.7324         0.000000   
    160. D(H  28,C  26,C  21,H  22)   -179.8607         0.000000   
    161. D(H  28,C  26,C  21,C  11)     59.1036         0.000000   
    162. D(H  27,C  26,C  21,H  23)   -179.0055         0.000000   
    163. D(H  27,C  26,C  21,H  22)     62.8662         0.000000   
    164. D(C  29,C  26,C  21,H  23)     59.6384         0.000000   
    165. D(H  27,C  26,C  21,C  11)    -58.1695         0.000000   
    166. D(H  32,C  29,C  26,H  28)   -178.7136         0.000000   
    167. D(H  32,C  29,C  26,C  21)     60.0889         0.000000   
    168. D(H  31,C  29,C  26,H  28)     61.3571         0.000000   
    169. D(H  31,C  29,C  26,H  27)    178.9974         0.000000   
    170. D(H  31,C  29,C  26,C  21)    -59.8405         0.000000   
    171. D(H  30,C  29,C  26,H  28)    -58.6685         0.000000   
    172. D(H  32,C  29,C  26,H  27)    -61.0733         0.000000   
    173. D(H  30,C  29,C  26,H  27)     58.9718         0.000000   
    174. D(H  30,C  29,C  26,C  21)   -179.8661         0.000000   
    -----------------------------------------------------------------

Number of atoms                         .... 33
Number of degrees of freedom            .... 174

         *************************************************************
         *                GEOMETRY OPTIMIZATION CYCLE   1            *
         *************************************************************
      -----------------------------------------------------------      
     |                   =====================                   |     
     |                           x T B                           |     
     |                   =====================                   |     
     |                         S. Grimme                         |     
     |          Mulliken Center for Theoretical Chemistry        |     
     |                    University of Bonn                     |     
      -----------------------------------------------------------      

   * xtb version 6.3.0 (49875a8) compiled by 'schneider@apollo14' on 2020-05-23

   xtb is free software: you can redistribute it and/or modify it under
   the terms of the GNU Lesser General Public License as published by
   the Free Software Foundation, either version 3 of the License, or
   (at your option) any later version.
   
   xtb is distributed in the hope that it will be useful,
   but WITHOUT ANY WARRANTY; without even the implied warranty of
   MERCHANTABILITY or FITNESS FOR A PARTICULAR PURPOSE.  See the
   GNU Lesser General Public License for more details.
   
   Cite this work as:
   * S. Grimme, C. Bannwarth, P. Shushkov, J. Chem. Theory Comput., 2017,
     13, 1989-2009. DOI: 10.1021/acs.jctc.7b00118
   * C. Bannwarth, S. Ehlert and S. Grimme., J. Chem. Theory Comput., 2019,
     15, 1652-1671. DOI: 10.1021/acs.jctc.8b01176
   * P. Pracht, E. Caldeweyher, S. Ehlert, S. Grimme, ChemRxiv, 2019, preprint.
     DOI: 10.26434/chemrxiv.8326202.v1
   
   for GFN-FF:
   * S. Spicher and S. Grimme, Angew. Chem. Int. Ed., 2020,
     DOI: 10.1002/anie.202004239
   
   for DFT-D4:
   * E. Caldeweyher, C. Bannwarth and S. Grimme, J. Chem. Phys., 2017,
     147, 034112. DOI: 10.1063/1.4993215
   * E. Caldeweyher, S. Ehlert, A. Hansen, H. Neugebauer, S. Spicher,
     C. Bannwarth and S. Grimme, J. Chem. Phys., 2019, 150, 154122.
     DOI: 10.1063/1.5090222
   
   for sTDA-xTB:
   * S. Grimme and C. Bannwarth, J. Chem. Phys., 2016, 145, 054103.
     DOI: 10.1063/1.4959605
   
   in the mass-spec context:
   * V. Asgeirsson, C. Bauer and S. Grimme, Chem. Sci., 2017, 8, 4879.
     DOI: 10.1039/c7sc00601b
   * J. Koopman and S. Grimme, ACS Omega 2019, 4, 12, 15120-15133.
     DOI: 10.1021/acsomega.9b02011
   
   for metadynamics refer to:
   * S. Grimme, J. Chem. Theory Comput., 2019, 155, 2847-2862
     DOI: 10.1021/acs.jctc.9b00143
   
   with help from (in alphabetical order)
   C. Bannwarth, F. Bohle, G. Brandenburg, E. Caldeweyher, M. Checinski,
   S. Dohm, S. Ehlert, S. Ehrlich, F. März, H. Neugebauer, J. Pisarek,
   P. Pracht, P. Shushkov, and S. Spicher.
   
 * started run on 2020/06/20 at 09:02:02.340     

           -------------------------------------------------
          |                Calculation Setup                |
           -------------------------------------------------

          program call               : /opt/orca/otool_xtb optts+freq_XTB.xyz --grad -c 0 -u 0 -P 12 --namespace optts+freq --gbsa CH2Cl2
          calculation namespace      : optts+freq
          coordinate file            : optts+freq_XTB.xyz
          number of atoms            :                    33
          number of electrons        :                    80
          charge                     :                     0
          spin                       :                   0.0
          first test random number   :      0.19153525252727

   ID    Z sym.   atoms
    1    6 C      1-6, 12, 18, 22, 27, 30
    2    1 H      7-9, 11, 13-15, 17, 19, 21, 23-26, 28, 29, 31-33
    3    7 N      10
    4    8 O      16, 20

molecular fragmentation (1/2 indicates fragments):
111111111121112221122111111111111
# atoms in fragment 1/2:    27     6
 fragment masses (1/2) :      161.24       36.03
CMA distance (Bohr)    :   4.622
constraining FC (au)   :  0.0500
########################################################################
[WARNING] Please study the warnings concerning your input carefully
-1- prog_main_parseArguments: Process number higher than OMP_NUM_THREADS, I hope you know what you are doing.
########################################################################
 Solvent             : CH2Cl2
 Using internal parameter file: .param_gbsa2_CH2Cl2
 Gsolv ref. state (COSMO-RS): gsolv [1 M gas/solution]
 temperature (mdtemp)       :    298.14999999999998     
 dielectric constant        :    8.9299999999999997     
 rho                        :    1.3300000000000003     
 mass                       :    84.930000000000007     
 surface tension            :    15.568945408385856     
 probe radius               :   0.71987590000000001     
 Gshift (Eh)                :    4.4408291734517593E-003
 c1                         :    1.4917377599999999     
 soset                      :    0.0000000000000000     
 HB correction              :  F

           -------------------------------------------------
          |                 G F N 2 - x T B                 |
           -------------------------------------------------

        Reference                      10.1021/acs.jctc.8b01176
      * Hamiltonian:
        H0-scaling (s, p, d)           1.850000    2.230000    2.230000
        zeta-weighting                 0.500000
      * Dispersion:
        s8                             2.700000
        a1                             0.520000
        a2                             5.000000
        s9                             5.000000
      * Repulsion:
        kExp                           1.500000    1.000000
        rExp                           1.000000
      * Coulomb:
        alpha                          2.000000
        third order                    shell-resolved
        anisotropic                    true
        a3                             3.000000
        a5                             4.000000
        cn-shift                       1.200000
        cn-exp                         4.000000
        max-rad                        5.000000


          ...................................................
          :                      SETUP                      :
          :.................................................:
          :  # basis functions                  75          :
          :  # atomic orbitals                  75          :
          :  # shells                           47          :
          :  # electrons                        80          :
          :  max. iterations                   250          :
          :  Hamiltonian                  GFN2-xTB          :
          :  restarted?                      false          :
          :  GBSA solvation                   true          :
          :  PC potential                    false          :
          :  electronic temp.          300.0000000     K    :
          :  accuracy                    1.0000000          :
          :  -> integral cutoff          0.2500000E+02      :
          :  -> integral neglect         0.1000000E-07      :
          :  -> SCF convergence          0.1000000E-05 Eh   :
          :  -> wf. convergence          0.1000000E-03 e    :
          :  Broyden damping             0.4000000          :
          ...................................................

 iter      E             dE          RMSdq      gap      omega  full diag
   1    -44.7662562 -0.447663E+02  0.392E+00    3.46       0.0  T
   2    -44.8089088 -0.426526E-01  0.222E+00    3.24       1.0  T
   3    -44.8074562  0.145266E-02  0.675E-01    2.98       1.0  T
   4    -44.8100351 -0.257899E-02  0.251E-01    3.14       1.0  T
   5    -44.8118187 -0.178353E-02  0.689E-02    3.13       1.0  T
   6    -44.8118308 -0.121503E-04  0.319E-02    3.13       1.0  T
   7    -44.8118330 -0.216291E-05  0.131E-02    3.13       1.3  T
   8    -44.8118352 -0.216038E-05  0.405E-03    3.13       4.3  T
   9    -44.8118352 -0.747590E-07  0.213E-03    3.13       8.2  T
  10    -44.8118352 -0.136503E-07  0.592E-04    3.13      29.4  T
  11    -44.8118352 -0.282655E-08  0.273E-04    3.13      63.8  T

   *** convergence criteria satisfied after 11 iterations ***

         #    Occupation            Energy/Eh            Energy/eV
      -------------------------------------------------------------
         1        2.0000           -0.7146621             -19.4469
       ...           ...                  ...                  ...
        34        2.0000           -0.4243903             -11.5482
        35        2.0000           -0.4212766             -11.4635
        36        2.0000           -0.4148418             -11.2884
        37        2.0000           -0.4115548             -11.1990
        38        2.0000           -0.4022063             -10.9446
        39        2.0000           -0.3834360             -10.4338
        40        2.0000           -0.3686226             -10.0307 (HOMO)
        41                         -0.2535290              -6.8989 (LUMO)
        42                         -0.2293972              -6.2422
        43                         -0.1792049              -4.8764
        44                         -0.0880711              -2.3965
        45                         -0.0514779              -1.4008
       ...                                ...                  ...
        75                          0.6586636              17.9231
      -------------------------------------------------------------
                  HL-Gap            0.1150936 Eh            3.1319 eV
             Fermi-level           -0.3110758 Eh           -8.4648 eV

 SCC (total)                   0 d,  0 h,  0 min,  0.133 sec
 SCC setup                      ...        0 min,  0.001 sec (  0.993%)
 Dispersion                     ...        0 min,  0.000 sec (  0.325%)
 classical contributions        ...        0 min,  0.000 sec (  0.108%)
 integral evaluation            ...        0 min,  0.017 sec ( 12.512%)
 iterations                     ...        0 min,  0.058 sec ( 43.954%)
 molecular gradient             ...        0 min,  0.037 sec ( 27.638%)
 printout                       ...        0 min,  0.019 sec ( 14.453%)

         :::::::::::::::::::::::::::::::::::::::::::::::::::::
         ::                     SUMMARY                     ::
         :::::::::::::::::::::::::::::::::::::::::::::::::::::
         :: total energy             -44.229176294474 Eh    ::
         :: total w/o Gsasa/hb       -44.212416231023 Eh    ::
         :: gradient norm              0.057443723771 Eh/a0 ::
         :: HOMO-LUMO gap              3.131855499773 eV    ::
         ::.................................................::
         :: SCC energy               -44.828595305924 Eh    ::
         :: -> isotropic ES            0.097627427482 Eh    ::
         :: -> anisotropic ES         -0.004204209262 Eh    ::
         :: -> anisotropic XC          0.024168675037 Eh    ::
         :: -> dispersion             -0.027198428463 Eh    ::
         :: -> Gsolv                  -0.027204355528 Eh    ::
         ::    -> Gborn               -0.010444292076 Eh    ::
         ::    -> Gsasa               -0.021200892625 Eh    ::
         ::    -> Ghb                  0.000000000000 Eh    ::
         ::    -> Gshift               0.004440829173 Eh    ::
         :: repulsion energy           0.599380148502 Eh    ::
         :: add. restraining           0.000000000000 Eh    ::
         :::::::::::::::::::::::::::::::::::::::::::::::::::::

           -------------------------------------------------
          |                Property Printout                |
           -------------------------------------------------

    * Orbital Energies and Occupations

         #    Occupation            Energy/Eh            Energy/eV
      -------------------------------------------------------------
         1        2.0000           -0.7146621             -19.4469
       ...           ...                  ...                  ...
        28        2.0000           -0.4671266             -12.7112
        29        2.0000           -0.4616767             -12.5629
        30        2.0000           -0.4432548             -12.0616
        31        2.0000           -0.4406697             -11.9912
        32        2.0000           -0.4340485             -11.8111
        33        2.0000           -0.4280886             -11.6489
        34        2.0000           -0.4243903             -11.5482
        35        2.0000           -0.4212766             -11.4635
        36        2.0000           -0.4148418             -11.2884
        37        2.0000           -0.4115548             -11.1990
        38        2.0000           -0.4022063             -10.9446
        39        2.0000           -0.3834360             -10.4338
        40        2.0000           -0.3686226             -10.0307 (HOMO)
        41                         -0.2535290              -6.8989 (LUMO)
        42                         -0.2293972              -6.2422
        43                         -0.1792049              -4.8764
        44                         -0.0880711              -2.3965
        45                         -0.0514779              -1.4008
        46                          0.0423859               1.1534
        47                          0.0905776               2.4647
        48                          0.1035137               2.8168
        49                          0.1158082               3.1513
        50                          0.1215988               3.3089
        51                          0.1236123               3.3637
       ...                                ...                  ...
        75                          0.6586636              17.9231
      -------------------------------------------------------------
                  HL-Gap            0.1150936 Eh            3.1319 eV
             Fermi-level           -0.3110758 Eh           -8.4648 eV

     #   Z        covCN         q      C6AA      α(0)
     1   6 C      2.918    -0.030    28.754     8.793
     2   6 C      2.925    -0.034    28.839     8.807
     3   6 C      2.973     0.005    27.916     8.667
     4   6 C      2.924    -0.041    29.024     8.835
     5   6 C      2.918    -0.029    28.735     8.790
     6   6 C      2.920    -0.029    28.736     8.791
     7   1 H      0.925     0.029     2.596     2.520
     8   1 H      0.926     0.054     2.266     2.354
     9   1 H      0.926     0.040     2.446     2.446
    10   7 N      2.085    -0.333    29.334     8.035
    11   1 H      0.780     0.366     0.557     1.174
    12   6 C      3.758     0.022    20.246     6.415
    13   1 H      0.923     0.019     2.749     2.593
    14   1 H      0.923     0.006     2.962     2.692
    15   1 H      0.948     0.347     0.584     1.195
    16   8 O      2.195    -0.498    22.780     6.446
    17   1 H      0.805     0.236     0.948     1.529
    18   6 C      3.044     0.124    25.231     8.238
    19   1 H      0.924     0.011     2.872     2.650
    20   8 O      1.073    -0.712    28.871     7.210
    21   1 H      0.795     0.342     0.610     1.228
    22   6 C      3.805    -0.068    21.807     6.648
    23   1 H      0.924     0.043     2.403     2.424
    24   1 H      0.924     0.039     2.456     2.451
    25   1 H      0.926     0.036     2.498     2.472
    26   1 H      0.926     0.045     2.384     2.415
    27   6 C      3.801    -0.054    21.536     6.607
    28   1 H      0.924     0.029     2.594     2.519
    29   1 H      0.924     0.027     2.625     2.534
    30   6 C      3.752    -0.104    22.555     6.773
    31   1 H      0.925     0.036     2.508     2.477
    32   1 H      0.925     0.037     2.493     2.469
    33   1 H      0.925     0.038     2.471     2.458

 Mol. C6AA /au·bohr⁶  :       9658.384781
 Mol. C8AA /au·bohr⁸  :     215548.615806
 Mol. α(0) /au        :        151.653048


Wiberg/Mayer (AO) data.
largest (>0.10) Wiberg bond orders for each atom
          total WBO             WBO to atom ...
     1  C   3.992        C    2 1.453    C    6 1.434    H   25 0.971    C    4 0.108
     2  C   3.992        C    1 1.453    C    3 1.391    H    7 0.969    C    5 0.108
     3  C   3.988        C    2 1.391    C    4 1.388    C   18 1.043    C    6 0.106
     4  C   3.990        C    5 1.454    C    3 1.388    H    8 0.964    C    1 0.108
     5  C   3.992        C    4 1.454    C    6 1.433    H   26 0.970    C    2 0.108
     6  C   3.990        C    1 1.434    C    5 1.433    H    9 0.971    C    3 0.106
     7  H   0.999        C    2 0.969
     8  H   0.997        C    4 0.964
     9  H   0.998        C    6 0.971
    10  N   3.159        C   18 1.522    C   12 1.012    H   15 0.291    O   20 0.139
    11  H   0.866        O   16 0.582    O   20 0.277
    12  C   3.988        N   10 1.012    C   22 1.003    H   14 0.967    H   13 0.962
    13  H   0.999        C   12 0.962
    14  H   1.000        C   12 0.967
    15  H   0.880        O   16 0.559    N   10 0.291
    16  O   2.212        H   21 0.872    H   11 0.582    H   15 0.559
    17  H   0.944        O   20 0.934
    18  C   3.954        N   10 1.522    C    3 1.043    H   19 0.949    O   20 0.346
    19  H   1.000        C   18 0.949
    20  O   1.851        H   17 0.934    C   18 0.346    H   11 0.277    N   10 0.139
    21  H   0.883        O   16 0.872
    22  C   3.996        C   27 1.008    C   12 1.003    H   24 0.977    H   23 0.976
    23  H   0.998        C   22 0.976
    24  H   0.998        C   22 0.977
    25  H   0.998        C    1 0.971
    26  H   0.998        C    5 0.970
    27  C   3.997        C   30 1.019    C   22 1.008    H   29 0.979    H   28 0.978
    28  H   0.999        C   27 0.978
    29  H   0.999        C   27 0.979
    30  C   3.996        C   27 1.019    H   32 0.988    H   33 0.988    H   31 0.987
    31  H   0.998        C   30 0.987
    32  H   0.999        C   30 0.988
    33  H   0.999        C   30 0.988
Topologies differ in total number of bonds
Writing topology from bond orders to xtbtopo.mol

molecular dipole:
                 x           y           z       tot (Debye)
 q only:        0.781      -0.481      -1.693
   full:        1.097      -0.365      -1.176       4.193
molecular quadrupole (traceless):
                xx          xy          yy          xz          yz          zz
 q only:        2.650      -1.601      -0.127       4.936       5.160      -2.523
  q+dip:        1.583      -2.954      -2.003       3.150       7.665       0.420
   full:        1.023      -3.375       0.151       3.425       6.496      -1.174


           -------------------------------------------------
          | TOTAL ENERGY              -44.229176294474 Eh   |
          | GRADIENT NORM               0.057443723771 Eh/α |
          | HOMO-LUMO GAP               3.131855499773 eV   |
           -------------------------------------------------

------------------------------------------------------------------------
 * finished run on 2020/06/20 at 09:02:02.529     
------------------------------------------------------------------------
 total:
 * wall-time:     0 d,  0 h,  0 min,  0.190 sec
 *  cpu-time:     0 d,  0 h,  0 min,  2.017 sec
 * ratio c/w:    10.638 speedup
 SCF:
 * wall-time:     0 d,  0 h,  0 min,  0.133 sec
 *  cpu-time:     0 d,  0 h,  0 min,  1.435 sec
 * ratio c/w:    10.772 speedup


-------------------------   --------------------
FINAL SINGLE POINT ENERGY       -44.229176294470
-------------------------   --------------------


----------------------------------------------------------------------------
                           ORCA NUMERICAL FREQUENCIES
                              (12-process run)
----------------------------------------------------------------------------

Number of atoms                ... 33
Central differences            ... used
Number of displacements        ... 198
Numerical increment            ... 5.000e-03 bohr
IR-spectrum generation         ... on
Raman-spectrum generation      ... off
Surface Crossing Hessian       ... off
List of participating nodes    ...  optts+freq.hostnames

The output will be reduced. Please look at the following files:
SCF program output             ... >optts+freq.lastscf
Integral program output        ... >optts+freq.lastint
Gradient program output        ... >optts+freq.lastgrad
Dipole moment program output   ... >optts+freq.lastmom
AutoCI program output          ... >optts+freq.lastautoci


         <<< Energy and Gradient at the input geometry >>>

        <<< Energy and Gradient at displaced geometries >>>
             <<<Displacing   2/coordinate 1 (+)>>>
             <<<Displacing   3/coordinate 3 (+)>>>
             <<<Displacing   1/coordinate 2 (+)>>>
             <<<Displacing   1/coordinate 3 (+)>>>
             <<<Displacing   3/coordinate 2 (+)>>>
             <<<Displacing   2/coordinate 3 (+)>>>
             <<<Displacing   4/coordinate 2 (+)>>>
             <<<Displacing   4/coordinate 3 (+)>>>
             <<<Displacing   4/coordinate 1 (+)>>>
             <<<Displacing   1/coordinate 1 (+)>>>
             <<<Displacing   3/coordinate 1 (+)>>>
             <<<Displacing   2/coordinate 2 (+)>>>
             <<<Displacing   4/coordinate 3 (-)>>>
             <<<Displacing   2/coordinate 3 (-)>>>
             <<<Displacing   4/coordinate 1 (-)>>>
             <<<Displacing   3/coordinate 3 (-)>>>
             <<<Displacing   2/coordinate 1 (-)>>>
             <<<Displacing   3/coordinate 2 (-)>>>
             <<<Displacing   4/coordinate 2 (-)>>>
             <<<Displacing   1/coordinate 3 (-)>>>
             <<<Displacing   3/coordinate 1 (-)>>>
             <<<Displacing   1/coordinate 2 (-)>>>
             <<<Displacing   1/coordinate 1 (-)>>>
             <<<Displacing   2/coordinate 2 (-)>>>
             <<<Displacing   5/coordinate 2 (+)>>>
             <<<Displacing   5/coordinate 1 (+)>>>
             <<<Displacing   6/coordinate 3 (+)>>>
             <<<Displacing   5/coordinate 3 (+)>>>
             <<<Displacing   7/coordinate 2 (+)>>>
             <<<Displacing   7/coordinate 1 (+)>>>
             <<<Displacing   5/coordinate 1 (-)>>>
             <<<Displacing   5/coordinate 2 (-)>>>
             <<<Displacing   7/coordinate 3 (+)>>>
             <<<Displacing   8/coordinate 3 (+)>>>
             <<<Displacing   6/coordinate 3 (-)>>>
             <<<Displacing   8/coordinate 1 (+)>>>
             <<<Displacing   6/coordinate 1 (+)>>>
             <<<Displacing   5/coordinate 3 (-)>>>
             <<<Displacing   7/coordinate 1 (-)>>>
             <<<Displacing   6/coordinate 2 (+)>>>
             <<<Displacing   8/coordinate 1 (-)>>>
             <<<Displacing   7/coordinate 2 (-)>>>
             <<<Displacing   8/coordinate 3 (-)>>>
             <<<Displacing   6/coordinate 1 (-)>>>
             <<<Displacing   7/coordinate 3 (-)>>>
             <<<Displacing   6/coordinate 2 (-)>>>
             <<<Displacing   8/coordinate 2 (+)>>>
             <<<Displacing   8/coordinate 2 (-)>>>
             <<<Displacing   9/coordinate 1 (+)>>>
             <<<Displacing   9/coordinate 2 (+)>>>
             <<<Displacing   9/coordinate 3 (+)>>>
             <<<Displacing  10/coordinate 1 (+)>>>
             <<<Displacing   9/coordinate 1 (-)>>>
             <<<Displacing  10/coordinate 2 (+)>>>
             <<<Displacing   9/coordinate 3 (-)>>>
             <<<Displacing   9/coordinate 2 (-)>>>
             <<<Displacing  10/coordinate 1 (-)>>>
             <<<Displacing  10/coordinate 2 (-)>>>
             <<<Displacing  11/coordinate 1 (+)>>>
             <<<Displacing  10/coordinate 3 (+)>>>
             <<<Displacing  11/coordinate 1 (-)>>>
             <<<Displacing  12/coordinate 2 (+)>>>
             <<<Displacing  12/coordinate 1 (+)>>>
             <<<Displacing  10/coordinate 3 (-)>>>
             <<<Displacing  11/coordinate 2 (+)>>>
             <<<Displacing  11/coordinate 2 (-)>>>
             <<<Displacing  12/coordinate 2 (-)>>>
             <<<Displacing  11/coordinate 3 (+)>>>
             <<<Displacing  12/coordinate 1 (-)>>>
             <<<Displacing  12/coordinate 3 (+)>>>
             <<<Displacing  11/coordinate 3 (-)>>>
             <<<Displacing  12/coordinate 3 (-)>>>
             <<<Displacing  13/coordinate 1 (+)>>>
             <<<Displacing  13/coordinate 2 (+)>>>
             <<<Displacing  13/coordinate 3 (+)>>>
             <<<Displacing  15/coordinate 2 (+)>>>
             <<<Displacing  14/coordinate 2 (+)>>>
             <<<Displacing  13/coordinate 1 (-)>>>
             <<<Displacing  14/coordinate 1 (+)>>>
             <<<Displacing  13/coordinate 2 (-)>>>
             <<<Displacing  13/coordinate 3 (-)>>>
             <<<Displacing  14/coordinate 3 (+)>>>
             <<<Displacing  14/coordinate 2 (-)>>>
             <<<Displacing  14/coordinate 1 (-)>>>
             <<<Displacing  15/coordinate 2 (-)>>>
             <<<Displacing  16/coordinate 1 (+)>>>
             <<<Displacing  14/coordinate 3 (-)>>>
             <<<Displacing  15/coordinate 1 (+)>>>
             <<<Displacing  16/coordinate 1 (-)>>>
             <<<Displacing  15/coordinate 1 (-)>>>
             <<<Displacing  15/coordinate 3 (+)>>>
             <<<Displacing  16/coordinate 2 (+)>>>
             <<<Displacing  15/coordinate 3 (-)>>>
             <<<Displacing  16/coordinate 2 (-)>>>
             <<<Displacing  16/coordinate 3 (+)>>>
             <<<Displacing  16/coordinate 3 (-)>>>
             <<<Displacing  17/coordinate 3 (+)>>>
             <<<Displacing  17/coordinate 1 (+)>>>
             <<<Displacing  17/coordinate 2 (+)>>>
             <<<Displacing  18/coordinate 1 (+)>>>
             <<<Displacing  17/coordinate 1 (-)>>>
             <<<Displacing  17/coordinate 3 (-)>>>
             <<<Displacing  17/coordinate 2 (-)>>>
             <<<Displacing  18/coordinate 1 (-)>>>
             <<<Displacing  18/coordinate 3 (+)>>>
             <<<Displacing  18/coordinate 2 (+)>>>
             <<<Displacing  19/coordinate 3 (+)>>>
             <<<Displacing  19/coordinate 1 (+)>>>
             <<<Displacing  19/coordinate 2 (+)>>>
             <<<Displacing  18/coordinate 3 (-)>>>
             <<<Displacing  19/coordinate 3 (-)>>>
             <<<Displacing  18/coordinate 2 (-)>>>
             <<<Displacing  19/coordinate 1 (-)>>>
             <<<Displacing  19/coordinate 2 (-)>>>
             <<<Displacing  20/coordinate 1 (+)>>>
             <<<Displacing  20/coordinate 1 (-)>>>
             <<<Displacing  20/coordinate 2 (+)>>>
             <<<Displacing  20/coordinate 2 (-)>>>
             <<<Displacing  20/coordinate 3 (+)>>>
             <<<Displacing  20/coordinate 3 (-)>>>
             <<<Displacing  21/coordinate 2 (+)>>>
             <<<Displacing  21/coordinate 1 (+)>>>
             <<<Displacing  21/coordinate 3 (+)>>>
             <<<Displacing  21/coordinate 3 (-)>>>
             <<<Displacing  21/coordinate 1 (-)>>>
             <<<Displacing  21/coordinate 2 (-)>>>
             <<<Displacing  22/coordinate 1 (+)>>>
             <<<Displacing  22/coordinate 1 (-)>>>
             <<<Displacing  22/coordinate 2 (+)>>>
             <<<Displacing  23/coordinate 2 (+)>>>
             <<<Displacing  22/coordinate 2 (-)>>>
             <<<Displacing  22/coordinate 3 (+)>>>
             <<<Displacing  24/coordinate 1 (+)>>>
             <<<Displacing  23/coordinate 2 (-)>>>
             <<<Displacing  24/coordinate 1 (-)>>>
             <<<Displacing  22/coordinate 3 (-)>>>
             <<<Displacing  23/coordinate 1 (+)>>>
             <<<Displacing  23/coordinate 3 (+)>>>
             <<<Displacing  23/coordinate 1 (-)>>>
             <<<Displacing  23/coordinate 3 (-)>>>
             <<<Displacing  24/coordinate 2 (+)>>>
             <<<Displacing  24/coordinate 2 (-)>>>
             <<<Displacing  24/coordinate 3 (+)>>>
             <<<Displacing  24/coordinate 3 (-)>>>
             <<<Displacing  25/coordinate 1 (+)>>>
             <<<Displacing  25/coordinate 1 (-)>>>
             <<<Displacing  25/coordinate 3 (+)>>>
             <<<Displacing  26/coordinate 1 (+)>>>
             <<<Displacing  26/coordinate 1 (-)>>>
             <<<Displacing  25/coordinate 3 (-)>>>
             <<<Displacing  27/coordinate 1 (+)>>>
             <<<Displacing  25/coordinate 2 (+)>>>
             <<<Displacing  26/coordinate 3 (+)>>>
             <<<Displacing  25/coordinate 2 (-)>>>
             <<<Displacing  27/coordinate 1 (-)>>>
             <<<Displacing  26/coordinate 3 (-)>>>
             <<<Displacing  28/coordinate 1 (+)>>>
             <<<Displacing  27/coordinate 3 (+)>>>
             <<<Displacing  28/coordinate 1 (-)>>>
             <<<Displacing  27/coordinate 2 (+)>>>
             <<<Displacing  27/coordinate 3 (-)>>>
             <<<Displacing  26/coordinate 2 (+)>>>
             <<<Displacing  27/coordinate 2 (-)>>>
             <<<Displacing  26/coordinate 2 (-)>>>
             <<<Displacing  28/coordinate 3 (+)>>>
             <<<Displacing  28/coordinate 3 (-)>>>
             <<<Displacing  28/coordinate 2 (+)>>>
             <<<Displacing  28/coordinate 2 (-)>>>
             <<<Displacing  29/coordinate 3 (+)>>>
             <<<Displacing  29/coordinate 3 (-)>>>
             <<<Displacing  30/coordinate 2 (+)>>>
             <<<Displacing  29/coordinate 2 (+)>>>
             <<<Displacing  29/coordinate 1 (+)>>>
             <<<Displacing  30/coordinate 2 (-)>>>
             <<<Displacing  29/coordinate 2 (-)>>>
             <<<Displacing  29/coordinate 1 (-)>>>
             <<<Displacing  30/coordinate 1 (+)>>>
             <<<Displacing  30/coordinate 3 (+)>>>
             <<<Displacing  31/coordinate 2 (+)>>>
             <<<Displacing  30/coordinate 3 (-)>>>
             <<<Displacing  31/coordinate 1 (+)>>>
             <<<Displacing  30/coordinate 1 (-)>>>
             <<<Displacing  31/coordinate 2 (-)>>>
             <<<Displacing  31/coordinate 1 (-)>>>
             <<<Displacing  31/coordinate 3 (+)>>>
             <<<Displacing  31/coordinate 3 (-)>>>
             <<<Displacing  32/coordinate 1 (+)>>>
             <<<Displacing  32/coordinate 2 (+)>>>
             <<<Displacing  32/coordinate 2 (-)>>>
             <<<Displacing  32/coordinate 1 (-)>>>
             <<<Displacing  32/coordinate 3 (+)>>>
             <<<Displacing  32/coordinate 3 (-)>>>
             <<<Displacing  33/coordinate 1 (+)>>>
             <<<Displacing  33/coordinate 1 (-)>>>
             <<<Displacing  33/coordinate 2 (+)>>>
             <<<Displacing  33/coordinate 3 (+)>>>
             <<<Displacing  33/coordinate 2 (-)>>>
             <<<Displacing  33/coordinate 3 (-)>>>

-----------------------
VIBRATIONAL FREQUENCIES
-----------------------

Scaling factor for frequencies =  1.000000000 (already applied!)

   0:         0.00 cm**-1
   1:         0.00 cm**-1
   2:         0.00 cm**-1
   3:         0.00 cm**-1
   4:         0.00 cm**-1
   5:         0.00 cm**-1
   6:     -1519.74 cm**-1 ***imaginary mode***
   7:        29.78 cm**-1
   8:        45.38 cm**-1
   9:        70.16 cm**-1
  10:        81.70 cm**-1
  11:        98.81 cm**-1
  12:       111.12 cm**-1
  13:       140.72 cm**-1
  14:       174.30 cm**-1
  15:       178.41 cm**-1
  16:       210.62 cm**-1
  17:       236.06 cm**-1
  18:       250.85 cm**-1
  19:       268.18 cm**-1
  20:       325.75 cm**-1
  21:       371.00 cm**-1
  22:       372.72 cm**-1
  23:       400.12 cm**-1
  24:       433.89 cm**-1
  25:       476.30 cm**-1
  26:       514.56 cm**-1
  27:       529.72 cm**-1
  28:       545.00 cm**-1
  29:       589.88 cm**-1
  30:       625.51 cm**-1
  31:       668.80 cm**-1
  32:       689.82 cm**-1
  33:       758.71 cm**-1
  34:       775.87 cm**-1
  35:       819.75 cm**-1
  36:       832.37 cm**-1
  37:       860.17 cm**-1
  38:       864.66 cm**-1
  39:       879.96 cm**-1
  40:       908.52 cm**-1
  41:       918.39 cm**-1
  42:       932.65 cm**-1
  43:       935.94 cm**-1
  44:       943.99 cm**-1
  45:       947.80 cm**-1
  46:       989.48 cm**-1
  47:      1015.17 cm**-1
  48:      1061.89 cm**-1
  49:      1080.36 cm**-1
  50:      1096.69 cm**-1
  51:      1104.02 cm**-1
  52:      1111.55 cm**-1
  53:      1120.97 cm**-1
  54:      1134.88 cm**-1
  55:      1146.15 cm**-1
  56:      1178.37 cm**-1
  57:      1188.07 cm**-1
  58:      1219.52 cm**-1
  59:      1227.21 cm**-1
  60:      1260.92 cm**-1
  61:      1269.58 cm**-1
  62:      1275.08 cm**-1
  63:      1277.10 cm**-1
  64:      1308.52 cm**-1
  65:      1327.85 cm**-1
  66:      1347.84 cm**-1
  67:      1359.41 cm**-1
  68:      1373.60 cm**-1
  69:      1409.79 cm**-1
  70:      1411.24 cm**-1
  71:      1431.03 cm**-1
  72:      1468.41 cm**-1
  73:      1484.99 cm**-1
  74:      1494.09 cm**-1
  75:      1498.95 cm**-1
  76:      1500.05 cm**-1
  77:      1505.62 cm**-1
  78:      1539.96 cm**-1
  79:      1584.63 cm**-1
  80:      1595.86 cm**-1
  81:      1626.45 cm**-1
  82:      2849.37 cm**-1
  83:      2877.03 cm**-1
  84:      2883.37 cm**-1
  85:      2891.58 cm**-1
  86:      2957.41 cm**-1
  87:      2973.83 cm**-1
  88:      2975.13 cm**-1
  89:      2985.47 cm**-1
  90:      3028.86 cm**-1
  91:      3030.03 cm**-1
  92:      3036.24 cm**-1
  93:      3063.48 cm**-1
  94:      3075.82 cm**-1
  95:      3079.38 cm**-1
  96:      3091.34 cm**-1
  97:      3100.39 cm**-1
  98:      3651.24 cm**-1


------------
NORMAL MODES
------------

These modes are the cartesian displacements weighted by the diagonal matrix
M(i,i)=1/sqrt(m[i]) where m[i] is the mass of the displaced atom
Thus, these vectors are normalized but *not* orthogonal

                  0          1          2          3          4          5    
      0       0.000000   0.000000   0.000000   0.000000   0.000000   0.000000
      1       0.000000   0.000000   0.000000   0.000000   0.000000   0.000000
      2       0.000000   0.000000   0.000000   0.000000   0.000000   0.000000
      3       0.000000   0.000000   0.000000   0.000000   0.000000   0.000000
      4       0.000000   0.000000   0.000000   0.000000   0.000000   0.000000
      5       0.000000   0.000000   0.000000   0.000000   0.000000   0.000000
      6       0.000000   0.000000   0.000000   0.000000   0.000000   0.000000
      7       0.000000   0.000000   0.000000   0.000000   0.000000   0.000000
      8       0.000000   0.000000   0.000000   0.000000   0.000000   0.000000
      9       0.000000   0.000000   0.000000   0.000000   0.000000   0.000000
     10       0.000000   0.000000   0.000000   0.000000   0.000000   0.000000
     11       0.000000   0.000000   0.000000   0.000000   0.000000   0.000000
     12       0.000000   0.000000   0.000000   0.000000   0.000000   0.000000
     13       0.000000   0.000000   0.000000   0.000000   0.000000   0.000000
     14       0.000000   0.000000   0.000000   0.000000   0.000000   0.000000
     15       0.000000   0.000000   0.000000   0.000000   0.000000   0.000000
     16       0.000000   0.000000   0.000000   0.000000   0.000000   0.000000
     17       0.000000   0.000000   0.000000   0.000000   0.000000   0.000000
     18       0.000000   0.000000   0.000000   0.000000   0.000000   0.000000
     19       0.000000   0.000000   0.000000   0.000000   0.000000   0.000000
     20       0.000000   0.000000   0.000000   0.000000   0.000000   0.000000
     21       0.000000   0.000000   0.000000   0.000000   0.000000   0.000000
     22       0.000000   0.000000   0.000000   0.000000   0.000000   0.000000
     23       0.000000   0.000000   0.000000   0.000000   0.000000   0.000000
     24       0.000000   0.000000   0.000000   0.000000   0.000000   0.000000
     25       0.000000   0.000000   0.000000   0.000000   0.000000   0.000000
     26       0.000000   0.000000   0.000000   0.000000   0.000000   0.000000
     27       0.000000   0.000000   0.000000   0.000000   0.000000   0.000000
     28       0.000000   0.000000   0.000000   0.000000   0.000000   0.000000
     29       0.000000   0.000000   0.000000   0.000000   0.000000   0.000000
     30       0.000000   0.000000   0.000000   0.000000   0.000000   0.000000
     31       0.000000   0.000000   0.000000   0.000000   0.000000   0.000000
     32       0.000000   0.000000   0.000000   0.000000   0.000000   0.000000
     33       0.000000   0.000000   0.000000   0.000000   0.000000   0.000000
     34       0.000000   0.000000   0.000000   0.000000   0.000000   0.000000
     35       0.000000   0.000000   0.000000   0.000000   0.000000   0.000000
     36       0.000000   0.000000   0.000000   0.000000   0.000000   0.000000
     37       0.000000   0.000000   0.000000   0.000000   0.000000   0.000000
     38       0.000000   0.000000   0.000000   0.000000   0.000000   0.000000
     39       0.000000   0.000000   0.000000   0.000000   0.000000   0.000000
     40       0.000000   0.000000   0.000000   0.000000   0.000000   0.000000
     41       0.000000   0.000000   0.000000   0.000000   0.000000   0.000000
     42       0.000000   0.000000   0.000000   0.000000   0.000000   0.000000
     43       0.000000   0.000000   0.000000   0.000000   0.000000   0.000000
     44       0.000000   0.000000   0.000000   0.000000   0.000000   0.000000
     45       0.000000   0.000000   0.000000   0.000000   0.000000   0.000000
     46       0.000000   0.000000   0.000000   0.000000   0.000000   0.000000
     47       0.000000   0.000000   0.000000   0.000000   0.000000   0.000000
     48       0.000000   0.000000   0.000000   0.000000   0.000000   0.000000
     49       0.000000   0.000000   0.000000   0.000000   0.000000   0.000000
     50       0.000000   0.000000   0.000000   0.000000   0.000000   0.000000
     51       0.000000   0.000000   0.000000   0.000000   0.000000   0.000000
     52       0.000000   0.000000   0.000000   0.000000   0.000000   0.000000
     53       0.000000   0.000000   0.000000   0.000000   0.000000   0.000000
     54       0.000000   0.000000   0.000000   0.000000   0.000000   0.000000
     55       0.000000   0.000000   0.000000   0.000000   0.000000   0.000000
     56       0.000000   0.000000   0.000000   0.000000   0.000000   0.000000
     57       0.000000   0.000000   0.000000   0.000000   0.000000   0.000000
     58       0.000000   0.000000   0.000000   0.000000   0.000000   0.000000
     59       0.000000   0.000000   0.000000   0.000000   0.000000   0.000000
     60       0.000000   0.000000   0.000000   0.000000   0.000000   0.000000
     61       0.000000   0.000000   0.000000   0.000000   0.000000   0.000000
     62       0.000000   0.000000   0.000000   0.000000   0.000000   0.000000
     63       0.000000   0.000000   0.000000   0.000000   0.000000   0.000000
     64       0.000000   0.000000   0.000000   0.000000   0.000000   0.000000
     65       0.000000   0.000000   0.000000   0.000000   0.000000   0.000000
     66       0.000000   0.000000   0.000000   0.000000   0.000000   0.000000
     67       0.000000   0.000000   0.000000   0.000000   0.000000   0.000000
     68       0.000000   0.000000   0.000000   0.000000   0.000000   0.000000
     69       0.000000   0.000000   0.000000   0.000000   0.000000   0.000000
     70       0.000000   0.000000   0.000000   0.000000   0.000000   0.000000
     71       0.000000   0.000000   0.000000   0.000000   0.000000   0.000000
     72       0.000000   0.000000   0.000000   0.000000   0.000000   0.000000
     73       0.000000   0.000000   0.000000   0.000000   0.000000   0.000000
     74       0.000000   0.000000   0.000000   0.000000   0.000000   0.000000
     75       0.000000   0.000000   0.000000   0.000000   0.000000   0.000000
     76       0.000000   0.000000   0.000000   0.000000   0.000000   0.000000
     77       0.000000   0.000000   0.000000   0.000000   0.000000   0.000000
     78       0.000000   0.000000   0.000000   0.000000   0.000000   0.000000
     79       0.000000   0.000000   0.000000   0.000000   0.000000   0.000000
     80       0.000000   0.000000   0.000000   0.000000   0.000000   0.000000
     81       0.000000   0.000000   0.000000   0.000000   0.000000   0.000000
     82       0.000000   0.000000   0.000000   0.000000   0.000000   0.000000
     83       0.000000   0.000000   0.000000   0.000000   0.000000   0.000000
     84       0.000000   0.000000   0.000000   0.000000   0.000000   0.000000
     85       0.000000   0.000000   0.000000   0.000000   0.000000   0.000000
     86       0.000000   0.000000   0.000000   0.000000   0.000000   0.000000
     87       0.000000   0.000000   0.000000   0.000000   0.000000   0.000000
     88       0.000000   0.000000   0.000000   0.000000   0.000000   0.000000
     89       0.000000   0.000000   0.000000   0.000000   0.000000   0.000000
     90       0.000000   0.000000   0.000000   0.000000   0.000000   0.000000
     91       0.000000   0.000000   0.000000   0.000000   0.000000   0.000000
     92       0.000000   0.000000   0.000000   0.000000   0.000000   0.000000
     93       0.000000   0.000000   0.000000   0.000000   0.000000   0.000000
     94       0.000000   0.000000   0.000000   0.000000   0.000000   0.000000
     95       0.000000   0.000000   0.000000   0.000000   0.000000   0.000000
     96       0.000000   0.000000   0.000000   0.000000   0.000000   0.000000
     97       0.000000   0.000000   0.000000   0.000000   0.000000   0.000000
     98       0.000000   0.000000   0.000000   0.000000   0.000000   0.000000
                  6          7          8          9         10         11    
      0       0.000435   0.034924  -0.015999   0.000339   0.022560   0.012660
      1       0.000014  -0.181328   0.149587   0.009693   0.149620   0.013258
      2       0.000207   0.044377   0.071313   0.013160  -0.063299   0.029731
      3       0.001474   0.032562  -0.038555  -0.001126   0.037385   0.001768
      4       0.000523  -0.102916   0.162768  -0.029040   0.051252  -0.112827
      5       0.000435   0.029136  -0.005586   0.011722  -0.001387   0.003541
      6       0.002390   0.029459   0.014825   0.004514   0.011557   0.031888
      7      -0.000056   0.026596   0.006616  -0.021958  -0.071432  -0.097133
      8       0.000867   0.004536  -0.032784   0.003970   0.055069  -0.034137
      9      -0.000599   0.030227   0.092835   0.011160  -0.028338   0.074936
     10       0.000426   0.081260  -0.164340   0.015565  -0.131003  -0.005144
     11      -0.000177  -0.003946   0.014056  -0.000206   0.053854  -0.037859
     12       0.000200   0.032969   0.116199   0.012560  -0.045213   0.086609
     13       0.000140   0.006721  -0.187629   0.056006  -0.052036   0.134486
     14       0.000149   0.010841   0.091913   0.000947  -0.004745  -0.014640
     15       0.000036   0.034752   0.061918   0.007139  -0.018126   0.055181
     16      -0.000058  -0.127191  -0.030965   0.056310   0.102492   0.160993
     17      -0.000092   0.035011   0.120844   0.006850  -0.064445   0.014702
     18       0.000751   0.032629  -0.099426  -0.006708   0.071865  -0.032164
     19      -0.001329  -0.145020   0.294342  -0.060554   0.088350  -0.200763
     20      -0.000285   0.036393  -0.042760   0.015863   0.000525   0.010775
     21       0.003517   0.030167   0.138021   0.013872  -0.048184   0.095381
     22      -0.003923   0.179284  -0.277097   0.016030  -0.220372  -0.025044
     23      -0.003436  -0.018867  -0.018400  -0.003297   0.089762  -0.057817
     24      -0.000341   0.036720   0.079406   0.008152  -0.030329   0.062713
     25      -0.000582  -0.188706  -0.048842   0.091454   0.183202   0.287973
     26      -0.000024   0.046944   0.180277   0.006969  -0.111934   0.028059
     27      -0.009478   0.034270   0.008413   0.006620   0.019320   0.031682
     28      -0.032039   0.143114   0.017652  -0.014025   0.045744  -0.062539
     29      -0.017723  -0.020650  -0.094374  -0.011184   0.088881  -0.094599
     30      -0.147996  -0.061375  -0.019931  -0.024898  -0.129587  -0.139136
     31      -0.214546   0.105641  -0.004893  -0.025269  -0.062164  -0.047192
     32      -0.527213  -0.056726  -0.118550  -0.011530  -0.081731   0.107931
     33      -0.004761   0.038415   0.014411   0.015687   0.038171   0.056336
     34      -0.004772   0.149972   0.003859   0.026067   0.117716   0.041227
     35      -0.001933  -0.008606  -0.055692  -0.011406   0.087333  -0.097992
     36      -0.013801   0.085033   0.047916   0.037175  -0.006533  -0.006298
     37       0.006638   0.198355  -0.000912   0.106331   0.153317   0.055528
     38       0.005990   0.088689  -0.038685   0.111423   0.105884  -0.120057
     39       0.028221   0.037596   0.029048   0.035218   0.072983   0.129277
     40      -0.003744   0.212900   0.002685   0.110952   0.135542   0.018917
     41      -0.019929  -0.098811  -0.053527  -0.131820   0.061321  -0.065875
     42      -0.071866   0.001846  -0.005437  -0.014212  -0.072151  -0.058183
     43       0.767544   0.155806   0.007070  -0.026411   0.039750  -0.127754
     44       0.211515  -0.042531  -0.105128  -0.012067   0.008346   0.006365
     45       0.003278  -0.041240  -0.021558  -0.025156  -0.162456  -0.136697
     46      -0.012990   0.144024   0.011775  -0.021080   0.042626  -0.126295
     47       0.004266  -0.072094  -0.110264  -0.010361  -0.072979   0.118844
     48       0.004874  -0.083290  -0.011671  -0.020811  -0.049134  -0.141769
     49       0.050532   0.025789  -0.003406  -0.029960  -0.171963   0.001071
     50       0.033857  -0.025299  -0.097295  -0.008825  -0.079553   0.103564
     51       0.014621   0.027137   0.000621   0.001430   0.021625   0.017735
     52      -0.041305   0.087508   0.006122  -0.030979  -0.078448  -0.067910
     53       0.027362  -0.009971  -0.084090  -0.002799   0.093831  -0.073933
     54      -0.006756   0.041728  -0.018761  -0.000454   0.058066   0.018135
     55       0.037244   0.071907  -0.003584  -0.031010  -0.133117   0.009374
     56      -0.038802   0.001291  -0.081098  -0.002668   0.133283  -0.117683
     57       0.008071  -0.068562  -0.010147  -0.018859  -0.047508  -0.123392
     58       0.035725   0.070421  -0.003664  -0.023599  -0.124395   0.037426
     59       0.011161  -0.044463  -0.103292  -0.011118  -0.046835   0.062660
     60       0.005751  -0.038419  -0.024200  -0.026360  -0.179560  -0.141531
     61      -0.021892   0.138225   0.003822  -0.024304   0.028869  -0.178521
     62       0.023719  -0.064612  -0.111545  -0.010988  -0.092476   0.138858
     63      -0.000598  -0.015691  -0.050133  -0.025499   0.078521   0.040688
     64       0.000245  -0.001299   0.001229  -0.131086   0.110868   0.147790
     65      -0.000459   0.002351  -0.008448  -0.010937   0.057558  -0.066278
     66      -0.000617   0.035726  -0.092424  -0.181025   0.160993   0.092624
     67      -0.000393  -0.042882   0.000877  -0.269919   0.124125   0.230907
     68       0.000733   0.063343  -0.009549   0.178965   0.041410  -0.181659
     69      -0.001551  -0.101063  -0.084664   0.048924   0.066478  -0.032076
     70       0.000088  -0.007413   0.000634  -0.308573   0.142144   0.253003
     71       0.000403  -0.068156  -0.034210  -0.211471   0.094020   0.032852
     72       0.000124   0.037129  -0.059986  -0.004168   0.042882  -0.014074
     73      -0.000165  -0.285205   0.275695   0.006207   0.264842   0.012092
     74      -0.000189   0.063784   0.092265   0.018774  -0.109279   0.058803
     75      -0.000893   0.033957   0.177338   0.017771  -0.079768   0.119116
     76      -0.000192   0.050999  -0.328214   0.089065  -0.098682   0.230000
     77       0.000389   0.004156   0.128056  -0.003027  -0.005499  -0.022072
     78      -0.000427  -0.030179  -0.024243   0.040093   0.036934   0.026479
     79       0.000231  -0.095694   0.005323   0.145909   0.015721  -0.018612
     80       0.000209   0.026284   0.090761   0.010472  -0.029813   0.022738
     81      -0.000134   0.057557   0.014033  -0.028911   0.078655   0.144028
     82       0.000185  -0.091259   0.003925   0.337224   0.020277  -0.101202
     83      -0.000677   0.092461   0.115161   0.231133   0.005249  -0.011775
     84      -0.000847  -0.086084   0.024208   0.200116  -0.075129  -0.030200
     85      -0.000001  -0.056713   0.001598   0.296245   0.057200  -0.066007
     86      -0.000794  -0.031260   0.097877  -0.198692  -0.093312   0.088534
     87       0.000076  -0.087588  -0.113140  -0.013243   0.086860  -0.074753
     88       0.000064  -0.250363   0.017317  -0.026639  -0.155346  -0.026828
     89      -0.000041   0.039331   0.156725   0.017508  -0.096540   0.094384
     90       0.000314  -0.099313  -0.090560   0.038041   0.048442  -0.081272
     91      -0.000247  -0.327427   0.017755   0.186272  -0.227787  -0.167824
     92      -0.000080   0.057034   0.234349   0.034174  -0.174341   0.178330
     93      -0.000197  -0.182791  -0.154584   0.061767   0.045026  -0.210161
     94      -0.000157  -0.251044   0.021011  -0.218261  -0.165398   0.059939
     95       0.000036  -0.022243   0.135488  -0.204264  -0.137271   0.130130
     96      -0.000046  -0.024313  -0.161918  -0.179064   0.206240  -0.013046
     97       0.000124  -0.289084   0.022307  -0.173763  -0.203771   0.017743
     98       0.000104   0.093497   0.150360   0.229616  -0.029401   0.029894
                 12         13         14         15         16         17    
      0       0.031086   0.001699  -0.041161  -0.012596   0.011349   0.008284
      1       0.024099  -0.035110  -0.015415   0.001402   0.005712  -0.006255
      2      -0.010114   0.051074   0.038730   0.009723  -0.010368   0.001204
      3       0.032839  -0.016602  -0.055380  -0.033521   0.008478   0.010041
      4      -0.000491   0.057219  -0.049780  -0.068041  -0.071837  -0.029423
      5      -0.000191  -0.024635  -0.017219  -0.060923  -0.016319   0.010755
      6       0.028347   0.015775  -0.021628   0.004660   0.010803   0.004386
      7      -0.005953   0.098906  -0.050631  -0.071035  -0.056643  -0.016811
      8       0.005224  -0.074998  -0.055992  -0.104783  -0.028982   0.013720
      9       0.024804   0.067225   0.025515   0.080134   0.032979   0.001421
     10      -0.006875   0.105019  -0.033846  -0.077307  -0.091768  -0.026208
     11       0.003737  -0.063603  -0.045124  -0.087060  -0.023945   0.015873
     12       0.022493   0.090213   0.045785   0.107457   0.039912  -0.000889
     13       0.016353   0.034689   0.013199   0.000454  -0.023293  -0.003150
     14      -0.005664   0.008944   0.006436  -0.022156  -0.013599   0.005366
     15       0.026147   0.054854   0.009325   0.060525   0.028105   0.003244
     16       0.038801  -0.058136   0.026712   0.062810   0.073958   0.022442
     17      -0.013751   0.066824   0.043434   0.017316  -0.018566  -0.004866
     18       0.037918  -0.063710  -0.100649  -0.087666  -0.004498   0.016764
     19      -0.008288   0.058635  -0.071085  -0.088938  -0.110618  -0.041345
     20       0.002214  -0.037089  -0.024120  -0.069825  -0.014765   0.014860
     21       0.022467   0.096660   0.055204   0.127702   0.059297  -0.001763
     22      -0.022319   0.117393  -0.049488  -0.111732  -0.148140  -0.033101
     23       0.008654  -0.098625  -0.076119  -0.135413  -0.044279   0.020340
     24       0.024146   0.069150   0.020551   0.074696   0.028071   0.001168
     25       0.064239  -0.146107   0.065515   0.146644   0.174350   0.055754
     26      -0.022483   0.122403   0.076915   0.057072  -0.025311  -0.014840
     27       0.028965  -0.040565  -0.070024  -0.055310  -0.019619   0.002715
     28       0.046424  -0.035609  -0.035584   0.015742   0.015647   0.020788
     29       0.001782   0.010248   0.025088  -0.006718   0.053309   0.000708
     30      -0.115703  -0.068447   0.119897  -0.015582   0.059985   0.008246
     31       0.041450   0.075502  -0.062082   0.053806   0.221751  -0.014622
     32       0.037396   0.134578  -0.030125  -0.010609   0.297191  -0.040109
     33       0.028434  -0.049385  -0.006606  -0.035166  -0.059257  -0.003332
     34       0.036618  -0.124756   0.231494  -0.068545  -0.024427   0.016513
     35       0.010020   0.062285   0.043774   0.149057  -0.036245  -0.003914
     36       0.099876  -0.029460  -0.069964   0.047437  -0.057193  -0.008189
     37       0.114594  -0.225134   0.439688  -0.146545  -0.068452   0.005266
     38       0.162768  -0.065836   0.281883   0.097843  -0.105289  -0.020414
     39       0.010758  -0.070663   0.157953  -0.022836  -0.103782  -0.013132
     40       0.142042  -0.215875   0.392956  -0.129288  -0.055544   0.005062
     41      -0.141348   0.184454  -0.188986   0.235567  -0.006816   0.014784
     42      -0.048983  -0.136326  -0.064810   0.007307   0.054130  -0.010701
     43       0.077149   0.159753  -0.090505  -0.000987   0.483652  -0.053551
     44       0.020582   0.113642   0.033041  -0.049449   0.216352  -0.025842
     45      -0.142683  -0.264753   0.055252   0.091892   0.063839  -0.012549
     46       0.040397  -0.004984  -0.055973   0.039058   0.185254  -0.002538
     47       0.015227   0.089072   0.026728  -0.034030   0.084094  -0.003680
     48      -0.071952   0.206307   0.224392  -0.220146   0.029249   0.050401
     49      -0.062807  -0.160153   0.045452   0.076743  -0.345912   0.070443
     50      -0.039131  -0.343677  -0.082926   0.204355  -0.162416  -0.006882
     51       0.028868   0.024262  -0.015079   0.008119   0.032069  -0.002394
     52       0.017766   0.068421  -0.048211   0.010454   0.089482  -0.010582
     53       0.003261  -0.074148  -0.029932  -0.080006  -0.027273   0.013385
     54       0.039182   0.019330   0.037652   0.089375   0.061756   0.005258
     55       0.007813   0.023211  -0.021387   0.068866   0.031301  -0.002991
     56       0.009956  -0.052906  -0.035256  -0.098441  -0.002723   0.012560
     57      -0.066347   0.154340   0.187664  -0.169626  -0.000874   0.043652
     58       0.003706  -0.059174  -0.037174   0.097840  -0.179113   0.032815
     59      -0.006182  -0.062062  -0.008958   0.027592   0.088430  -0.011384
     60      -0.154390  -0.317926   0.043403   0.128091   0.089846  -0.022958
     61       0.009593  -0.045459  -0.013355   0.067118   0.226795  -0.010519
     62       0.019086   0.057901  -0.015807  -0.001644   0.139344  -0.020402
     63      -0.025015  -0.011290  -0.066857  -0.067651  -0.022943  -0.005509
     64      -0.206153   0.019292   0.028752   0.001589   0.000269   0.038207
     65       0.004031   0.063170   0.042568   0.193478  -0.071008  -0.003129
     66      -0.022879  -0.014740  -0.023076  -0.062774  -0.023634   0.064460
     67      -0.305893   0.071129  -0.054450   0.023530   0.006874   0.086420
     68       0.146319  -0.010943   0.161409   0.160221  -0.078820  -0.067988
     69      -0.065462   0.043512  -0.125870  -0.027766  -0.015961  -0.049502
     70      -0.286905   0.051242  -0.026066   0.006791   0.008325   0.107119
     71      -0.142211   0.148521  -0.079312   0.226750  -0.052605   0.063066
     72       0.033330  -0.027236  -0.072812  -0.058508  -0.001203   0.010550
     73       0.034699  -0.098177  -0.014709   0.023959   0.029860  -0.003530
     74      -0.014871   0.094811   0.072671   0.054339  -0.003487  -0.001555
     75       0.017418   0.136213   0.089871   0.162869   0.050827  -0.006923
     76       0.020188   0.029325   0.038105   0.021798  -0.023290   0.001370
     77      -0.007406   0.020560   0.012608  -0.012819  -0.010613   0.003162
     78      -0.018027  -0.021675  -0.092917  -0.090282  -0.025315  -0.033415
     79      -0.169378   0.041519  -0.010617   0.030596   0.010229  -0.069479
     80      -0.003695   0.001082  -0.010404   0.068497  -0.054260  -0.011266
     81      -0.112966  -0.046711  -0.109993  -0.177996  -0.008148  -0.021557
     82      -0.242176   0.078024  -0.042239   0.061841   0.014521  -0.126044
     83      -0.171818   0.034174  -0.066979   0.050406  -0.036946  -0.083547
     84       0.026029  -0.051348  -0.147263  -0.157709   0.001450  -0.071602
     85      -0.279823   0.083070  -0.034977   0.062463   0.011641  -0.118876
     86       0.156474  -0.060918   0.022646   0.019067  -0.056062   0.059551
     87       0.066088   0.044914  -0.024256   0.118046  -0.103493  -0.018761
     88       0.144275  -0.049598   0.023818  -0.024671   0.018280   0.015262
     89      -0.006872  -0.063770  -0.057039  -0.093027  -0.000292  -0.008472
     90       0.061295   0.035607  -0.072290   0.078513  -0.070966   0.106662
     91       0.139172   0.008744  -0.120435   0.065737   0.056176   0.569016
     92      -0.019973  -0.140574  -0.114250  -0.298024   0.082199   0.007177
     93       0.150188   0.100639  -0.069589   0.275851  -0.125878   0.328473
     94       0.251705  -0.118245   0.127232  -0.102377  -0.002653  -0.303936
     95       0.197781  -0.124609   0.059646  -0.101849  -0.043476  -0.236918
     96       0.052952   0.052299   0.123459   0.176609  -0.186350  -0.477080
     97       0.282375  -0.110070   0.088782  -0.080564   0.009003  -0.133430
     98      -0.203351   0.022307  -0.151838  -0.014242   0.014335   0.210803
                 18         19         20         21         22         23    
      0      -0.059438  -0.170775   0.026401  -0.002189   0.041815  -0.009075
      1       0.030611  -0.024623  -0.001757   0.193971  -0.100349   0.032426
      2       0.006291   0.066681  -0.003493  -0.030341   0.011877   0.003114
      3      -0.069368  -0.173846   0.050443   0.007334   0.046219  -0.011578
      4       0.132016  -0.105544  -0.026017  -0.207996   0.005433   0.061718
      5      -0.050362   0.009713   0.093352   0.033630   0.033206  -0.010758
      6      -0.030938  -0.085231   0.029457   0.001955   0.016306   0.011875
      7       0.053709  -0.048113   0.039614   0.009312   0.116374  -0.128417
      8      -0.070081  -0.078123   0.095177  -0.008510   0.026657   0.009344
      9      -0.014960  -0.093272  -0.043403  -0.002355   0.002528  -0.009096
     10       0.122528  -0.114807  -0.003348   0.208365  -0.091055  -0.001837
     11      -0.082306  -0.063223   0.090830  -0.039798   0.061525  -0.011827
     12      -0.000618  -0.077305  -0.079690   0.012791  -0.011520  -0.008666
[...]
|  sn= 9 | S(rot)=       0.01337776 Eh      8.39 kcal/mol|
|  sn=10 | S(rot)=       0.01327828 Eh      8.33 kcal/mol|
|  sn=11 | S(rot)=       0.01318829 Eh      8.28 kcal/mol|
|  sn=12 | S(rot)=       0.01310614 Eh      8.22 kcal/mol|
 --------------------------------------------------------


-------------------
GIBBS FREE ENERGY
-------------------

The Gibbs free energy is G = H - T*S

Total enthalpy                    ...    -43.95694709 Eh 
Total entropy correction          ...     -0.05866148 Eh    -36.81 kcal/mol
-----------------------------------------------------------------------
Final Gibbs free energy         ...    -44.01560857 Eh

For completeness - the Gibbs free energy minus the electronic energy
G-E(el)                           ...      0.23108194 Eh    145.01 kcal/mol


Total Time for Numerical Frequencies  :        85.182 sec



------------------------------------------------------------------------------- 
                    Intrinsic Reaction Coordinate Calculation                  
------------------------------------------------------------------------------- 

System:
Nr. of atoms                        .... 33
Algorithm: SD (steepest descent step) plus correction
Settings:
Max. no of cycles        MaxIter    .... 1000
Direction                           .... Forward and backward
Initial displacement Hessian type   .... Read
Hessian Filename                    .... optts+freq.hess
Following Hessian mode              .... 0
Initial displacement type           .... Energy
  Initial displacement energy change.... 0.250 mEh
Coordinate system following type    .... Cartesian
Length of steepest descent step     .... 0.150 bohr
Do parabolic fit 
  if SD step is uphill              .... YES
Do Correction to SD step            .... YES
Scaling for length of correction
  compared to SD step               .... 0.333
Do parabolic fit to SD correction   .... YES
Only interpolate for parabolic fit  .... YES
Do update to length of
  SD step and correction            .... YES
Convergence Tolerances:
  Max. Gradient            TolMAXG  ....  1.0000e-03 Eh/bohr
  RMS Gradient             TolRMSG  ....  2.0000e-04 Eh/bohr
Storing full IRC trajectory in      .... optts+freq_IRC_Full_trj.xyz
Storing forward trajectory in       .... optts+freq_IRC_F_trj.xyz
Storing backward trajectory in      .... optts+freq_IRC_B_trj.xyz


 ...good, the file optts+freq.hess exists
Reading the hessian file           ...... done
Determining length of initial displacement:
  Requested energy change (quadratic behavior): 0.250 mEh
  Resulting scaling factor for initial displacement along normalized TS mode: 0.1104

         *************************************************************
         *                          FORWARD IRC                      *
         *************************************************************

Iteration    E(Eh)      dE(kcal/mol)  max(|G|)   RMS(G) 
Convergence thresholds                0.001000  0.000200            
    0       -44.246917   -0.142038    0.003304  0.000735
    1       -44.248172   -0.929376    0.008795  0.001850
    2       -44.248882   -1.374957    0.009007  0.001780
    3       -44.250104   -2.141929    0.012180  0.001922
    4       -44.251748   -3.173670    0.015692  0.002492
    5       -44.253586   -4.327135    0.019382  0.002732
    6       -44.255832   -5.736179    0.022786  0.003249
    7       -44.258225   -7.237864    0.025423  0.003388
    8       -44.260796   -8.851485    0.026176  0.003475
    9       -44.263302   -10.423942    0.024237  0.003325
   10       -44.265527   -11.819820    0.019245  0.002929
   11       -44.267421   -13.008719    0.013925  0.002482
   12       -44.269047   -14.029046    0.009729  0.002128
   13       -44.270447   -14.907592    0.007732  0.001820
   14       -44.271666   -15.672416    0.005973  0.001582
   15       -44.272722   -16.335061    0.004910  0.001365
   16       -44.273651   -16.917697    0.003979  0.001197
   17       -44.274454   -17.421760    0.003443  0.001033
   18       -44.275162   -17.865977    0.003069  0.000909
   19       -44.275772   -18.248945    0.002915  0.000792
   20       -44.276307   -18.584415    0.002457  0.000695
   21       -44.276774   -18.877329    0.002439  0.000632
   22       -44.277164   -19.122416    0.002732  0.000720
   23       -44.277240   -19.170261    0.002014  0.000619
   24       -44.277314   -19.216320    0.002028  0.000548
   25       -44.277404   -19.272698    0.001974  0.000501
   26       -44.277496   -19.330438    0.001926  0.000489
   27       -44.277584   -19.386177    0.001873  0.000474
   28       -44.277671   -19.440572    0.001828  0.000462
   29       -44.277755   -19.493315    0.001777  0.000448
   30       -44.277837   -19.544812    0.001735  0.000438
   31       -44.277917   -19.594799    0.001686  0.000425
   32       -44.277995   -19.643625    0.001647  0.000415
   33       -44.278070   -19.691073    0.001600  0.000403
   34       -44.278144   -19.737421    0.001563  0.000394
   35       -44.278216   -19.782528    0.001517  0.000383
   36       -44.278286   -19.826586    0.001484  0.000374
   37       -44.278355   -19.869504    0.001439  0.000365
   38       -44.278421   -19.911427    0.001409  0.000356
   39       -44.278487   -19.952295    0.001364  0.000347
   40       -44.278550   -19.992233    0.001339  0.000339
   41       -44.278612   -20.031202    0.001291  0.000331
   42       -44.278673   -20.069300    0.001275  0.000324
   43       -44.278732   -20.106489    0.001220  0.000316
   44       -44.278790   -20.142845    0.001217  0.000309
   45       -44.278847   -20.178372    0.001153  0.000302
   46       -44.278902   -20.213115    0.001168  0.000295
   47       -44.278956   -20.247099    0.001089  0.000289
   48       -44.279009   -20.280329    0.001123  0.000283
   49       -44.279061   -20.312855    0.001059  0.000277
   50       -44.279112   -20.344662    0.001075  0.000271
   51       -44.279162   -20.375815    0.001032  0.000265
   52       -44.279210   -20.406271    0.001036  0.000260
   53       -44.279257   -20.436044    0.001007  0.000256
   54       -44.279304   -20.465046    0.001025  0.000253
   55       -44.279348   -20.493103    0.000990  0.000252
   56       -44.279391   -20.520050    0.001055  0.000260
   57       -44.279431   -20.545084    0.000984  0.000267
   58       -44.279468   -20.568342    0.001125  0.000295
   59       -44.279482   -20.576796    0.000909  0.000252
   60       -44.279501   -20.589071    0.000925  0.000226
   61       -44.279522   -20.602214    0.000906  0.000224
   62       -44.279543   -20.615205    0.000912  0.000222
   63       -44.279564   -20.628083    0.000896  0.000220
   64       -44.279584   -20.640825    0.000898  0.000218
   65       -44.279604   -20.653449    0.000883  0.000216
   66       -44.279624   -20.665945    0.000885  0.000213
   67       -44.279644   -20.678323    0.000871  0.000211
   68       -44.279663   -20.690580    0.000872  0.000209
   69       -44.279682   -20.702720    0.000859  0.000207
   70       -44.279702   -20.714745    0.000860  0.000205
   71       -44.279721   -20.726653    0.000847  0.000203
   72       -44.279739   -20.738450    0.000847  0.000201
   73       -44.279758   -20.750128    0.000834  0.000199

                      ***********************HURRAY********************
                      ***            THE IRC HAS CONVERGED          ***
                      *************************************************


         *************************************************************
         *                          BACKWARD IRC                     *
         *************************************************************

Iteration    E(Eh)      dE(kcal/mol)  max(|G|)   RMS(G) 
Convergence thresholds                0.001000  0.000200            
    0       -44.246948   -0.161744    0.003528  0.000805
    1       -44.248778   -1.310069    0.011144  0.002280
    2       -44.251844   -3.233629    0.015479  0.002793
    3       -44.256366   -6.071157    0.015866  0.003306
    4       -44.261364   -9.207641    0.017845  0.003465
    5       -44.266532   -12.450413    0.018218  0.003497
    6       -44.271827   -15.773129    0.018499  0.003623
    7       -44.277116   -19.092501    0.017706  0.003509
    8       -44.281931   -22.113834    0.015895  0.002949
    9       -44.285432   -24.310860    0.012697  0.002174
   10       -44.288013   -25.930000    0.009461  0.001625
   11       -44.289965   -27.154886    0.005726  0.001232
   12       -44.291436   -28.077981    0.004246  0.001047
   13       -44.291766   -28.284960    0.003932  0.001111
   14       -44.291924   -28.384546    0.003793  0.000884
   15       -44.292205   -28.560693    0.003517  0.000776
   16       -44.292484   -28.735726    0.003235  0.000732
   17       -44.292740   -28.896651    0.002982  0.000679
   18       -44.292982   -29.048199    0.002733  0.000638
   19       -44.293206   -29.188948    0.002500  0.000593
   20       -44.293417   -29.321010    0.002268  0.000556
   21       -44.293613   -29.444226    0.002076  0.000520
   22       -44.293797   -29.559852    0.001870  0.000487
   23       -44.293970   -29.668481    0.001714  0.000458
   24       -44.294133   -29.770651    0.001616  0.000431
   25       -44.294287   -29.866924    0.001584  0.000407
   26       -44.294431   -29.957632    0.001556  0.000387
   27       -44.294567   -30.042740    0.001522  0.000374
   28       -44.294692   -30.121511    0.001502  0.000375
   29       -44.294804   -30.191797    0.001459  0.000402
   30       -44.294840   -30.213960    0.001454  0.000363
   31       -44.294893   -30.247729    0.001441  0.000317
   32       -44.294951   -30.283986    0.001424  0.000309
   33       -44.295008   -30.319438    0.001408  0.000302
   34       -44.295063   -30.354038    0.001390  0.000294
   35       -44.295117   -30.387895    0.001375  0.000288
   36       -44.295170   -30.420968    0.001357  0.000281
   37       -44.295221   -30.453348    0.001342  0.000275
   38       -44.295272   -30.485005    0.001324  0.000269
   39       -44.295321   -30.516005    0.001308  0.000264
   40       -44.295369   -30.546324    0.001290  0.000258
   41       -44.295417   -30.576024    0.001274  0.000253
   42       -44.295463   -30.605085    0.001256  0.000247
   43       -44.295508   -30.633554    0.001240  0.000242
   44       -44.295553   -30.661417    0.001222  0.000237
   45       -44.295596   -30.688716    0.001206  0.000232
   46       -44.295639   -30.715446    0.001189  0.000227
   47       -44.295681   -30.741636    0.001172  0.000223
   48       -44.295721   -30.767287    0.001156  0.000218
   49       -44.295761   -30.792401    0.001138  0.000214
   50       -44.295801   -30.816986    0.001122  0.000209
   51       -44.295839   -30.841062    0.001105  0.000205
   52       -44.295877   -30.864629    0.001089  0.000201
   53       -44.295913   -30.887613    0.001072  0.000199
   54       -44.295949   -30.909843    0.001056  0.000200
   55       -44.295982   -30.930883    0.001041  0.000210
   56       -44.296012   -30.949896    0.001025  0.000232
   57       -44.296025   -30.957825    0.001019  0.000210
   58       -44.296040   -30.967374    0.001011  0.000181
   59       -44.296057   -30.977926    0.001002  0.000179
   60       -44.296074   -30.988343    0.000993  0.000178

                      ***********************HURRAY********************
                      ***            THE IRC HAS CONVERGED          ***
                      *************************************************


---------------------------------------------------------------
                       IRC PATH SUMMARY              
---------------------------------------------------------------
All gradients are in Eh/Bohr.

Step        E(Eh)      dE(kcal/mol)  max(|G|)   RMS(G) 
   1       -44.296074   -30.988343    0.000993  0.000178
   2       -44.296057   -30.977926    0.001002  0.000179
   3       -44.296040   -30.967374    0.001011  0.000181
   4       -44.296025   -30.957825    0.001019  0.000210
   5       -44.296012   -30.949896    0.001025  0.000232
   6       -44.295982   -30.930883    0.001041  0.000210
   7       -44.295949   -30.909843    0.001056  0.000200
   8       -44.295913   -30.887613    0.001072  0.000199
   9       -44.295877   -30.864629    0.001089  0.000201
  10       -44.295839   -30.841062    0.001105  0.000205
  11       -44.295801   -30.816986    0.001122  0.000209
  12       -44.295761   -30.792401    0.001138  0.000214
  13       -44.295721   -30.767287    0.001156  0.000218
  14       -44.295681   -30.741636    0.001172  0.000223
  15       -44.295639   -30.715446    0.001189  0.000227
  16       -44.295596   -30.688716    0.001206  0.000232
  17       -44.295553   -30.661417    0.001222  0.000237
  18       -44.295508   -30.633554    0.001240  0.000242
  19       -44.295463   -30.605085    0.001256  0.000247
  20       -44.295417   -30.576024    0.001274  0.000253
  21       -44.295369   -30.546324    0.001290  0.000258
  22       -44.295321   -30.516005    0.001308  0.000264
  23       -44.295272   -30.485005    0.001324  0.000269
  24       -44.295221   -30.453348    0.001342  0.000275
  25       -44.295170   -30.420968    0.001357  0.000281
  26       -44.295117   -30.387895    0.001375  0.000288
  27       -44.295063   -30.354038    0.001390  0.000294
  28       -44.295008   -30.319438    0.001408  0.000302
  29       -44.294951   -30.283986    0.001424  0.000309
  30       -44.294893   -30.247729    0.001441  0.000317
  31       -44.294840   -30.213960    0.001454  0.000363
  32       -44.294804   -30.191797    0.001459  0.000402
  33       -44.294692   -30.121511    0.001502  0.000375
  34       -44.294567   -30.042740    0.001522  0.000374
  35       -44.294431   -29.957632    0.001556  0.000387
  36       -44.294287   -29.866924    0.001584  0.000407
  37       -44.294133   -29.770651    0.001616  0.000431
  38       -44.293970   -29.668481    0.001714  0.000458
  39       -44.293797   -29.559852    0.001870  0.000487
  40       -44.293613   -29.444226    0.002076  0.000520
  41       -44.293417   -29.321010    0.002268  0.000556
  42       -44.293206   -29.188948    0.002500  0.000593
  43       -44.292982   -29.048199    0.002733  0.000638
  44       -44.292740   -28.896651    0.002982  0.000679
  45       -44.292484   -28.735726    0.003235  0.000732
  46       -44.292205   -28.560693    0.003517  0.000776
  47       -44.291924   -28.384546    0.003793  0.000884
  48       -44.291766   -28.284960    0.003932  0.001111
  49       -44.291436   -28.077981    0.004246  0.001047
  50       -44.289965   -27.154886    0.005726  0.001232
  51       -44.288013   -25.930000    0.009461  0.001625
  52       -44.285432   -24.310860    0.012697  0.002174
  53       -44.281931   -22.113834    0.015895  0.002949
  54       -44.277116   -19.092501    0.017706  0.003509
  55       -44.271827   -15.773129    0.018499  0.003623
  56       -44.266532   -12.450413    0.018218  0.003497
  57       -44.261364   -9.207641    0.017845  0.003465
  58       -44.256366   -6.071157    0.015866  0.003306
  59       -44.251844   -3.233629    0.015479  0.002793
  60       -44.248778   -1.310069    0.011144  0.002280
  61       -44.246948   -0.161744    0.003528  0.000805
  62       -44.246691    0.000000    0.000033  0.000005 <= TS
  63       -44.246917   -0.142038    0.003304  0.000735
  64       -44.248172   -0.929376    0.008795  0.001850
  65       -44.248882   -1.374957    0.009007  0.001780
  66       -44.250104   -2.141929    0.012180  0.001922
  67       -44.251748   -3.173670    0.015692  0.002492
  68       -44.253586   -4.327135    0.019382  0.002732
  69       -44.255832   -5.736179    0.022786  0.003249
  70       -44.258225   -7.237864    0.025423  0.003388
  71       -44.260796   -8.851485    0.026176  0.003475
  72       -44.263302   -10.423942    0.024237  0.003325
  73       -44.265527   -11.819820    0.019245  0.002929
  74       -44.267421   -13.008719    0.013925  0.002482
  75       -44.269047   -14.029046    0.009729  0.002128
  76       -44.270447   -14.907592    0.007732  0.001820
  77       -44.271666   -15.672416    0.005973  0.001582
  78       -44.272722   -16.335061    0.004910  0.001365
  79       -44.273651   -16.917697    0.003979  0.001197
  80       -44.274454   -17.421760    0.003443  0.001033
  81       -44.275162   -17.865977    0.003069  0.000909
  82       -44.275772   -18.248945    0.002915  0.000792
  83       -44.276307   -18.584415    0.002457  0.000695
  84       -44.276774   -18.877329    0.002439  0.000632
  85       -44.277164   -19.122416    0.002732  0.000720
  86       -44.277240   -19.170261    0.002014  0.000619
  87       -44.277314   -19.216320    0.002028  0.000548
  88       -44.277404   -19.272698    0.001974  0.000501
  89       -44.277496   -19.330438    0.001926  0.000489
  90       -44.277584   -19.386177    0.001873  0.000474
  91       -44.277671   -19.440572    0.001828  0.000462
  92       -44.277755   -19.493315    0.001777  0.000448
  93       -44.277837   -19.544812    0.001735  0.000438
  94       -44.277917   -19.594799    0.001686  0.000425
  95       -44.277995   -19.643625    0.001647  0.000415
  96       -44.278070   -19.691073    0.001600  0.000403
  97       -44.278144   -19.737421    0.001563  0.000394
  98       -44.278216   -19.782528    0.001517  0.000383
  99       -44.278286   -19.826586    0.001484  0.000374
 100       -44.278355   -19.869504    0.001439  0.000365
 101       -44.278421   -19.911427    0.001409  0.000356
 102       -44.278487   -19.952295    0.001364  0.000347
 103       -44.278550   -19.992233    0.001339  0.000339
 104       -44.278612   -20.031202    0.001291  0.000331
 105       -44.278673   -20.069300    0.001275  0.000324
 106       -44.278732   -20.106489    0.001220  0.000316
 107       -44.278790   -20.142845    0.001217  0.000309
 108       -44.278847   -20.178372    0.001153  0.000302
 109       -44.278902   -20.213115    0.001168  0.000295
 110       -44.278956   -20.247099    0.001089  0.000289
 111       -44.279009   -20.280329    0.001123  0.000283
 112       -44.279061   -20.312855    0.001059  0.000277
 113       -44.279112   -20.344662    0.001075  0.000271
 114       -44.279162   -20.375815    0.001032  0.000265
 115       -44.279210   -20.406271    0.001036  0.000260
 116       -44.279257   -20.436044    0.001007  0.000256
 117       -44.279304   -20.465046    0.001025  0.000253
 118       -44.279348   -20.493103    0.000990  0.000252
 119       -44.279391   -20.520050    0.001055  0.000260
 120       -44.279431   -20.545084    0.000984  0.000267
 121       -44.279468   -20.568342    0.001125  0.000295
 122       -44.279482   -20.576796    0.000909  0.000252
 123       -44.279501   -20.589071    0.000925  0.000226
 124       -44.279522   -20.602214    0.000906  0.000224
 125       -44.279543   -20.615205    0.000912  0.000222
 126       -44.279564   -20.628083    0.000896  0.000220
 127       -44.279584   -20.640825    0.000898  0.000218
 128       -44.279604   -20.653449    0.000883  0.000216
 129       -44.279624   -20.665945    0.000885  0.000213
 130       -44.279644   -20.678323    0.000871  0.000211
 131       -44.279663   -20.690580    0.000872  0.000209
 132       -44.279682   -20.702720    0.000859  0.000207
 133       -44.279702   -20.714745    0.000860  0.000205
 134       -44.279721   -20.726653    0.000847  0.000203
 135       -44.279739   -20.738450    0.000847  0.000201
 136       -44.279758   -20.750128    0.000834  0.000199

Timings for individual modules:

Sum of individual times         ...       84.259 sec (=   1.404 min)
Geometry relaxation             ...        8.497 sec (=   0.142 min)  10.1 %
XTB module                      ...       75.762 sec (=   1.263 min)  89.9 %
                             ****ORCA TERMINATED NORMALLY****
TOTAL RUN TIME: 0 days 0 hours 4 minutes 26 seconds 144 msec
