
                                 *****************
                                 * O   R   C   A *
                                 *****************

           --- An Ab Initio, DFT and Semiempirical electronic structure package ---

                  #######################################################
                  #                        -***-                        #
                  #          Department of theory and spectroscopy      #
                  #               Directorship: Frank Neese             #
                  #        Max Planck Institute fuer Kohlenforschung    #
                  #                Kaiser Wilhelm Platz 1               #
                  #                 D-45470 Muelheim/Ruhr               #
                  #                      Germany                        #
                  #                                                     #
                  #                  All rights reserved                #
                  #                        -***-                        #
                  #######################################################


                         Program Version 4.2.1 -  RELEASE  -


 With contributions from (in alphabetic order):
   Daniel Aravena         : Magnetic Suceptibility
   Michael Atanasov       : Ab Initio Ligand Field Theory (pilot matlab implementation)
   Alexander A. Auer      : GIAO ZORA, VPT2
   Ute Becker             : Parallelization
   Giovanni Bistoni       : ED, misc. LED, open-shell LED, HFLD
   Martin Brehm           : Molecular dynamics
   Dmytro Bykov           : SCF Hessian
   Vijay G. Chilkuri      : MRCI spin determinant printing, contributions to CSF-ICE
   Dipayan Datta          : RHF DLPNO-CCSD density
   Achintya Kumar Dutta   : EOM-CC, STEOM-CC
   Dmitry Ganyushin       : Spin-Orbit,Spin-Spin,Magnetic field MRCI
   Miquel Garcia          : C-PCM Hessian, Gaussian charge scheme
   Yang Guo               : DLPNO-NEVPT2, CIM, IAO-localization
   Andreas Hansen         : Spin unrestricted coupled pair/coupled cluster methods
   Benjamin Helmich-Paris : CASSCF linear response (MC-RPA)
   Lee Huntington         : MR-EOM, pCC
   Robert Izsak           : Overlap fitted RIJCOSX, COSX-SCS-MP3, EOM
   Christian Kollmar      : KDIIS, OOCD, Brueckner-CCSD(T), CCSD density
   Simone Kossmann        : Meta GGA functionals, TD-DFT gradient, OOMP2, MP2 Hessian
   Martin Krupicka        : AUTO-CI
   Lucas Lang             : DCDCAS
   Dagmar Lenk            : GEPOL surface, SMD
   Dimitrios Liakos       : Extrapolation schemes; Compound Job, initial MDCI parallelization
   Dimitrios Manganas     : Further ROCIS development; embedding schemes
   Dimitrios Pantazis     : SARC Basis sets
   Taras Petrenko         : DFT Hessian,TD-DFT gradient, ASA, ECA, R-Raman, ABS, FL, XAS/XES, NRVS
   Peter Pinski           : DLPNO-MP2, DLPNO-MP2 Gradient
   Christoph Reimann      : Effective Core Potentials
   Marius Retegan         : Local ZFS, SOC
   Christoph Riplinger    : Optimizer, TS searches, QM/MM, DLPNO-CCSD(T), (RO)-DLPNO pert. Triples
   Tobias Risthaus        : Range-separated hybrids, TD-DFT gradient, RPA, STAB
   Michael Roemelt        : Original ROCIS implementation
   Masaaki Saitow         : Open-shell DLPNO-CCSD energy and density
   Barbara Sandhoefer     : DKH picture change effects
   Avijit Sen             : IP-ROCIS
   Kantharuban Sivalingam : CASSCF convergence, NEVPT2, FIC-MRCI
   Bernardo de Souza      : ESD, SOC TD-DFT
   Georgi Stoychev        : AutoAux, RI-MP2 NMR
   Willem Van den Heuvel  : Paramagnetic NMR
   Boris Wezisla          : Elementary symmetry handling
   Frank Wennmohs         : Technical directorship


 We gratefully acknowledge several colleagues who have allowed us to
 interface, adapt or use parts of their codes:
   Stefan Grimme, W. Hujo, H. Kruse,             : VdW corrections, initial TS optimization,
                  C. Bannwarth                     DFT functionals, gCP, sTDA/sTD-DF
   Ed Valeev, F. Pavosevic, A. Kumar             : LibInt (2-el integral package), F12 methods
   Garnet Chan, S. Sharma, J. Yang, R. Olivares  : DMRG
   Ulf Ekstrom                                   : XCFun DFT Library
   Mihaly Kallay                                 : mrcc  (arbitrary order and MRCC methods)
   Andreas Klamt, Michael Diedenhofen            : otool_cosmo (COSMO solvation model)
   Jiri Pittner, Ondrej Demel                    : Mk-CCSD
   Frank Weinhold                                : gennbo (NPA and NBO analysis)
   Christopher J. Cramer and Donald G. Truhlar   : smd solvation model
   Lars Goerigk                                  : TD-DFT with DH, B97 family of functionals
   V. Asgeirsson, H. Jonsson                     : NEB implementation
   FAccTs GmbH                                   : IRC, NEB, NEB-TS, Multilevel, MM, QM/MM, CI optimization
   S Lehtola, MJT Oliveira, MAL Marques          : LibXC Library


 Your calculation uses the libint2 library for the computation of 2-el integrals
 For citations please refer to: http://libint.valeyev.net

 Your ORCA version has been built with support for libXC version: 4.2.3
 For citations please refer to: https://tddft.org/programs/libxc/

 This ORCA versions uses:
   CBLAS   interface :  Fast vector & matrix operations
   LAPACKE interface :  Fast linear algebra routines
   SCALAPACK package :  Parallel linear algebra routines




***************************************
The coordinates will be read from file: init.xyz
***************************************


Your calculation utilizes the SMD solvation module
Please cite in your paper:
A.V. Marenich, C.J. Cramer, D.G. Truhlar J. Phys. Chem. B, 113, (2009), 6378 

Your calculation utilizes the semiempirical GFN2-xTB method
Please cite in your paper:
C. Bannwarth, Ehlert S., S. Grimme,  J. Chem. Theory Comput., 15, (2019), 1652.
   

----- Orbital basis set information -----
Your calculation utilizes the basis: def2-SVP
   F. Weigend and R. Ahlrichs, Phys. Chem. Chem. Phys. 7, 3297 (2005).

================================================================================
                                        WARNINGS
                       Please study these warnings very carefully!
================================================================================


WARNING: The environment variable RSH_COMMAND is not set!
  ===> : All Displacements for the Numerical Hessian calculation
         will be started on localhost

WARNING: Geometry Optimization
  ===> : Switching off AutoStart
         For restart on a previous wavefunction, please use MOREAD

WARNING: Found dipole moment calculation with XTB calculation
  ===> : Switching off dipole moment calculation


INFO   : the flag for use of LIBINT has been found!

================================================================================
                                       INPUT FILE
================================================================================
NAME = optts+freq.inp
|  1> ! XTB2 OptTS NumFreq IRC
|  2> 
|  3> %geom
|  4>  ts_mode
|  5>   {B 6 18}
|  6>  end
|  7>  ts_active_atoms
|  8>   {0 6 10 12 18 21 22 24 25}
|  9>  end
| 10>  calc_hess true
| 11>  numhess true
| 12> end
| 13> 
| 14> %irc
| 15>  maxiter 1000
| 16>  de_init_displ 0.25
| 17>  TolMAXG 1e-3
| 18>  TolRMSG 2e-4
| 19> end
| 20> 
| 21> %cpcm
| 22>  smd true
| 23>  smdsolvent "ch2cl2"
| 24> end
| 25> 
| 26> %pal
| 27>  nprocs 12
| 28> end
| 29> 
| 30> *xyzfile 0 1 init.xyz
| 31> 
| 32>                          ****END OF INPUT****
================================================================================

                       *****************************
                       * Geometry Optimization Run *
                       *****************************

Geometry optimization settings:
Update method            Update   .... Bofill
Choice of coordinates    CoordSys .... Z-matrix Internals
Initial Hessian          InHess   .... Almoef's Model

Convergence Tolerances:
Energy Change            TolE     ....  5.0000e-06 Eh
Max. Gradient            TolMAXG  ....  3.0000e-04 Eh/bohr
RMS Gradient             TolRMSG  ....  1.0000e-04 Eh/bohr
Max. Displacement        TolMAXD  ....  4.0000e-03 bohr
RMS Displacement         TolRMSD  ....  2.0000e-03 bohr
Strict Convergence                ....  False
------------------------------------------------------------------------------
                        ORCA OPTIMIZATION COORDINATE SETUP
------------------------------------------------------------------------------

The optimization will be done in new redundant internal coordinates
Making redundant internal coordinates   ...  (new redundants) done
Following TS mode number                ...    internal coordinate number: 30
TS-active-atoms for coordinate setup... 0 6 10 12 18 21 22 24 25 
Evaluating the initial hessian          ...  (Is done on the fly) done
Evaluating the coordinates              ...  done
Calculating the B-matrix                .... done
Calculating the G-matrix                .... done
Diagonalizing the G-matrix              .... done
Small eigenvalue found = 6.444e-03
Small eigenvalue found = 1.071e-02
Small eigenvalue found = 1.901e-02
Small eigenvalue found = 2.874e-02
The first mode is                       ....  100
The number of degrees of freedom        ....  102

    -----------------------------------------------------------------
                    Redundant Internal Coordinates


    -----------------------------------------------------------------
         Definition                    Initial Value    d2E/dq (diagonal element)
    -----------------------------------------------------------------
      1. B(C   1,C   0)                  1.3996         0.000000   
      2. B(C   2,C   1)                  1.3861         0.000000   
      3. B(C   2,C   0)                  2.4121         0.000000   
      4. B(C   3,C   2)                  1.3936         0.000000   
      5. B(C   3,C   0)                  2.7887         0.000000   
      6. B(C   4,C   0)                  2.4178         0.000000   
      7. B(C   4,C   3)                  1.3909         0.000000   
      8. B(C   5,C   0)                  1.3983         0.000000   
      9. B(C   5,C   4)                  1.3883         0.000000   
     10. B(C   6,C   0)                  1.4616         0.000000   
     11. B(C   6,C   1)                  2.5120         0.000000   
     12. B(C   6,C   5)                  2.4488         0.000000   
     13. B(H   7,C   1)                  1.0809         0.000000   
     14. B(H   8,C   5)                  1.0824         0.000000   
     15. B(H   9,C   3)                  1.0819         0.000000   
     16. B(N  10,C   0)                  2.4346         0.000000   
     17. B(N  10,C   6)                  1.2969         0.000000   
     18. B(C  11,C   6)                  2.4268         0.000000   
     19. B(C  11,N  10)                  1.4609         0.000000   
     20. B(H  12,C  11)                  2.0979         0.000000   
     21. B(H  12,C   6)                  2.0160         0.000000   
     22. B(H  12,N  10)                  1.0268         0.000000   
     23. B(C  13,C  11)                  1.5230         0.000000   
     24. B(C  13,N  10)                  2.4645         0.000000   
     25. B(H  14,C  11)                  1.0898         0.000000   
     26. B(H  15,C  11)                  1.0928         0.000000   
     27. B(H  16,C  13)                  1.0932         0.000000   
     28. B(H  17,C  13)                  1.0937         0.000000   
     29. B(O  18,N  10)                  2.8213         0.000000   
     30. B(O  18,C   6)                  2.2462         0.000000   
     31. B(O  18,C   0)                  2.8357         0.000000   
     32. B(H  19,N  10)                  2.0277         0.000000   
     33. B(H  19,C   6)                  1.0784         0.000000   
     34. B(H  20,O  18)                  0.9628         0.000000   
     35. B(H  20,C   3)                  4.5101         0.000000   
     36. B(O  21,O  18)                  2.4294         0.000000   
     37. B(H  22,O  21)                  1.2399         0.000000   
     38. B(H  22,O  18)                  1.1901         0.000000   
     39. B(H  23,O  21)                  0.9616         0.000000   
     40. B(O  24,N  10)                  2.7747         0.000000   
     41. B(O  24,O  21)                  2.5658         0.000000   
     42. B(O  24,H  12)                  1.8419         0.000000   
     43. B(H  25,O  24)                  1.0228         0.000000   
     44. B(H  25,O  21)                  1.5506         0.000000   
     45. B(H  25,H  12)                  2.0497         0.000000   
     46. B(H  26,O  24)                  0.9620         0.000000   
     47. B(C  27,C  13)                  1.5280         0.000000   
     48. B(H  28,C  27)                  1.0939         0.000000   
     49. B(H  29,C  27)                  1.0942         0.000000   
     50. B(H  30,C   4)                  1.0817         0.000000   
     51. B(H  31,C   2)                  1.0817         0.000000   
     52. B(C  32,C  27)                  1.5265         0.000000   
     53. B(H  33,C  32)                  1.0915         0.000000   
     54. B(H  34,C  32)                  1.0926         0.000000   
     55. B(H  35,C  32)                  1.0924         0.000000   
     56. A(C   1,C   0,C   6)          122.7787         0.000000   
     57. A(C   5,C   0,C   6)          117.7759         0.000000   
     58. A(C   1,C   0,C   5)          119.4453         0.000000   
     59. A(C   0,C   1,H   7)          120.2648         0.000000   
     60. A(C   0,C   1,C   2)          119.9733         0.000000   
     61. A(C   2,C   1,H   7)          119.7468         0.000000   
     62. A(C   1,C   2,H  31)          119.6717         0.000000   
     63. A(C   3,C   2,H  31)          120.0161         0.000000   
     64. A(C   1,C   2,C   3)          120.3117         0.000000   
     65. A(C   2,C   3,C   4)          119.9950         0.000000   
     66. A(C   4,C   3,H   9)          120.0492         0.000000   
     67. A(C   2,C   3,H   9)          119.9551         0.000000   
     68. A(C   5,C   4,H  30)          119.8954         0.000000   
     69. A(C   3,C   4,C   5)          119.8955         0.000000   
     70. A(C   3,C   4,H  30)          120.2087         0.000000   
     71. A(C   0,C   5,C   4)          120.3757         0.000000   
     72. A(C   0,C   5,H   8)          119.4850         0.000000   
     73. A(C   4,C   5,H   8)          120.1393         0.000000   
     74. A(N  10,C   6,H  19)          116.9208         0.000000   
     75. A(C   0,C   6,N  10)          123.7960         0.000000   
     76. A(C   0,C   6,H  19)          117.3053         0.000000   
     77. A(C  11,N  10,H  12)          113.8408         0.000000   
     78. A(C   6,N  10,H  12)          119.9096         0.000000   
     79. A(C   6,N  10,C  11)          123.1712         0.000000   
     80. A(H  14,C  11,H  15)          107.9549         0.000000   
     81. A(C  13,C  11,H  15)          110.4815         0.000000   
     82. A(N  10,C  11,H  15)          107.3139         0.000000   
     83. A(C  13,C  11,H  14)          111.2264         0.000000   
     84. A(N  10,C  11,H  14)          108.3602         0.000000   
     85. A(N  10,C  11,C  13)          111.3520         0.000000   
     86. A(O  24,H  12,H  25)           29.8690         0.000000   
     87. A(N  10,H  12,H  25)          123.3796         0.000000   
     88. A(N  10,H  12,O  24)          149.3018         0.000000   
     89. A(C  11,C  13,H  17)          109.2100         0.000000   
     90. A(C  11,C  13,H  16)          108.8542         0.000000   
     91. A(H  16,C  13,H  17)          107.0372         0.000000   
     92. A(H  17,C  13,C  27)          109.8890         0.000000   
     93. A(H  16,C  13,C  27)          109.6255         0.000000   
     94. A(C  11,C  13,C  27)          112.0882         0.000000   
     95. A(H  20,O  18,H  22)          106.2736         0.000000   
     96. A(H  22,O  21,H  25)          117.7493         0.000000   
     97. A(H  23,O  21,H  25)          111.8550         0.000000   
     98. A(H  22,O  21,H  23)          107.7966         0.000000   
     99. L(O  18,H  22,O  21,H  25, 1) 177.4926         0.000000   
    100. L(O  18,H  22,O  21,H  25, 2) 180.7001         0.000000   
    101. A(H  12,O  24,H  26)          132.0065         0.000000   
    102. A(H  12,O  24,H  25)           86.3867         0.000000   
    103. A(H  25,O  24,H  26)          106.8541         0.000000   
    104. A(H  12,H  25,O  21)          107.2694         0.000000   
    105. A(O  21,H  25,O  24)          171.0108         0.000000   
    106. A(H  12,H  25,O  24)           63.7443         0.000000   
    107. A(H  29,C  27,C  32)          109.5941         0.000000   
    108. A(H  28,C  27,C  32)          109.5552         0.000000   
    109. A(C  13,C  27,C  32)          112.6140         0.000000   
    110. A(H  28,C  27,H  29)          106.3897         0.000000   
    111. A(C  13,C  27,H  29)          109.3347         0.000000   
    112. A(C  13,C  27,H  28)          109.1595         0.000000   
    113. A(H  34,C  32,H  35)          107.6341         0.000000   
    114. A(H  33,C  32,H  35)          107.7318         0.000000   
    115. A(C  27,C  32,H  35)          111.0453         0.000000   
    116. A(H  33,C  32,H  34)          107.7430         0.000000   
    117. A(C  27,C  32,H  34)          111.1496         0.000000   
    118. A(C  27,C  32,H  33)          111.3637         0.000000   
    119. D(C   2,C   1,C   0,C   5)     -0.4421         0.000000   
    120. D(H   7,C   1,C   0,C   6)     -1.6866         0.000000   
    121. D(C   2,C   1,C   0,C   6)    179.7280         0.000000   
    122. D(H   7,C   1,C   0,C   5)    178.1433         0.000000   
    123. D(C   3,C   2,C   1,C   0)     -0.0728         0.000000   
    124. D(H  31,C   2,C   1,H   7)      1.0585         0.000000   
    125. D(H  31,C   2,C   1,C   0)    179.6513         0.000000   
    126. D(C   3,C   2,C   1,H   7)   -178.6656         0.000000   
    127. D(H   9,C   3,C   2,C   1)   -179.9857         0.000000   
    128. D(C   4,C   3,C   2,H  31)   -179.3962         0.000000   
    129. D(H   9,C   3,C   2,H  31)      0.2912         0.000000   
    130. D(C   4,C   3,C   2,C   1)      0.3269         0.000000   
    131. D(H  30,C   4,C   3,C   2)    179.6995         0.000000   
    132. D(C   5,C   4,C   3,H   9)   -179.7471         0.000000   
    133. D(C   5,C   4,C   3,C   2)     -0.0599         0.000000   
    134. D(H  30,C   4,C   3,H   9)      0.0124         0.000000   
    135. D(H   8,C   5,C   4,H  30)     -0.2678         0.000000   
    136. D(C   0,C   5,C   4,H  30)    179.7795         0.000000   
    137. D(H   8,C   5,C   0,C   6)      0.5956         0.000000   
    138. D(C   0,C   5,C   4,C   3)     -0.4604         0.000000   
    139. D(H   8,C   5,C   0,C   1)   -179.2428         0.000000   
    140. D(H   8,C   5,C   4,C   3)    179.4924         0.000000   
    141. D(C   4,C   5,C   0,C   1)      0.7103         0.000000   
    142. D(C   4,C   5,C   0,C   6)   -179.4514         0.000000   
    143. D(H  19,C   6,C   0,C   5)     -3.5407         0.000000   
    144. D(H  19,C   6,C   0,C   1)    176.2919         0.000000   
    145. D(N  10,C   6,C   0,C   5)    159.9332         0.000000   
    146. D(N  10,C   6,C   0,C   1)    -20.2342         0.000000   
    147. D(H  12,N  10,C   6,C   0)     19.3999         0.000000   
    148. D(C  11,N  10,C   6,H  19)    -18.1441         0.000000   
    149. D(C  11,N  10,C   6,C   0)    178.3237         0.000000   
    150. D(H  12,N  10,C   6,H  19)   -177.0679         0.000000   
    151. D(H  15,C  11,N  10,H  12)     65.9950         0.000000   
    152. D(H  14,C  11,N  10,H  12)   -177.6664         0.000000   
    153. D(H  14,C  11,N  10,C   6)     22.2588         0.000000   
    154. D(C  13,C  11,N  10,H  12)    -55.0284         0.000000   
    155. D(H  15,C  11,N  10,C   6)    -94.0799         0.000000   
    156. D(C  13,C  11,N  10,C   6)    144.8968         0.000000   
    157. D(H  25,H  12,N  10,C  11)    -70.0341         0.000000   
    158. D(H  25,H  12,N  10,C   6)     90.7525         0.000000   
    159. D(O  24,H  12,N  10,C  11)    -47.6143         0.000000   
    160. D(O  24,H  12,N  10,C   6)    113.1723         0.000000   
    161. D(C  27,C  13,C  11,H  15)     59.2397         0.000000   
    162. D(C  27,C  13,C  11,H  14)    -60.6344         0.000000   
    163. D(C  27,C  13,C  11,N  10)    178.3911         0.000000   
    164. D(H  17,C  13,C  11,H  15)   -178.7418         0.000000   
    165. D(H  17,C  13,C  11,H  14)     61.3842         0.000000   
    166. D(H  17,C  13,C  11,N  10)    -59.5903         0.000000   
    167. D(H  16,C  13,C  11,H  15)    -62.2004         0.000000   
    168. D(H  16,C  13,C  11,H  14)    177.9256         0.000000   
    169. D(H  16,C  13,C  11,N  10)     56.9511         0.000000   
    170. D(H  25,O  21,O  18,H  20)   -104.1808         0.000000   
    171. D(H  23,O  21,O  18,H  20)    128.6482         0.000000   
    172. D(H  26,O  24,H  12,H  25)   -109.5174         0.000000   
    173. D(H  26,O  24,H  12,N  10)   -149.2709         0.000000   
    174. D(H  25,O  24,H  12,N  10)    -39.7535         0.000000   
    175. D(H  12,H  25,O  21,H  22)    -11.0372         0.000000   
    176. D(O  24,H  25,O  21,H  23)    113.2230         0.000000   
    177. D(O  24,H  25,O  21,H  22)    -12.4469         0.000000   
    178. D(O  21,H  25,H  12,O  24)   -179.7544         0.000000   
    179. D(O  21,H  25,H  12,N  10)    -22.7686         0.000000   
    180. D(H  12,H  25,O  21,H  23)    114.6327         0.000000   
    181. D(O  24,H  25,H  12,N  10)    156.9858         0.000000   
    182. D(O  21,H  25,O  24,H  12)      1.5010         0.000000   
    183. D(O  21,H  25,O  24,H  26)    134.4629         0.000000   
    184. D(H  12,H  25,O  24,H  26)    132.9620         0.000000   
    185. D(C  32,C  27,C  13,H  16)    -58.1152         0.000000   
    186. D(C  32,C  27,C  13,C  11)   -179.1110         0.000000   
    187. D(H  29,C  27,C  13,H  17)    -62.8246         0.000000   
    188. D(H  29,C  27,C  13,H  16)    179.8013         0.000000   
    189. D(H  29,C  27,C  13,C  11)     58.8055         0.000000   
    190. D(H  28,C  27,C  13,H  17)   -178.8315         0.000000   
    191. D(H  28,C  27,C  13,H  16)     63.7945         0.000000   
    192. D(C  32,C  27,C  13,H  17)     59.2589         0.000000   
    193. D(H  28,C  27,C  13,C  11)    -57.2014         0.000000   
    194. D(H  35,C  32,C  27,H  29)   -177.9929         0.000000   
    195. D(H  35,C  32,C  27,H  28)    -61.6151         0.000000   
    196. D(H  35,C  32,C  27,C  13)     60.0703         0.000000   
    197. D(H  34,C  32,C  27,H  29)     62.2130         0.000000   
    198. D(H  34,C  32,C  27,H  28)    178.5907         0.000000   
    199. D(H  34,C  32,C  27,C  13)    -59.7239         0.000000   
    200. D(H  33,C  32,C  27,H  29)    -57.9323         0.000000   
    201. D(H  33,C  32,C  27,H  28)     58.4454         0.000000   
    202. D(H  33,C  32,C  27,C  13)   -179.8692         0.000000   
    -----------------------------------------------------------------

Number of atoms                         .... 36
Number of degrees of freedom            .... 202

         *************************************************************
         *                GEOMETRY OPTIMIZATION CYCLE   1            *
         *************************************************************
      -----------------------------------------------------------      
     |                   =====================                   |     
     |                           x T B                           |     
     |                   =====================                   |     
     |                         S. Grimme                         |     
     |          Mulliken Center for Theoretical Chemistry        |     
     |                    University of Bonn                     |     
      -----------------------------------------------------------      

   * xtb version 6.3.0 (49875a8) compiled by 'schneider@apollo14' on 2020-05-23

   xtb is free software: you can redistribute it and/or modify it under
   the terms of the GNU Lesser General Public License as published by
   the Free Software Foundation, either version 3 of the License, or
   (at your option) any later version.
   
   xtb is distributed in the hope that it will be useful,
   but WITHOUT ANY WARRANTY; without even the implied warranty of
   MERCHANTABILITY or FITNESS FOR A PARTICULAR PURPOSE.  See the
   GNU Lesser General Public License for more details.
   
   Cite this work as:
   * S. Grimme, C. Bannwarth, P. Shushkov, J. Chem. Theory Comput., 2017,
     13, 1989-2009. DOI: 10.1021/acs.jctc.7b00118
   * C. Bannwarth, S. Ehlert and S. Grimme., J. Chem. Theory Comput., 2019,
     15, 1652-1671. DOI: 10.1021/acs.jctc.8b01176
   * P. Pracht, E. Caldeweyher, S. Ehlert, S. Grimme, ChemRxiv, 2019, preprint.
     DOI: 10.26434/chemrxiv.8326202.v1
   
   for GFN-FF:
   * S. Spicher and S. Grimme, Angew. Chem. Int. Ed., 2020,
     DOI: 10.1002/anie.202004239
   
   for DFT-D4:
   * E. Caldeweyher, C. Bannwarth and S. Grimme, J. Chem. Phys., 2017,
     147, 034112. DOI: 10.1063/1.4993215
   * E. Caldeweyher, S. Ehlert, A. Hansen, H. Neugebauer, S. Spicher,
     C. Bannwarth and S. Grimme, J. Chem. Phys., 2019, 150, 154122.
     DOI: 10.1063/1.5090222
   
   for sTDA-xTB:
   * S. Grimme and C. Bannwarth, J. Chem. Phys., 2016, 145, 054103.
     DOI: 10.1063/1.4959605
   
   in the mass-spec context:
   * V. Asgeirsson, C. Bauer and S. Grimme, Chem. Sci., 2017, 8, 4879.
     DOI: 10.1039/c7sc00601b
   * J. Koopman and S. Grimme, ACS Omega 2019, 4, 12, 15120-15133.
     DOI: 10.1021/acsomega.9b02011
   
   for metadynamics refer to:
   * S. Grimme, J. Chem. Theory Comput., 2019, 155, 2847-2862
     DOI: 10.1021/acs.jctc.9b00143
   
   with help from (in alphabetical order)
   C. Bannwarth, F. Bohle, G. Brandenburg, E. Caldeweyher, M. Checinski,
   S. Dohm, S. Ehlert, S. Ehrlich, F. März, H. Neugebauer, J. Pisarek,
   P. Pracht, P. Shushkov, and S. Spicher.
   
 * started run on 2020/06/20 at 08:14:34.525     

           -------------------------------------------------
          |                Calculation Setup                |
           -------------------------------------------------

          program call               : /opt/orca/otool_xtb optts+freq_XTB.xyz --grad -c 0 -u 0 -P 12 --namespace optts+freq --gbsa CH2Cl2
          calculation namespace      : optts+freq
          coordinate file            : optts+freq_XTB.xyz
          number of atoms            :                    36
          number of electrons        :                    88
          charge                     :                     0
          spin                       :                   0.0
          first test random number   :      0.88471912060877

   ID    Z sym.   atoms
    1    6 C      1-7, 12, 14, 28, 33
    2    1 H      8-10, 13, 15-18, 20, 21, 23, 24, 26, 27, 29-32, 34-36
    3    7 N      11
    4    8 O      19, 22, 25

molecular fragmentation (1/2 indicates fragments):
111111111111111111212222222111111111
# atoms in fragment 1/2:    28     8
 fragment masses (1/2) :      162.25       53.04
CMA distance (Bohr)    :   4.966
constraining FC (au)   :  0.0500
########################################################################
[WARNING] Please study the warnings concerning your input carefully
-1- prog_main_parseArguments: Process number higher than OMP_NUM_THREADS, I hope you know what you are doing.
########################################################################
 Solvent             : CH2Cl2
 Using internal parameter file: .param_gbsa2_CH2Cl2
 Gsolv ref. state (COSMO-RS): gsolv [1 M gas/solution]
 temperature (mdtemp)       :    298.14999999999998     
 dielectric constant        :    8.9299999999999997     
 rho                        :    1.3300000000000003     
 mass                       :    84.930000000000007     
 surface tension            :    15.568945408385856     
 probe radius               :   0.71987590000000001     
 Gshift (Eh)                :    4.4408291734517593E-003
 c1                         :    1.4917377599999999     
 soset                      :    0.0000000000000000     
 HB correction              :  F

           -------------------------------------------------
          |                 G F N 2 - x T B                 |
           -------------------------------------------------

        Reference                      10.1021/acs.jctc.8b01176
      * Hamiltonian:
        H0-scaling (s, p, d)           1.850000    2.230000    2.230000
        zeta-weighting                 0.500000
      * Dispersion:
        s8                             2.700000
        a1                             0.520000
        a2                             5.000000
        s9                             5.000000
      * Repulsion:
        kExp                           1.500000    1.000000
        rExp                           1.000000
      * Coulomb:
        alpha                          2.000000
        third order                    shell-resolved
        anisotropic                    true
        a3                             3.000000
        a5                             4.000000
        cn-shift                       1.200000
        cn-exp                         4.000000
        max-rad                        5.000000


          ...................................................
          :                      SETUP                      :
          :.................................................:
          :  # basis functions                  81          :
          :  # atomic orbitals                  81          :
          :  # shells                           51          :
          :  # electrons                        88          :
          :  max. iterations                   250          :
          :  Hamiltonian                  GFN2-xTB          :
          :  restarted?                      false          :
          :  GBSA solvation                   true          :
          :  PC potential                    false          :
          :  electronic temp.          300.0000000     K    :
          :  accuracy                    1.0000000          :
          :  -> integral cutoff          0.2500000E+02      :
          :  -> integral neglect         0.1000000E-07      :
          :  -> SCF convergence          0.1000000E-05 Eh   :
          :  -> wf. convergence          0.1000000E-03 e    :
          :  Broyden damping             0.4000000          :
          ...................................................

 iter      E             dE          RMSdq      gap      omega  full diag
   1    -49.8701627 -0.498702E+02  0.393E+00    3.50       0.0  T
   2    -49.9572473 -0.870846E-01  0.225E+00    2.93       1.0  T
   3    -49.9580841 -0.836775E-03  0.931E-01    2.08       1.0  T
   4    -49.9619514 -0.386731E-02  0.390E-01    2.26       1.0  T
   5    -49.9650785 -0.312711E-02  0.845E-02    2.23       1.0  T
   6    -49.9651269 -0.484362E-04  0.370E-02    2.27       1.0  T
   7    -49.9651342 -0.730978E-05  0.180E-02    2.28       1.0  T
   8    -49.9651375 -0.326942E-05  0.618E-03    2.28       2.7  T
   9    -49.9651377 -0.209047E-06  0.210E-03    2.28       8.0  T
  10    -49.9651378 -0.574804E-07  0.103E-03    2.28      16.2  T
  11    -49.9651378 -0.376906E-08  0.364E-04    2.28      45.8  T
  12    -49.9651378 -0.111338E-08  0.125E-04    2.28     133.8  T

   *** convergence criteria satisfied after 12 iterations ***

         #    Occupation            Energy/Eh            Energy/eV
      -------------------------------------------------------------
         1        2.0000           -0.6872654             -18.7014
       ...           ...                  ...                  ...
        38        2.0000           -0.4307775             -11.7221
        39        2.0000           -0.4244774             -11.5506
        40        2.0000           -0.4209752             -11.4553
        41        2.0000           -0.4187474             -11.3947
        42        2.0000           -0.4051980             -11.0260
        43        2.0000           -0.3890638             -10.5870
        44        2.0000           -0.3795969             -10.3294 (HOMO)
        45                         -0.2958404              -8.0502 (LUMO)
        46                         -0.2400305              -6.5316
        47                         -0.2095885              -5.7032
        48                         -0.1030514              -2.8042
        49                         -0.0228534              -0.6219
       ...                                ...                  ...
        81                          0.6409309              17.4406
      -------------------------------------------------------------
                  HL-Gap            0.0837565 Eh            2.2791 eV
             Fermi-level           -0.3377187 Eh           -9.1898 eV

 SCC (total)                   0 d,  0 h,  0 min,  0.105 sec
 SCC setup                      ...        0 min,  0.001 sec (  1.390%)
 Dispersion                     ...        0 min,  0.001 sec (  0.499%)
 classical contributions        ...        0 min,  0.000 sec (  0.160%)
 integral evaluation            ...        0 min,  0.019 sec ( 18.217%)
 iterations                     ...        0 min,  0.050 sec ( 47.453%)
 molecular gradient             ...        0 min,  0.032 sec ( 30.877%)
 printout                       ...        0 min,  0.001 sec (  1.384%)

         :::::::::::::::::::::::::::::::::::::::::::::::::::::
         ::                     SUMMARY                     ::
         :::::::::::::::::::::::::::::::::::::::::::::::::::::
         :: total energy             -49.342251301475 Eh    ::
         :: total w/o Gsasa/hb       -49.324051081939 Eh    ::
         :: gradient norm              0.030089829445 Eh/a0 ::
         :: HOMO-LUMO gap              2.279130483679 eV    ::
         ::.................................................::
         :: SCC energy               -49.983338005619 Eh    ::
         :: -> isotropic ES            0.177955028916 Eh    ::
         :: -> anisotropic ES         -0.024899992349 Eh    ::
         :: -> anisotropic XC          0.022936745827 Eh    ::
         :: -> dispersion             -0.028670456398 Eh    ::
         :: -> Gsolv                  -0.040887948447 Eh    ::
         ::    -> Gborn               -0.022687728910 Eh    ::
         ::    -> Gsasa               -0.022641048710 Eh    ::
         ::    -> Ghb                  0.000000000000 Eh    ::
         ::    -> Gshift               0.004440829173 Eh    ::
         :: repulsion energy           0.640893207024 Eh    ::
         :: add. restraining           0.000000000000 Eh    ::
         :::::::::::::::::::::::::::::::::::::::::::::::::::::

           -------------------------------------------------
          |                Property Printout                |
           -------------------------------------------------

    * Orbital Energies and Occupations

         #    Occupation            Energy/Eh            Energy/eV
      -------------------------------------------------------------
         1        2.0000           -0.6872654             -18.7014
       ...           ...                  ...                  ...
        32        2.0000           -0.4666523             -12.6983
        33        2.0000           -0.4514450             -12.2844
        34        2.0000           -0.4486614             -12.2087
        35        2.0000           -0.4424630             -12.0400
        36        2.0000           -0.4379475             -11.9172
        37        2.0000           -0.4374699             -11.9042
        38        2.0000           -0.4307775             -11.7221
        39        2.0000           -0.4244774             -11.5506
        40        2.0000           -0.4209752             -11.4553
        41        2.0000           -0.4187474             -11.3947
        42        2.0000           -0.4051980             -11.0260
        43        2.0000           -0.3890638             -10.5870
        44        2.0000           -0.3795969             -10.3294 (HOMO)
        45                         -0.2958404              -8.0502 (LUMO)
        46                         -0.2400305              -6.5316
        47                         -0.2095885              -5.7032
        48                         -0.1030514              -2.8042
        49                         -0.0228534              -0.6219
        50                          0.0257286               0.7001
        51                          0.0742695               2.0210
        52                          0.0893509               2.4314
        53                          0.0977014               2.6586
        54                          0.1120327               3.0486
        55                          0.1196137               3.2549
       ...                                ...                  ...
        81                          0.6409309              17.4406
      -------------------------------------------------------------
                  HL-Gap            0.0837565 Eh            2.2791 eV
             Fermi-level           -0.3377187 Eh           -9.1898 eV

     #   Z        covCN         q      C6AA      α(0)
     1   6 C      2.970     0.015    27.678     8.630
     2   6 C      2.917    -0.026    28.654     8.778
     3   6 C      2.914    -0.024    28.594     8.769
     4   6 C      2.916    -0.018    28.464     8.749
     5   6 C      2.913    -0.024    28.600     8.769
     6   6 C      2.923    -0.024    28.610     8.772
     7   6 C      2.846     0.093    25.919     8.344
     8   1 H      0.926     0.060     2.200     2.320
     9   1 H      0.925     0.058     2.227     2.334
    10   1 H      0.925     0.055     2.256     2.349
    11   7 N      2.682    -0.055    22.306     7.014
    12   6 C      3.745    -0.015    20.916     6.524
    13   1 H      0.859     0.246     0.898     1.485
    14   6 C      3.802    -0.071    21.858     6.656
    15   1 H      0.925     0.073     2.055     2.242
    16   1 H      0.924     0.079     1.987     2.204
    17   1 H      0.924     0.058     2.228     2.334
    18   1 H      0.924     0.055     2.257     2.350
    19   8 O      1.412    -0.699    27.984     7.125
    20   1 H      0.926     0.104     1.746     2.066
    21   1 H      0.805     0.244     0.919     1.505
    22   8 O      1.289    -0.805    31.253     7.515
    23   1 H      1.075     0.324     0.637     1.246
    24   1 H      0.805     0.217     1.032     1.596
    25   8 O      1.598    -0.653    26.502     6.948
    26   1 H      0.800     0.322     0.659     1.275
    27   1 H      0.805     0.271     0.815     1.418
    28   6 C      3.800    -0.055    21.561     6.611
    29   1 H      0.924     0.036     2.507     2.476
    30   1 H      0.924     0.040     2.450     2.448
    31   1 H      0.925     0.056     2.251     2.346
    32   1 H      0.925     0.053     2.286     2.364
    33   6 C      3.750    -0.105    22.578     6.777
    34   1 H      0.924     0.039     2.467     2.456
    35   1 H      0.924     0.040     2.449     2.447
    36   1 H      0.924     0.037     2.483     2.464

 Mol. C6AA /au·bohr⁶  :      10847.280704
 Mol. C8AA /au·bohr⁸  :     239919.315288
 Mol. α(0) /au        :        159.706068


Wiberg/Mayer (AO) data.
largest (>0.10) Wiberg bond orders for each atom
          total WBO             WBO to atom ...
     1  C   3.985        C    6 1.366    C    2 1.361    C    7 1.098
     2  C   3.989        C    3 1.465    C    1 1.361    H    8 0.959    C    5 0.105
     3  C   3.991        C    2 1.465    C    4 1.423    H   32 0.969    C    6 0.104
     4  C   3.986        C    5 1.432    C    3 1.423    H   10 0.970
     5  C   3.990        C    6 1.456    C    4 1.432    H   31 0.969    C    2 0.105
     6  C   3.986        C    5 1.456    C    1 1.366    H    9 0.967    C    3 0.104
     7  C   3.927        N   11 1.568    C    1 1.098    H   20 0.948    O   19 0.198
     8  H   0.996        C    2 0.959
     9  H   0.997        C    6 0.967
    10  H   0.996        C    4 0.970
    11  N   3.629        C    7 1.568    C   12 0.980    H   13 0.856
    12  C   3.952        C   14 1.000    N   11 0.980    H   15 0.968    H   16 0.949
    13  H   0.939        N   11 0.856
    14  C   3.989        C   28 1.005    C   12 1.000    H   18 0.975    H   17 0.973
    15  H   0.995        C   12 0.968
    16  H   0.990        C   12 0.949
    17  H   0.997        C   14 0.973
    18  H   0.997        C   14 0.975
    19  O   1.866        H   21 0.936    H   23 0.476    C    7 0.198    O   22 0.110
    20  H   0.988        C    7 0.948
    21  H   0.941        O   19 0.936
    22  O   1.658        H   24 0.948    H   23 0.414    H   26 0.126    O   19 0.110
    23  H   0.895        O   19 0.476    O   22 0.414
    24  H   0.953        O   22 0.948
    25  O   1.821        H   27 0.920    H   26 0.765
    26  H   0.896        O   25 0.765    O   22 0.126
    27  H   0.926        O   25 0.920
    28  C   3.995        C   33 1.020    C   14 1.005    H   29 0.978    H   30 0.977
    29  H   0.999        C   28 0.978
    30  H   0.998        C   28 0.977
    31  H   0.996        C    5 0.969
    32  H   0.997        C    3 0.969
    33  C   3.995        C   28 1.020    H   36 0.988    H   35 0.987    H   34 0.987
    34  H   0.998        C   33 0.987
    35  H   0.998        C   33 0.987
    36  H   0.999        C   33 0.988
Topologies differ in total number of bonds
Writing topology from bond orders to xtbtopo.mol

molecular dipole:
                 x           y           z       tot (Debye)
 q only:        0.546      -2.688       1.373
   full:        0.679      -2.110       1.291       6.519
molecular quadrupole (traceless):
                xx          xy          yy          xz          yz          zz
 q only:        6.187      43.399     -16.083      -9.332      25.049       9.896
  q+dip:        1.250      31.283     -11.837      -9.940      24.191      10.587
   full:        0.409      33.096     -10.481     -10.033      22.332      10.073


           -------------------------------------------------
          | TOTAL ENERGY              -49.342251301475 Eh   |
          | GRADIENT NORM               0.030089829445 Eh/α |
          | HOMO-LUMO GAP               2.279130483679 eV   |
           -------------------------------------------------

------------------------------------------------------------------------
 * finished run on 2020/06/20 at 08:14:34.676     
------------------------------------------------------------------------
 total:
 * wall-time:     0 d,  0 h,  0 min,  0.151 sec
 *  cpu-time:     0 d,  0 h,  0 min,  1.692 sec
 * ratio c/w:    11.217 speedup
 SCF:
 * wall-time:     0 d,  0 h,  0 min,  0.106 sec
 *  cpu-time:     0 d,  0 h,  0 min,  1.218 sec
 * ratio c/w:    11.505 speedup


-------------------------   --------------------
FINAL SINGLE POINT ENERGY       -49.342251301480
-------------------------   --------------------


----------------------------------------------------------------------------
                           ORCA NUMERICAL FREQUENCIES
                              (12-process run)
----------------------------------------------------------------------------

Number of atoms                ... 36
Central differences            ... used
Number of displacements        ... 216
Numerical increment            ... 5.000e-03 bohr
IR-spectrum generation         ... on
Raman-spectrum generation      ... off
Surface Crossing Hessian       ... off
List of participating nodes    ...  optts+freq.hostnames

The output will be reduced. Please look at the following files:
SCF program output             ... >optts+freq.lastscf
Integral program output        ... >optts+freq.lastint
Gradient program output        ... >optts+freq.lastgrad
Dipole moment program output   ... >optts+freq.lastmom
AutoCI program output          ... >optts+freq.lastautoci


         <<< Energy and Gradient at the input geometry >>>

        <<< Energy and Gradient at displaced geometries >>>
             <<<Displacing   1/coordinate 3 (+)>>>
             <<<Displacing   3/coordinate 2 (+)>>>
             <<<Displacing   2/coordinate 3 (+)>>>
             <<<Displacing   3/coordinate 3 (+)>>>
             <<<Displacing   1/coordinate 1 (+)>>>
             <<<Displacing   4/coordinate 2 (+)>>>
             <<<Displacing   4/coordinate 1 (+)>>>
             <<<Displacing   3/coordinate 1 (+)>>>
             <<<Displacing   4/coordinate 3 (+)>>>
             <<<Displacing   2/coordinate 1 (+)>>>
             <<<Displacing   1/coordinate 3 (-)>>>
             <<<Displacing   2/coordinate 3 (-)>>>
             <<<Displacing   1/coordinate 2 (+)>>>
             <<<Displacing   3/coordinate 2 (-)>>>
             <<<Displacing   3/coordinate 3 (-)>>>
             <<<Displacing   2/coordinate 2 (+)>>>
             <<<Displacing   1/coordinate 1 (-)>>>
             <<<Displacing   4/coordinate 1 (-)>>>
             <<<Displacing   4/coordinate 2 (-)>>>
             <<<Displacing   3/coordinate 1 (-)>>>
             <<<Displacing   2/coordinate 1 (-)>>>
             <<<Displacing   1/coordinate 2 (-)>>>
             <<<Displacing   4/coordinate 3 (-)>>>
             <<<Displacing   2/coordinate 2 (-)>>>
             <<<Displacing   5/coordinate 1 (+)>>>
             <<<Displacing   5/coordinate 2 (+)>>>
             <<<Displacing   5/coordinate 3 (+)>>>
             <<<Displacing   5/coordinate 2 (-)>>>
             <<<Displacing   6/coordinate 1 (+)>>>
             <<<Displacing   6/coordinate 3 (+)>>>
             <<<Displacing   7/coordinate 2 (+)>>>
             <<<Displacing   5/coordinate 1 (-)>>>
             <<<Displacing   5/coordinate 3 (-)>>>
             <<<Displacing   6/coordinate 1 (-)>>>
             <<<Displacing   7/coordinate 2 (-)>>>
             <<<Displacing   6/coordinate 3 (-)>>>
             <<<Displacing   6/coordinate 2 (+)>>>
             <<<Displacing   7/coordinate 3 (+)>>>
             <<<Displacing   7/coordinate 1 (+)>>>
             <<<Displacing   8/coordinate 2 (+)>>>
             <<<Displacing   8/coordinate 3 (+)>>>
             <<<Displacing   8/coordinate 1 (+)>>>
             <<<Displacing   7/coordinate 1 (-)>>>
             <<<Displacing   7/coordinate 3 (-)>>>
             <<<Displacing   6/coordinate 2 (-)>>>
             <<<Displacing   8/coordinate 1 (-)>>>
             <<<Displacing   8/coordinate 3 (-)>>>
             <<<Displacing   8/coordinate 2 (-)>>>
             <<<Displacing   9/coordinate 1 (+)>>>
             <<<Displacing   9/coordinate 2 (+)>>>
             <<<Displacing   9/coordinate 3 (+)>>>
             <<<Displacing  10/coordinate 1 (+)>>>
             <<<Displacing   9/coordinate 2 (-)>>>
             <<<Displacing   9/coordinate 1 (-)>>>
             <<<Displacing  10/coordinate 2 (+)>>>
             <<<Displacing   9/coordinate 3 (-)>>>
             <<<Displacing  10/coordinate 3 (+)>>>
             <<<Displacing  11/coordinate 2 (+)>>>
             <<<Displacing  10/coordinate 1 (-)>>>
             <<<Displacing  10/coordinate 2 (-)>>>
             <<<Displacing  10/coordinate 3 (-)>>>
             <<<Displacing  11/coordinate 2 (-)>>>
             <<<Displacing  11/coordinate 3 (+)>>>
             <<<Displacing  11/coordinate 3 (-)>>>
             <<<Displacing  11/coordinate 1 (+)>>>
             <<<Displacing  12/coordinate 2 (+)>>>
             <<<Displacing  11/coordinate 1 (-)>>>
             <<<Displacing  12/coordinate 3 (+)>>>
             <<<Displacing  12/coordinate 2 (-)>>>
             <<<Displacing  12/coordinate 1 (+)>>>
             <<<Displacing  12/coordinate 1 (-)>>>
             <<<Displacing  12/coordinate 3 (-)>>>
             <<<Displacing  13/coordinate 1 (+)>>>
             <<<Displacing  13/coordinate 2 (+)>>>
             <<<Displacing  14/coordinate 1 (+)>>>
             <<<Displacing  13/coordinate 3 (+)>>>
             <<<Displacing  13/coordinate 1 (-)>>>
             <<<Displacing  13/coordinate 2 (-)>>>
             <<<Displacing  14/coordinate 3 (+)>>>
             <<<Displacing  13/coordinate 3 (-)>>>
             <<<Displacing  14/coordinate 1 (-)>>>
             <<<Displacing  14/coordinate 2 (+)>>>
             <<<Displacing  14/coordinate 3 (-)>>>
             <<<Displacing  15/coordinate 1 (+)>>>
             <<<Displacing  14/coordinate 2 (-)>>>
             <<<Displacing  16/coordinate 2 (+)>>>
             <<<Displacing  15/coordinate 1 (-)>>>
             <<<Displacing  15/coordinate 2 (+)>>>
             <<<Displacing  16/coordinate 2 (-)>>>
             <<<Displacing  15/coordinate 3 (+)>>>
             <<<Displacing  16/coordinate 1 (+)>>>
             <<<Displacing  15/coordinate 2 (-)>>>
             <<<Displacing  15/coordinate 3 (-)>>>
             <<<Displacing  16/coordinate 1 (-)>>>
             <<<Displacing  16/coordinate 3 (+)>>>
             <<<Displacing  16/coordinate 3 (-)>>>
             <<<Displacing  18/coordinate 1 (+)>>>
             <<<Displacing  17/coordinate 2 (+)>>>
             <<<Displacing  17/coordinate 1 (+)>>>
             <<<Displacing  17/coordinate 2 (-)>>>
             <<<Displacing  17/coordinate 1 (-)>>>
             <<<Displacing  17/coordinate 3 (+)>>>
             <<<Displacing  18/coordinate 1 (-)>>>
             <<<Displacing  17/coordinate 3 (-)>>>
             <<<Displacing  18/coordinate 2 (+)>>>
             <<<Displacing  18/coordinate 3 (+)>>>
             <<<Displacing  19/coordinate 1 (+)>>>
             <<<Displacing  18/coordinate 2 (-)>>>
             <<<Displacing  18/coordinate 3 (-)>>>
             <<<Displacing  19/coordinate 2 (+)>>>
             <<<Displacing  19/coordinate 1 (-)>>>
             <<<Displacing  19/coordinate 2 (-)>>>
             <<<Displacing  20/coordinate 1 (+)>>>
             <<<Displacing  20/coordinate 2 (+)>>>
             <<<Displacing  19/coordinate 3 (+)>>>
             <<<Displacing  20/coordinate 1 (-)>>>
             <<<Displacing  20/coordinate 2 (-)>>>
             <<<Displacing  19/coordinate 3 (-)>>>
             <<<Displacing  20/coordinate 3 (+)>>>
             <<<Displacing  20/coordinate 3 (-)>>>
             <<<Displacing  21/coordinate 1 (+)>>>
             <<<Displacing  21/coordinate 2 (+)>>>
             <<<Displacing  21/coordinate 1 (-)>>>
             <<<Displacing  22/coordinate 1 (+)>>>
             <<<Displacing  21/coordinate 3 (+)>>>
             <<<Displacing  21/coordinate 2 (-)>>>
             <<<Displacing  22/coordinate 1 (-)>>>
             <<<Displacing  21/coordinate 3 (-)>>>
             <<<Displacing  22/coordinate 2 (+)>>>
             <<<Displacing  23/coordinate 1 (+)>>>
             <<<Displacing  23/coordinate 1 (-)>>>
             <<<Displacing  22/coordinate 2 (-)>>>
             <<<Displacing  23/coordinate 2 (+)>>>
             <<<Displacing  24/coordinate 1 (+)>>>
             <<<Displacing  22/coordinate 3 (+)>>>
             <<<Displacing  23/coordinate 2 (-)>>>
             <<<Displacing  24/coordinate 2 (+)>>>
             <<<Displacing  24/coordinate 1 (-)>>>
             <<<Displacing  22/coordinate 3 (-)>>>
             <<<Displacing  24/coordinate 2 (-)>>>
             <<<Displacing  23/coordinate 3 (+)>>>
             <<<Displacing  23/coordinate 3 (-)>>>
             <<<Displacing  24/coordinate 3 (+)>>>
             <<<Displacing  24/coordinate 3 (-)>>>
             <<<Displacing  25/coordinate 1 (+)>>>
             <<<Displacing  26/coordinate 1 (+)>>>
             <<<Displacing  25/coordinate 3 (+)>>>
             <<<Displacing  25/coordinate 1 (-)>>>
             <<<Displacing  26/coordinate 1 (-)>>>
             <<<Displacing  25/coordinate 3 (-)>>>
             <<<Displacing  25/coordinate 2 (+)>>>
             <<<Displacing  25/coordinate 2 (-)>>>
             <<<Displacing  27/coordinate 1 (+)>>>
             <<<Displacing  26/coordinate 2 (+)>>>
             <<<Displacing  27/coordinate 1 (-)>>>
             <<<Displacing  27/coordinate 2 (+)>>>
             <<<Displacing  26/coordinate 2 (-)>>>
             <<<Displacing  26/coordinate 3 (+)>>>
             <<<Displacing  27/coordinate 2 (-)>>>
             <<<Displacing  26/coordinate 3 (-)>>>
             <<<Displacing  27/coordinate 3 (+)>>>
             <<<Displacing  28/coordinate 2 (+)>>>
             <<<Displacing  27/coordinate 3 (-)>>>
             <<<Displacing  28/coordinate 1 (+)>>>
             <<<Displacing  28/coordinate 2 (-)>>>
             <<<Displacing  28/coordinate 1 (-)>>>
             <<<Displacing  28/coordinate 3 (+)>>>
             <<<Displacing  28/coordinate 3 (-)>>>
             <<<Displacing  29/coordinate 1 (+)>>>
             <<<Displacing  29/coordinate 2 (+)>>>
             <<<Displacing  29/coordinate 1 (-)>>>
             <<<Displacing  29/coordinate 2 (-)>>>
             <<<Displacing  29/coordinate 3 (+)>>>
             <<<Displacing  30/coordinate 1 (+)>>>
             <<<Displacing  30/coordinate 2 (+)>>>
             <<<Displacing  30/coordinate 1 (-)>>>
             <<<Displacing  29/coordinate 3 (-)>>>
             <<<Displacing  30/coordinate 2 (-)>>>
             <<<Displacing  31/coordinate 1 (+)>>>
             <<<Displacing  31/coordinate 1 (-)>>>
             <<<Displacing  30/coordinate 3 (+)>>>
             <<<Displacing  30/coordinate 3 (-)>>>
             <<<Displacing  31/coordinate 2 (+)>>>
             <<<Displacing  31/coordinate 2 (-)>>>
             <<<Displacing  31/coordinate 3 (+)>>>
             <<<Displacing  31/coordinate 3 (-)>>>
             <<<Displacing  32/coordinate 1 (+)>>>
             <<<Displacing  32/coordinate 2 (+)>>>
             <<<Displacing  32/coordinate 1 (-)>>>
             <<<Displacing  32/coordinate 2 (-)>>>
             <<<Displacing  32/coordinate 3 (+)>>>
             <<<Displacing  33/coordinate 1 (+)>>>
             <<<Displacing  32/coordinate 3 (-)>>>
             <<<Displacing  33/coordinate 1 (-)>>>
             <<<Displacing  33/coordinate 3 (+)>>>
             <<<Displacing  34/coordinate 1 (+)>>>
             <<<Displacing  34/coordinate 1 (-)>>>
             <<<Displacing  34/coordinate 2 (+)>>>
             <<<Displacing  33/coordinate 3 (-)>>>
             <<<Displacing  33/coordinate 2 (+)>>>
             <<<Displacing  34/coordinate 2 (-)>>>
             <<<Displacing  33/coordinate 2 (-)>>>
             <<<Displacing  34/coordinate 3 (+)>>>
             <<<Displacing  34/coordinate 3 (-)>>>
             <<<Displacing  35/coordinate 3 (+)>>>
             <<<Displacing  35/coordinate 3 (-)>>>
             <<<Displacing  35/coordinate 1 (+)>>>
             <<<Displacing  35/coordinate 1 (-)>>>
             <<<Displacing  36/coordinate 2 (+)>>>
             <<<Displacing  35/coordinate 2 (+)>>>
             <<<Displacing  36/coordinate 2 (-)>>>
             <<<Displacing  35/coordinate 2 (-)>>>
             <<<Displacing  36/coordinate 1 (+)>>>
             <<<Displacing  36/coordinate 1 (-)>>>
             <<<Displacing  36/coordinate 3 (+)>>>
             <<<Displacing  36/coordinate 3 (-)>>>

-----------------------
VIBRATIONAL FREQUENCIES
-----------------------

Scaling factor for frequencies =  1.000000000 (already applied!)

   0:         0.00 cm**-1
   1:         0.00 cm**-1
   2:         0.00 cm**-1
   3:         0.00 cm**-1
   4:         0.00 cm**-1
   5:         0.00 cm**-1
   6:      -528.97 cm**-1 ***imaginary mode***
   7:        17.45 cm**-1
   8:        42.44 cm**-1
   9:        48.06 cm**-1
  10:        61.55 cm**-1
  11:        75.61 cm**-1
  12:        82.56 cm**-1
  13:        89.54 cm**-1
  14:       111.58 cm**-1
  15:       113.51 cm**-1
  16:       151.90 cm**-1
  17:       163.16 cm**-1
  18:       173.77 cm**-1
  19:       204.80 cm**-1
  20:       243.75 cm**-1
  21:       266.84 cm**-1
  22:       269.68 cm**-1
  23:       293.05 cm**-1
  24:       324.78 cm**-1
  25:       362.47 cm**-1
  26:       376.98 cm**-1
  27:       380.67 cm**-1
  28:       430.85 cm**-1
  29:       472.94 cm**-1
  30:       501.32 cm**-1
  31:       526.16 cm**-1
  32:       545.95 cm**-1
  33:       588.35 cm**-1
  34:       603.50 cm**-1
  35:       611.56 cm**-1
  36:       622.08 cm**-1
  37:       662.46 cm**-1
  38:       703.75 cm**-1
  39:       754.18 cm**-1
  40:       772.01 cm**-1
  41:       781.00 cm**-1
  42:       796.72 cm**-1
  43:       820.07 cm**-1
  44:       852.39 cm**-1
  45:       871.00 cm**-1
  46:       909.29 cm**-1
  47:       930.17 cm**-1
  48:       938.56 cm**-1
  49:       943.74 cm**-1
  50:       944.96 cm**-1
  51:       954.41 cm**-1
  52:       984.64 cm**-1
  53:      1031.78 cm**-1
  54:      1043.51 cm**-1
  55:      1069.53 cm**-1
  56:      1077.82 cm**-1
  57:      1103.90 cm**-1
  58:      1109.38 cm**-1
  59:      1122.38 cm**-1
  60:      1131.10 cm**-1
  61:      1179.36 cm**-1
  62:      1180.17 cm**-1
  63:      1203.44 cm**-1
  64:      1211.62 cm**-1
  65:      1243.44 cm**-1
  66:      1255.51 cm**-1
  67:      1273.65 cm**-1
  68:      1276.17 cm**-1
  69:      1277.26 cm**-1
  70:      1291.42 cm**-1
  71:      1304.55 cm**-1
  72:      1316.60 cm**-1
  73:      1335.92 cm**-1
  74:      1369.01 cm**-1
  75:      1419.27 cm**-1
  76:      1427.65 cm**-1
  77:      1446.91 cm**-1
  78:      1451.78 cm**-1
  79:      1488.39 cm**-1
  80:      1495.47 cm**-1
  81:      1503.51 cm**-1
  82:      1505.92 cm**-1
  83:      1510.30 cm**-1
  84:      1543.80 cm**-1
  85:      1559.74 cm**-1
  86:      1563.69 cm**-1
  87:      1600.71 cm**-1
  88:      2477.51 cm**-1
  89:      2944.87 cm**-1
  90:      2959.84 cm**-1
  91:      2967.62 cm**-1
  92:      2971.56 cm**-1
  93:      2980.86 cm**-1
  94:      2982.77 cm**-1
  95:      2989.63 cm**-1
  96:      3001.12 cm**-1
  97:      3006.32 cm**-1
  98:      3055.13 cm**-1
  99:      3060.41 cm**-1
 100:      3067.27 cm**-1
 101:      3075.33 cm**-1
 102:      3083.42 cm**-1
 103:      3091.87 cm**-1
 104:      3130.10 cm**-1
 105:      3602.03 cm**-1
 106:      3608.43 cm**-1
 107:      3630.65 cm**-1


------------
NORMAL MODES
------------

These modes are the cartesian displacements weighted by the diagonal matrix
M(i,i)=1/sqrt(m[i]) where m[i] is the mass of the displaced atom
Thus, these vectors are normalized but *not* orthogonal

                  0          1          2          3          4          5    
      0       0.000000   0.000000   0.000000   0.000000   0.000000   0.000000
      1       0.000000   0.000000   0.000000   0.000000   0.000000   0.000000
      2       0.000000   0.000000   0.000000   0.000000   0.000000   0.000000
      3       0.000000   0.000000   0.000000   0.000000   0.000000   0.000000
      4       0.000000   0.000000   0.000000   0.000000   0.000000   0.000000
      5       0.000000   0.000000   0.000000   0.000000   0.000000   0.000000
      6       0.000000   0.000000   0.000000   0.000000   0.000000   0.000000
      7       0.000000   0.000000   0.000000   0.000000   0.000000   0.000000
      8       0.000000   0.000000   0.000000   0.000000   0.000000   0.000000
      9       0.000000   0.000000   0.000000   0.000000   0.000000   0.000000
     10       0.000000   0.000000   0.000000   0.000000   0.000000   0.000000
     11       0.000000   0.000000   0.000000   0.000000   0.000000   0.000000
     12       0.000000   0.000000   0.000000   0.000000   0.000000   0.000000
     13       0.000000   0.000000   0.000000   0.000000   0.000000   0.000000
     14       0.000000   0.000000   0.000000   0.000000   0.000000   0.000000
     15       0.000000   0.000000   0.000000   0.000000   0.000000   0.000000
     16       0.000000   0.000000   0.000000   0.000000   0.000000   0.000000
     17       0.000000   0.000000   0.000000   0.000000   0.000000   0.000000
     18       0.000000   0.000000   0.000000   0.000000   0.000000   0.000000
     19       0.000000   0.000000   0.000000   0.000000   0.000000   0.000000
     20       0.000000   0.000000   0.000000   0.000000   0.000000   0.000000
     21       0.000000   0.000000   0.000000   0.000000   0.000000   0.000000
     22       0.000000   0.000000   0.000000   0.000000   0.000000   0.000000
     23       0.000000   0.000000   0.000000   0.000000   0.000000   0.000000
     24       0.000000   0.000000   0.000000   0.000000   0.000000   0.000000
     25       0.000000   0.000000   0.000000   0.000000   0.000000   0.000000
     26       0.000000   0.000000   0.000000   0.000000   0.000000   0.000000
     27       0.000000   0.000000   0.000000   0.000000   0.000000   0.000000
     28       0.000000   0.000000   0.000000   0.000000   0.000000   0.000000
     29       0.000000   0.000000   0.000000   0.000000   0.000000   0.000000
     30       0.000000   0.000000   0.000000   0.000000   0.000000   0.000000
     31       0.000000   0.000000   0.000000   0.000000   0.000000   0.000000
     32       0.000000   0.000000   0.000000   0.000000   0.000000   0.000000
     33       0.000000   0.000000   0.000000   0.000000   0.000000   0.000000
     34       0.000000   0.000000   0.000000   0.000000   0.000000   0.000000
     35       0.000000   0.000000   0.000000   0.000000   0.000000   0.000000
     36       0.000000   0.000000   0.000000   0.000000   0.000000   0.000000
     37       0.000000   0.000000   0.000000   0.000000   0.000000   0.000000
     38       0.000000   0.000000   0.000000   0.000000   0.000000   0.000000
     39       0.000000   0.000000   0.000000   0.000000   0.000000   0.000000
     40       0.000000   0.000000   0.000000   0.000000   0.000000   0.000000
     41       0.000000   0.000000   0.000000   0.000000   0.000000   0.000000
     42       0.000000   0.000000   0.000000   0.000000   0.000000   0.000000
     43       0.000000   0.000000   0.000000   0.000000   0.000000   0.000000
     44       0.000000   0.000000   0.000000   0.000000   0.000000   0.000000
     45       0.000000   0.000000   0.000000   0.000000   0.000000   0.000000
     46       0.000000   0.000000   0.000000   0.000000   0.000000   0.000000
     47       0.000000   0.000000   0.000000   0.000000   0.000000   0.000000
     48       0.000000   0.000000   0.000000   0.000000   0.000000   0.000000
     49       0.000000   0.000000   0.000000   0.000000   0.000000   0.000000
     50       0.000000   0.000000   0.000000   0.000000   0.000000   0.000000
     51       0.000000   0.000000   0.000000   0.000000   0.000000   0.000000
     52       0.000000   0.000000   0.000000   0.000000   0.000000   0.000000
     53       0.000000   0.000000   0.000000   0.000000   0.000000   0.000000
     54       0.000000   0.000000   0.000000   0.000000   0.000000   0.000000
     55       0.000000   0.000000   0.000000   0.000000   0.000000   0.000000
     56       0.000000   0.000000   0.000000   0.000000   0.000000   0.000000
     57       0.000000   0.000000   0.000000   0.000000   0.000000   0.000000
     58       0.000000   0.000000   0.000000   0.000000   0.000000   0.000000
     59       0.000000   0.000000   0.000000   0.000000   0.000000   0.000000
     60       0.000000   0.000000   0.000000   0.000000   0.000000   0.000000
     61       0.000000   0.000000   0.000000   0.000000   0.000000   0.000000
     62       0.000000   0.000000   0.000000   0.000000   0.000000   0.000000
     63       0.000000   0.000000   0.000000   0.000000   0.000000   0.000000
     64       0.000000   0.000000   0.000000   0.000000   0.000000   0.000000
     65       0.000000   0.000000   0.000000   0.000000   0.000000   0.000000
     66       0.000000   0.000000   0.000000   0.000000   0.000000   0.000000
     67       0.000000   0.000000   0.000000   0.000000   0.000000   0.000000
     68       0.000000   0.000000   0.000000   0.000000   0.000000   0.000000
     69       0.000000   0.000000   0.000000   0.000000   0.000000   0.000000
     70       0.000000   0.000000   0.000000   0.000000   0.000000   0.000000
     71       0.000000   0.000000   0.000000   0.000000   0.000000   0.000000
     72       0.000000   0.000000   0.000000   0.000000   0.000000   0.000000
     73       0.000000   0.000000   0.000000   0.000000   0.000000   0.000000
     74       0.000000   0.000000   0.000000   0.000000   0.000000   0.000000
     75       0.000000   0.000000   0.000000   0.000000   0.000000   0.000000
     76       0.000000   0.000000   0.000000   0.000000   0.000000   0.000000
     77       0.000000   0.000000   0.000000   0.000000   0.000000   0.000000
     78       0.000000   0.000000   0.000000   0.000000   0.000000   0.000000
     79       0.000000   0.000000   0.000000   0.000000   0.000000   0.000000
     80       0.000000   0.000000   0.000000   0.000000   0.000000   0.000000
     81       0.000000   0.000000   0.000000   0.000000   0.000000   0.000000
     82       0.000000   0.000000   0.000000   0.000000   0.000000   0.000000
     83       0.000000   0.000000   0.000000   0.000000   0.000000   0.000000
     84       0.000000   0.000000   0.000000   0.000000   0.000000   0.000000
     85       0.000000   0.000000   0.000000   0.000000   0.000000   0.000000
     86       0.000000   0.000000   0.000000   0.000000   0.000000   0.000000
     87       0.000000   0.000000   0.000000   0.000000   0.000000   0.000000
     88       0.000000   0.000000   0.000000   0.000000   0.000000   0.000000
     89       0.000000   0.000000   0.000000   0.000000   0.000000   0.000000
     90       0.000000   0.000000   0.000000   0.000000   0.000000   0.000000
     91       0.000000   0.000000   0.000000   0.000000   0.000000   0.000000
     92       0.000000   0.000000   0.000000   0.000000   0.000000   0.000000
     93       0.000000   0.000000   0.000000   0.000000   0.000000   0.000000
     94       0.000000   0.000000   0.000000   0.000000   0.000000   0.000000
     95       0.000000   0.000000   0.000000   0.000000   0.000000   0.000000
     96       0.000000   0.000000   0.000000   0.000000   0.000000   0.000000
     97       0.000000   0.000000   0.000000   0.000000   0.000000   0.000000
     98       0.000000   0.000000   0.000000   0.000000   0.000000   0.000000
     99       0.000000   0.000000   0.000000   0.000000   0.000000   0.000000
    100       0.000000   0.000000   0.000000   0.000000   0.000000   0.000000
    101       0.000000   0.000000   0.000000   0.000000   0.000000   0.000000
    102       0.000000   0.000000   0.000000   0.000000   0.000000   0.000000
    103       0.000000   0.000000   0.000000   0.000000   0.000000   0.000000
    104       0.000000   0.000000   0.000000   0.000000   0.000000   0.000000
    105       0.000000   0.000000   0.000000   0.000000   0.000000   0.000000
    106       0.000000   0.000000   0.000000   0.000000   0.000000   0.000000
    107       0.000000   0.000000   0.000000   0.000000   0.000000   0.000000
                  6          7          8          9         10         11    
      0       0.012395   0.041860  -0.024203   0.022057   0.026859  -0.004170
      1       0.023940   0.006459  -0.007934  -0.000737   0.043882  -0.002551
      2      -0.014045   0.007114  -0.023014   0.002731  -0.063073  -0.018903
      3       0.006797   0.015926   0.003603   0.092659  -0.007097  -0.047423
      4       0.001174   0.007824   0.113353   0.158237   0.034399  -0.022232
      5      -0.006761  -0.007245  -0.096054  -0.074999  -0.074351  -0.026117
      6       0.001262   0.001355   0.009054   0.102554  -0.069849  -0.078764
      7      -0.005664   0.041329   0.178953   0.150253  -0.046213   0.001123
      8       0.000980  -0.005651  -0.116975  -0.079889  -0.010223  -0.010990
      9       0.000583   0.011398  -0.013416   0.040260  -0.099520  -0.065285
     10       0.000031   0.073024   0.124106  -0.017344  -0.118629   0.044912
     11       0.002520   0.010228  -0.065773  -0.008704   0.063622   0.011790
     12      -0.001756   0.037565  -0.042811  -0.033546  -0.065110  -0.022032
     13      -0.001237   0.073969  -0.002339  -0.185027  -0.106212   0.066060
     14       0.004453   0.023304   0.008888   0.072058   0.073112   0.019469
     15      -0.001007   0.052961  -0.047020  -0.041168  -0.002453   0.008181
     16       0.004933   0.042474  -0.065108  -0.173821  -0.026192   0.041197
     17       0.000860   0.021036   0.027913   0.074063   0.009457   0.004909
     18       0.049100   0.060033  -0.022743   0.008807   0.069124   0.022148
     19       0.136114  -0.032101  -0.049406   0.025806   0.081757  -0.012152
     20      -0.095004   0.006896  -0.013174   0.003252  -0.102570  -0.033135
     21       0.005783   0.007670   0.025559   0.146847   0.018317  -0.057283
     22      -0.002656  -0.016725   0.161351   0.293637   0.092436  -0.052377
     23       0.000559  -0.021342  -0.143392  -0.142527  -0.134340  -0.040158
     24       0.003575   0.072538  -0.066808  -0.095926   0.022313   0.041432
     25       0.012402   0.043208  -0.158021  -0.298219  -0.021775   0.057078
     26      -0.003725   0.030683   0.082226   0.132514   0.019224   0.011009
     27       0.003135  -0.000785  -0.008316   0.048932  -0.147701  -0.087873
     28       0.002566   0.097402   0.176715  -0.019943  -0.182382   0.062619
     29       0.000556   0.012183  -0.082973  -0.013975   0.113164   0.022597
     30       0.000351   0.060044  -0.022943   0.008679   0.070479   0.023390
     31      -0.018957  -0.091899  -0.050936   0.034110   0.042363   0.007914
     32      -0.000208   0.000669  -0.019512   0.021053  -0.110029  -0.041402
     33      -0.005694   0.089916  -0.007082  -0.011238   0.057780  -0.009348
     34       0.002739  -0.125876  -0.066666   0.087066  -0.025073   0.054224
     35      -0.006075  -0.010459  -0.026504   0.020231  -0.083032  -0.030612
     36       0.029590   0.030314  -0.025859   0.015939   0.047230   0.034824
     37      -0.054260  -0.108436  -0.039490  -0.005501   0.015984  -0.022311
     38       0.015866  -0.009848  -0.029290   0.055508  -0.107267  -0.012600
     39      -0.000977  -0.040641  -0.038476   0.048722   0.040302   0.089475
     40       0.000323   0.111061  -0.016327  -0.029454   0.052474  -0.117945
     41      -0.002513  -0.002182  -0.039129  -0.005910   0.029050  -0.020660
     42      -0.002595   0.041219  -0.010273   0.009461   0.025270   0.016840
     43      -0.009635  -0.307914  -0.110571   0.195285  -0.113235   0.206413
     44       0.007887   0.105928   0.009699  -0.056986  -0.035148  -0.141545
     45      -0.002095   0.272605   0.038309  -0.096492   0.083872  -0.153652
     46      -0.017046  -0.155606  -0.077660   0.119430  -0.064503   0.089707
     47      -0.043520  -0.145378  -0.067011   0.117893  -0.168128   0.097636
     48      -0.001303   0.015730  -0.042491   0.035019   0.080858   0.140851
     49      -0.003351   0.276873   0.024648  -0.134300   0.151805  -0.308874
     50       0.000107  -0.101974  -0.079500   0.076194  -0.024544   0.196506
     51       0.004890  -0.210684  -0.080643   0.124930   0.026946   0.224385
     52       0.003530   0.133163  -0.003595  -0.067509   0.107125  -0.217482
     53      -0.000037   0.114493   0.002776  -0.108976   0.133879  -0.261213
     54      -0.020653  -0.010003  -0.026565  -0.004562   0.038956   0.092277
     55      -0.114330  -0.008083  -0.079067   0.059440   0.130182  -0.026413
     56       0.072899   0.002729  -0.030406   0.031805  -0.021786  -0.051237
     57       0.019556   0.087580  -0.020849  -0.003417   0.094852   0.028660
     58       0.018233  -0.012368  -0.079224   0.043007   0.110856  -0.006935
     59      -0.027685   0.011785   0.007683  -0.016405  -0.105183  -0.031019
     60       0.001589  -0.037514   0.076731  -0.055798   0.041010   0.083368
     61      -0.170901   0.022222  -0.176712   0.105210   0.112561  -0.030392
     62       0.076027   0.020585  -0.111684   0.074328  -0.009609  -0.033676
     63       0.063211  -0.094015   0.185569  -0.135650   0.030621   0.056648
     64       0.015376  -0.130120   0.079013  -0.096007   0.077881  -0.117830
     65      -0.057401  -0.003735   0.340999  -0.056016   0.077784   0.025093
     66      -0.710570  -0.053552   0.087437  -0.074270   0.037965   0.060994
     67       0.419793  -0.066505  -0.006549  -0.013959   0.100726  -0.060666
     68       0.235218   0.000627   0.164372  -0.013459   0.031462  -0.008774
     69       0.221590  -0.091691   0.154528  -0.108590   0.044744   0.082274
     70       0.005933  -0.128697   0.204502  -0.093866   0.136943  -0.042957
     71      -0.146370  -0.004462   0.395771  -0.069723   0.088058   0.033983
     72      -0.041613  -0.061339   0.011999  -0.089390  -0.069005  -0.005784
     73      -0.010765  -0.179274  -0.055556  -0.050132  -0.075988  -0.038481
     74       0.047956  -0.008511   0.063406   0.035859  -0.136193   0.047956
     75      -0.172342  -0.081098   0.092823  -0.125851  -0.029163   0.002065
     76      -0.019872  -0.160689  -0.002852  -0.060129  -0.021592  -0.058594
     77       0.192564  -0.008978   0.164170   0.005561  -0.062843   0.050086
     78      -0.098188  -0.079527  -0.017808  -0.098103  -0.114771  -0.021987
     79      -0.064930  -0.183256  -0.145280  -0.024317  -0.137482  -0.021079
     80       0.080816  -0.008276   0.119752   0.017257  -0.100936   0.034141
     81      -0.001606  -0.015164  -0.005340   0.021781  -0.013834  -0.076740
     82      -0.001231   0.088428  -0.042235   0.052161  -0.077472   0.118362
     83      -0.000408  -0.013009  -0.054689  -0.007985   0.096406   0.030443
     84      -0.001795   0.081967   0.021283  -0.016723  -0.017881  -0.161331
     85      -0.002478   0.068208  -0.054750   0.089419  -0.133737   0.218611
     86      -0.002779  -0.088607  -0.087908   0.074620  -0.003125   0.245275
     87      -0.000321  -0.038403   0.007304   0.018802  -0.053309  -0.160818
     88      -0.000640  -0.009553  -0.068943   0.123165  -0.167766   0.260969
     89      -0.000523   0.054023  -0.019560  -0.074237   0.142415  -0.171617
     90      -0.002389   0.045713  -0.060219  -0.082375  -0.087392  -0.011141
     91      -0.005979   0.099803  -0.046356  -0.317677  -0.161324   0.100747
     92       0.003494   0.035046   0.048677   0.128768   0.130950   0.037173
     93      -0.002719  -0.017929   0.031057   0.159635  -0.095367  -0.113106
     94      -0.010697   0.042302   0.273564   0.274214  -0.054583  -0.014392
     95       0.003170  -0.016421  -0.173888  -0.139688  -0.017446  -0.017719
     96      -0.001350  -0.083538  -0.022719   0.047817  -0.013858  -0.026200
     97      -0.000877   0.213010  -0.018771  -0.004342  -0.017955   0.043406
     98      -0.001005  -0.013178  -0.073890  -0.029969   0.237379   0.071564
     99      -0.001871  -0.074691  -0.003063   0.038450  -0.065805  -0.120488
    100      -0.002272   0.211017  -0.028388   0.034269  -0.094088   0.159732
    101      -0.000706  -0.018146  -0.083714  -0.032872   0.285968   0.103070
    102      -0.000558  -0.172476  -0.047297   0.082324  -0.008589   0.048894
    103      -0.000808   0.223034  -0.012066  -0.028421   0.025820  -0.022688
    104      -0.000878   0.038469  -0.052158  -0.088322   0.318534  -0.081320
    105      -0.000918  -0.052393  -0.030713   0.041564   0.033464   0.030299
    106      -0.001479   0.295447   0.001055  -0.059971   0.058745  -0.061623
    107      -0.000180  -0.059451  -0.100067   0.015582   0.212196   0.224021
                 12         13         14         15         16         17    
      0       0.002141   0.019940   0.022326   0.039998   0.004762   0.019153
      1      -0.030597  -0.007085   0.006919   0.097930  -0.117635   0.060106
      2       0.047895   0.004453  -0.002378  -0.003638   0.018663  -0.054117
      3       0.041028   0.011298   0.009620   0.044154  -0.032541   0.003119
      4      -0.037428   0.019463   0.008457   0.061672  -0.105175   0.054868
      5       0.072012  -0.019590  -0.009613   0.025748  -0.008716  -0.058838
      6       0.098589  -0.005978  -0.011798   0.018676  -0.043780  -0.038929
      7      -0.008810   0.028449  -0.004771  -0.051345   0.002807  -0.000221
      8       0.025635  -0.009810   0.008522   0.073399  -0.030933  -0.017270
      9       0.117311  -0.015607  -0.017602  -0.004625  -0.013509  -0.057148
     10       0.031065   0.007388  -0.016835  -0.116998   0.093592  -0.043313
     11      -0.046895   0.025086   0.033338   0.088449  -0.022742   0.022397
     12       0.078142  -0.007264  -0.000917   0.007231   0.008860  -0.023591
     13       0.036038  -0.020009  -0.009134  -0.041228   0.038957   0.009648
     14      -0.070945   0.049087   0.036678   0.040804   0.027920   0.002506
     15       0.019108   0.011856   0.019488   0.030117   0.016714   0.016170
     16       0.003904  -0.023886   0.002794   0.065740  -0.072187   0.062604
     17      -0.022012   0.036568   0.019065  -0.002817   0.049062  -0.039298
     18      -0.031977   0.031208   0.024468   0.015584   0.017980  -0.003401
     19      -0.027618  -0.021364  -0.009664   0.063671  -0.079343   0.049646
     20       0.068094  -0.001889  -0.001006   0.019745  -0.003228  -0.039821
     21       0.027169   0.019630   0.014188   0.059703  -0.050436   0.018855
     22      -0.061771   0.036120   0.017445   0.104189  -0.156220   0.089079
     23       0.124776  -0.050226  -0.027141   0.020073  -0.016699  -0.085499
     24      -0.011560   0.020034   0.032012   0.034420   0.039917   0.037000
     25       0.010576  -0.045233   0.003831   0.104876  -0.103034   0.089987
     26      -0.042484   0.055599   0.024694  -0.028110   0.082319  -0.047597
     27       0.160745  -0.029231  -0.034555  -0.029920  -0.010792  -0.091198
     28       0.058458   0.012334  -0.030736  -0.218879   0.195796  -0.106159
     29      -0.083773   0.033132   0.048529   0.132267  -0.051266   0.062059
     30      -0.031276   0.028527   0.022742   0.011317   0.020652  -0.011023
     31       0.004174  -0.121478  -0.029998   0.029276   0.011363  -0.014409
     32       0.064047   0.019188   0.017107   0.069583  -0.001294   0.085818
     33      -0.030238   0.040100   0.017819   0.013768  -0.020545  -0.148799
     34       0.032947  -0.130203  -0.017005   0.009938   0.234640   0.096880
     35       0.055163   0.012248   0.016904   0.076217  -0.024969   0.145239
     36      -0.044576   0.014099   0.026947   0.015998   0.058426   0.036800
     37       0.038094  -0.122385  -0.017914   0.045237  -0.004978  -0.069414
     38       0.032227   0.012771   0.012053   0.059108   0.041072   0.170574
     39       0.015137   0.076115  -0.063624   0.063118   0.051091  -0.101787
     40      -0.061872  -0.204104   0.133687  -0.087478   0.114768   0.001020
     41       0.022187  -0.011481   0.026330   0.039380  -0.035796   0.137156
     42      -0.004196   0.069628  -0.030105   0.051415  -0.037549  -0.198643
     43       0.119222  -0.070756  -0.123989   0.082672   0.400817   0.214946
     44       0.003229  -0.012119   0.066343   0.047644  -0.191406  -0.012001
     45      -0.100959  -0.016426   0.135307  -0.053703  -0.099906  -0.248521
     46       0.055011  -0.124528  -0.022489   0.013460   0.330385   0.156247
     47       0.127434   0.045576  -0.043994   0.111221   0.192182   0.298231
     48       0.021524   0.136083  -0.007121   0.026223  -0.010715  -0.175317
     49      -0.164129  -0.331871   0.205455  -0.161878   0.071844  -0.046992
     50       0.119134   0.156538   0.010432   0.073867  -0.051361   0.113076
[...]
   89       -49.376550   -20.293396    0.007789  0.001318
   90       -49.376802   -20.451627    0.007426  0.001271
   91       -49.377045   -20.604263    0.007071  0.001226
   92       -49.377280   -20.751551    0.006724  0.001183
   93       -49.377507   -20.893723    0.006387  0.001142
   94       -49.377725   -21.030997    0.006062  0.001103
   95       -49.377937   -21.163577    0.005750  0.001066
   96       -49.378141   -21.291660    0.005449  0.001030
   97       -49.378338   -21.415434    0.005162  0.000995
   98       -49.378529   -21.535078    0.004888  0.000962
   99       -49.378713   -21.650761    0.004625  0.000930
  100       -49.378891   -21.762644    0.004376  0.000900
  101       -49.379064   -21.870880    0.004139  0.000871
  102       -49.379231   -21.975616    0.003914  0.000843
  103       -49.379392   -22.076991    0.003701  0.000816
  104       -49.379549   -22.175133    0.003499  0.000790
  105       -49.379700   -22.270165    0.003308  0.000765
  106       -49.379847   -22.362203    0.003128  0.000741
  107       -49.379989   -22.451356    0.002958  0.000718
  108       -49.380127   -22.537728    0.002797  0.000695
  109       -49.380260   -22.621420    0.002646  0.000674
  110       -49.380389   -22.702527    0.002504  0.000653
  111       -49.380515   -22.781136    0.002370  0.000633
  112       -49.380636   -22.857327    0.002244  0.000614
  113       -49.380754   -22.931160    0.002125  0.000595
  114       -49.380867   -23.002556    0.002013  0.000581
  115       -49.380977   -23.071223    0.001910  0.000560
  116       -49.381083   -23.138147    0.001811  0.000546
  117       -49.381186   -23.202734    0.001718  0.000527
  118       -49.381287   -23.265655    0.001667  0.000513
  119       -49.381383   -23.326402    0.001620  0.000495
  120       -49.381478   -23.385558    0.001573  0.000482
  121       -49.381569   -23.442688    0.001525  0.000465
  122       -49.381657   -23.498296    0.001477  0.000453
  123       -49.381743   -23.552014    0.001429  0.000437
  124       -49.381826   -23.604285    0.001381  0.000425
  125       -49.381907   -23.654806    0.001334  0.000411
  126       -49.381985   -23.703952    0.001286  0.000400
  127       -49.382061   -23.751469    0.001239  0.000386
  128       -49.382134   -23.797682    0.001192  0.000376
  129       -49.382206   -23.842379    0.001146  0.000363
  130       -49.382275   -23.885836    0.001100  0.000353
  131       -49.382342   -23.927885    0.001083  0.000342
  132       -49.382407   -23.968756    0.001088  0.000332
  133       -49.382470   -24.008320    0.001070  0.000321
  134       -49.382531   -24.046761    0.001079  0.000312
  135       -49.382591   -24.083993    0.001051  0.000302
  136       -49.382648   -24.120154    0.001068  0.000294
  137       -49.382704   -24.155205    0.001025  0.000285
  138       -49.382758   -24.189227    0.001049  0.000276
  139       -49.382811   -24.222224    0.000997  0.000268
  140       -49.382862   -24.254240    0.001023  0.000260
  141       -49.382912   -24.285311    0.000966  0.000252
  142       -49.382960   -24.315449    0.000990  0.000245
  143       -49.383006   -24.344717    0.000933  0.000238
  144       -49.383051   -24.373098    0.000950  0.000230
  145       -49.383095   -24.400672    0.000901  0.000224
  146       -49.383138   -24.427399    0.000904  0.000217
  147       -49.383179   -24.453380    0.000875  0.000211
  148       -49.383220   -24.478589    0.000858  0.000205
  149       -49.383259   -24.503107    0.000838  0.000199

                      ***********************HURRAY********************
                      ***            THE IRC HAS CONVERGED          ***
                      *************************************************


---------------------------------------------------------------
                       IRC PATH SUMMARY              
---------------------------------------------------------------
All gradients are in Eh/Bohr.

Step        E(Eh)      dE(kcal/mol)  max(|G|)   RMS(G) 
   1       -49.383259   -24.503107    0.000838  0.000199
   2       -49.383220   -24.478589    0.000858  0.000205
   3       -49.383179   -24.453380    0.000875  0.000211
   4       -49.383138   -24.427399    0.000904  0.000217
   5       -49.383095   -24.400672    0.000901  0.000224
   6       -49.383051   -24.373098    0.000950  0.000230
   7       -49.383006   -24.344717    0.000933  0.000238
   8       -49.382960   -24.315449    0.000990  0.000245
   9       -49.382912   -24.285311    0.000966  0.000252
  10       -49.382862   -24.254240    0.001023  0.000260
  11       -49.382811   -24.222224    0.000997  0.000268
  12       -49.382758   -24.189227    0.001049  0.000276
  13       -49.382704   -24.155205    0.001025  0.000285
  14       -49.382648   -24.120154    0.001068  0.000294
  15       -49.382591   -24.083993    0.001051  0.000302
  16       -49.382531   -24.046761    0.001079  0.000312
  17       -49.382470   -24.008320    0.001070  0.000321
  18       -49.382407   -23.968756    0.001088  0.000332
  19       -49.382342   -23.927885    0.001083  0.000342
  20       -49.382275   -23.885836    0.001100  0.000353
  21       -49.382206   -23.842379    0.001146  0.000363
  22       -49.382134   -23.797682    0.001192  0.000376
  23       -49.382061   -23.751469    0.001239  0.000386
  24       -49.381985   -23.703952    0.001286  0.000400
  25       -49.381907   -23.654806    0.001334  0.000411
  26       -49.381826   -23.604285    0.001381  0.000425
  27       -49.381743   -23.552014    0.001429  0.000437
  28       -49.381657   -23.498296    0.001477  0.000453
  29       -49.381569   -23.442688    0.001525  0.000465
  30       -49.381478   -23.385558    0.001573  0.000482
  31       -49.381383   -23.326402    0.001620  0.000495
  32       -49.381287   -23.265655    0.001667  0.000513
  33       -49.381186   -23.202734    0.001718  0.000527
  34       -49.381083   -23.138147    0.001811  0.000546
  35       -49.380977   -23.071223    0.001910  0.000560
  36       -49.380867   -23.002556    0.002013  0.000581
  37       -49.380754   -22.931160    0.002125  0.000595
  38       -49.380636   -22.857327    0.002244  0.000614
  39       -49.380515   -22.781136    0.002370  0.000633
  40       -49.380389   -22.702527    0.002504  0.000653
  41       -49.380260   -22.621420    0.002646  0.000674
  42       -49.380127   -22.537728    0.002797  0.000695
  43       -49.379989   -22.451356    0.002958  0.000718
  44       -49.379847   -22.362203    0.003128  0.000741
  45       -49.379700   -22.270165    0.003308  0.000765
  46       -49.379549   -22.175133    0.003499  0.000790
  47       -49.379392   -22.076991    0.003701  0.000816
  48       -49.379231   -21.975616    0.003914  0.000843
  49       -49.379064   -21.870880    0.004139  0.000871
  50       -49.378891   -21.762644    0.004376  0.000900
  51       -49.378713   -21.650761    0.004625  0.000930
  52       -49.378529   -21.535078    0.004888  0.000962
  53       -49.378338   -21.415434    0.005162  0.000995
  54       -49.378141   -21.291660    0.005449  0.001030
  55       -49.377937   -21.163577    0.005750  0.001066
  56       -49.377725   -21.030997    0.006062  0.001103
  57       -49.377507   -20.893723    0.006387  0.001142
  58       -49.377280   -20.751551    0.006724  0.001183
  59       -49.377045   -20.604263    0.007071  0.001226
  60       -49.376802   -20.451627    0.007426  0.001271
  61       -49.376550   -20.293396    0.007789  0.001318
  62       -49.376289   -20.129297    0.008158  0.001367
  63       -49.376017   -19.959025    0.008528  0.001419
  64       -49.375735   -19.782243    0.008898  0.001474
  65       -49.375443   -19.598577    0.009264  0.001532
  66       -49.375138   -19.407621    0.009621  0.001593
  67       -49.374822   -19.208949    0.009966  0.001658
  68       -49.374492   -19.002137    0.010293  0.001726
  69       -49.374149   -18.786781    0.010600  0.001797
  70       -49.373792   -18.562557    0.010884  0.001871
  71       -49.373420   -18.329249    0.011142  0.001946
  72       -49.373034   -18.086766    0.011372  0.002021
  73       -49.372633   -17.835166    0.011573  0.002095
  74       -49.372217   -17.574639    0.011747  0.002167
  75       -49.371789   -17.305522    0.011892  0.002235
  76       -49.371347   -17.028273    0.012009  0.002299
  77       -49.370893   -16.743453    0.012101  0.002359
  78       -49.370428   -16.451698    0.012167  0.002413
  79       -49.369953   -16.153705    0.012210  0.002461
  80       -49.369469   -15.850197    0.012231  0.002503
  81       -49.368978   -15.541912    0.012231  0.002539
  82       -49.368480   -15.229592    0.012212  0.002569
  83       -49.367977   -14.913970    0.012175  0.002593
  84       -49.367470   -14.595745    0.012136  0.002612
  85       -49.366960   -14.275570    0.012312  0.002625
  86       -49.366448   -13.954045    0.012450  0.002634
  87       -49.365934   -13.631696    0.012548  0.002639
  88       -49.365420   -13.308947    0.012606  0.002641
  89       -49.364905   -12.986092    0.012628  0.002642
  90       -49.364391   -12.663493    0.012645  0.002637
  91       -49.363878   -12.341397    0.012622  0.002635
  92       -49.363365   -12.019882    0.012662  0.002624
  93       -49.362855   -11.699419    0.012666  0.002621
  94       -49.362345   -11.379372    0.012773  0.002600
  95       -49.361838   -11.061395    0.012827  0.002602
  96       -49.361330   -10.743005    0.012895  0.002607
  97       -49.360822   -10.423747    0.012976  0.002616
  98       -49.360311   -10.103182    0.013062  0.002628
  99       -49.359797   -9.780981    0.013146  0.002643
 100       -49.359281   -9.456963    0.013216  0.002658
 101       -49.358762   -9.131101    0.013264  0.002673
 102       -49.358240   -8.803528    0.013280  0.002686
 103       -49.357715   -8.474523    0.013259  0.002696
 104       -49.357189   -8.144490    0.013201  0.002703
 105       -49.356663   -7.813906    0.013127  0.002706
 106       -49.356136   -7.483348    0.013028  0.002705
 107       -49.355610   -7.153346    0.012882  0.002697
 108       -49.355086   -6.824736    0.012709  0.002685
 109       -49.354566   -6.498002    0.012485  0.002662
 110       -49.354050   -6.174399    0.012245  0.002639
 111       -49.353540   -5.854143    0.011952  0.002601
 112       -49.353037   -5.538882    0.011654  0.002565
 113       -49.352543   -5.228526    0.011303  0.002511
 114       -49.352059   -4.925027    0.010955  0.002462
 115       -49.351586   -4.627963    0.010558  0.002395
 116       -49.351126   -4.339471    0.010179  0.002333
 117       -49.350679   -4.058844    0.009899  0.002253
 118       -49.350247   -3.788255    0.009601  0.002182
 119       -49.349831   -3.526755    0.009256  0.002092
 120       -49.349432   -3.276419    0.008899  0.002012
 121       -49.349049   -3.036109    0.008506  0.001915
 122       -49.348685   -2.807672    0.008109  0.001829
 123       -49.348338   -2.589842    0.007687  0.001730
 124       -49.348010   -2.384171    0.007268  0.001641
 125       -49.347699   -2.189338    0.006833  0.001542
 126       -49.347408   -2.006569    0.006409  0.001454
 127       -49.347134   -1.834534    0.005977  0.001357
 128       -49.346878   -1.674131    0.005561  0.001272
 129       -49.346639   -1.524071    0.005146  0.001180
 130       -49.346417   -1.384940    0.004750  0.001100
 131       -49.346211   -1.255520    0.004363  0.001016
 132       -49.346021   -1.136112    0.003999  0.000941
 133       -49.345845   -1.025583    0.003648  0.000866
 134       -49.345683   -0.924005    0.003322  0.000799
 135       -49.345534   -0.830348    0.003013  0.000732
 136       -49.345397   -0.744523    0.002730  0.000674
 137       -49.345271   -0.665623    0.002465  0.000617
 138       -49.345156   -0.593446    0.002225  0.000566
 139       -49.345051   -0.527208    0.002003  0.000517
 140       -49.344954   -0.466656    0.001804  0.000475
 141       -49.344866   -0.411128    0.001622  0.000434
 142       -49.344785   -0.360355    0.001458  0.000398
 143       -49.344710   -0.313771    0.001309  0.000364
 144       -49.344642   -0.271082    0.001228  0.000335
 145       -49.344580   -0.231759    0.001169  0.000310
 146       -49.344522   -0.195311    0.001122  0.000295
 147       -49.344472   -0.164116    0.001409  0.000350
 148       -49.344441   -0.144668    0.001610  0.000402
 149       -49.344403   -0.120574    0.003029  0.000554
 150       -49.344321   -0.069151    0.004195  0.000816
 151       -49.344210    0.000000    0.000197  0.000027 <= TS
 152       -49.344478   -0.168061    0.003335  0.000642
 153       -49.344528   -0.199019    0.002274  0.000474
 154       -49.344572   -0.226953    0.001805  0.000426
 155       -49.344610   -0.250488    0.001719  0.000394
 156       -49.344676   -0.292047    0.001658  0.000374
 157       -49.344752   -0.339597    0.001675  0.000407
 158       -49.344830   -0.388792    0.001641  0.000422
 159       -49.344915   -0.442058    0.001711  0.000450
 160       -49.345005   -0.498365    0.001793  0.000475
 161       -49.345100   -0.558293    0.001902  0.000505
 162       -49.345201   -0.621345    0.002060  0.000530
 163       -49.345307   -0.688176    0.002221  0.000562
 164       -49.345419   -0.758235    0.002380  0.000588
 165       -49.345537   -0.832259    0.002541  0.000621
 166       -49.345660   -0.909649    0.002701  0.000649
 167       -49.345790   -0.991267    0.002864  0.000684
 168       -49.345926   -1.076456    0.003024  0.000714
 169       -49.346069   -1.166252    0.003201  0.000753
 170       -49.346218   -1.259941    0.003451  0.000785
 171       -49.346376   -1.358795    0.003714  0.000829
 172       -49.346540   -1.461967    0.004001  0.000865
 173       -49.346714   -1.571020    0.004304  0.000915
 174       -49.346895   -1.684934    0.004637  0.000956
 175       -49.347088   -1.805709    0.004989  0.001015
 176       -49.347289   -1.932018    0.005374  0.001061
 177       -49.347503   -2.066282    0.005775  0.001129
 178       -49.347727   -2.206747    0.006211  0.001181
 179       -49.347965   -2.356351    0.006662  0.001259
 180       -49.348215   -2.512782    0.007148  0.001315
 181       -49.348480   -2.679522    0.007644  0.001402
 182       -49.348758   -2.853592    0.008172  0.001463
 183       -49.349053   -3.039018    0.008703  0.001558
 184       -49.349361   -3.232076    0.009262  0.001620
 185       -49.349688   -3.437296    0.009814  0.001722
 186       -49.350027   -3.650218    0.010389  0.001784
 187       -49.350387   -3.875769    0.010946  0.001889
 188       -49.350758   -4.108822    0.011519  0.001948
 189       -49.351150   -4.354475    0.012059  0.002052
 190       -49.351552   -4.607083    0.012603  0.002106
 191       -49.351974   -4.871522    0.013094  0.002202
 192       -49.352405   -5.141957    0.013573  0.002247
 193       -49.352852   -5.422490    0.013975  0.002326
 194       -49.353306   -5.707629    0.014345  0.002359
 195       -49.353772   -6.000085    0.014617  0.002414
 196       -49.354243   -6.295355    0.014832  0.002431
 197       -49.354719   -6.594213    0.014935  0.002455
 198       -49.355196   -6.893782    0.014953  0.002453
 199       -49.355674   -7.193321    0.014842  0.002446
 200       -49.356148   -7.491163    0.014594  0.002424
 201       -49.356617   -7.785448    0.014218  0.002387
 202       -49.357078   -8.074348    0.013713  0.002336
 203       -49.357527   -8.356139    0.013085  0.002272
 204       -49.357962   -8.629299    0.012346  0.002196
 205       -49.358382   -8.892601    0.011513  0.002111
 206       -49.358784   -9.145183    0.010612  0.002021
 207       -49.359169   -9.386579    0.010074  0.001929
 208       -49.359536   -9.616714    0.009534  0.001837
 209       -49.359885   -9.835837    0.009011  0.001749
 210       -49.360217   -10.044428    0.008524  0.001665
 211       -49.360534   -10.243083    0.008083  0.001586
 212       -49.360836   -10.432417    0.007693  0.001512
 213       -49.361123   -10.613028    0.007351  0.001443
 214       -49.361398   -10.785486    0.007048  0.001379
 215       -49.361661   -10.950333    0.006777  0.001319
 216       -49.361912   -11.108085    0.006528  0.001263
 217       -49.362153   -11.259228    0.006296  0.001210
 218       -49.362384   -11.404219    0.006075  0.001162
 219       -49.362606   -11.543475    0.005862  0.001117
 220       -49.362820   -11.677377    0.005654  0.001074
 221       -49.363025   -11.806274    0.005451  0.001035
 222       -49.363223   -11.930476    0.005253  0.000997
 223       -49.363414   -12.050256    0.005058  0.000962
 224       -49.363598   -12.165858    0.004867  0.000929
 225       -49.363776   -12.277499    0.004679  0.000897
 226       -49.363948   -12.385373    0.004495  0.000867
 227       -49.364114   -12.489656    0.004316  0.000839
 228       -49.364275   -12.590509    0.004140  0.000811
 229       -49.364430   -12.688077    0.003968  0.000785
 230       -49.364581   -12.782491    0.003800  0.000760
 231       -49.364726   -12.873878    0.003636  0.000735
 232       -49.364867   -12.962353    0.003477  0.000712
 233       -49.365004   -13.048014    0.003320  0.000690
 234       -49.365136   -13.130907    0.003174  0.000669
 235       -49.365263   -13.210774    0.003017  0.000651
 236       -49.365386   -13.287862    0.002886  0.000628
 237       -49.365505   -13.362859    0.002738  0.000611
 238       -49.365621   -13.435293    0.002615  0.000590
 239       -49.365733   -13.505747    0.002478  0.000574
 240       -49.365842   -13.573821    0.002362  0.000554
 241       -49.365947   -13.640017    0.002234  0.000539
 242       -49.366049   -13.704002    0.002126  0.000521
 243       -49.366148   -13.766203    0.002006  0.000506
 244       -49.366244   -13.826345    0.001906  0.000489
 245       -49.366337   -13.884793    0.001795  0.000475
 246       -49.366427   -13.941321    0.001702  0.000460
 247       -49.366515   -13.996240    0.001600  0.000446
 248       -49.366600   -14.049364    0.001514  0.000432
 249       -49.366682   -14.100957    0.001419  0.000419
 250       -49.366761   -14.150873    0.001341  0.000405
 251       -49.366839   -14.199332    0.001253  0.000393
 252       -49.366913   -14.246223    0.001183  0.000381
 253       -49.366986   -14.291727    0.001101  0.000369
 254       -49.367056   -14.335768    0.001044  0.000357
 255       -49.367124   -14.378491    0.001001  0.000347
 256       -49.367190   -14.419843    0.000962  0.000335
 257       -49.367254   -14.459932    0.000922  0.000325
 258       -49.367316   -14.498732    0.000886  0.000315
 259       -49.367376   -14.536310    0.000848  0.000305
 260       -49.367434   -14.572712    0.000814  0.000296
 261       -49.367490   -14.607979    0.000802  0.000286
 262       -49.367544   -14.642149    0.000750  0.000277
 263       -49.367597   -14.675246    0.000761  0.000269
 264       -49.367648   -14.707332    0.000709  0.000260
 265       -49.367698   -14.738396    0.000719  0.000252
 266       -49.367746   -14.768524    0.000668  0.000244
 267       -49.367792   -14.797676    0.000678  0.000237
 268       -49.367837   -14.825951    0.000630  0.000230
 269       -49.367881   -14.853301    0.000636  0.000223
 270       -49.367923   -14.879793    0.000593  0.000217
 271       -49.367963   -14.905265    0.000600  0.000215
 272       -49.368002   -14.929343    0.000617  0.000219
 273       -49.368037   -14.951254    0.000850  0.000247
 274       -49.368048   -14.958603    0.000742  0.000221
 275       -49.368065   -14.969239    0.000531  0.000192

Timings for individual modules:

Sum of individual times         ...      157.158 sec (=   2.619 min)
Geometry relaxation             ...       10.518 sec (=   0.175 min)   6.7 %
XTB module                      ...      146.639 sec (=   2.444 min)  93.3 %
                             ****ORCA TERMINATED NORMALLY****
TOTAL RUN TIME: 0 days 0 hours 6 minutes 15 seconds 619 msec
