6
Energy (POTENTIAL) = -152.942640477 Eh
O   -1.1223   1.1696   0.1090
H   -0.2446   1.4768   -0.1757
H   -1.6951   1.3662   -0.6400
O   1.4317    2.0847   -0.7691
H   2.1060    1.4100   -0.6180
H   1.7188    2.8403   -0.2406
