
                                 *****************
                                 * O   R   C   A *
                                 *****************

           --- An Ab Initio, DFT and Semiempirical electronic structure package ---

                  #######################################################
                  #                        -***-                        #
                  #          Department of theory and spectroscopy      #
                  #               Directorship: Frank Neese             #
                  #        Max Planck Institute fuer Kohlenforschung    #
                  #                Kaiser Wilhelm Platz 1               #
                  #                 D-45470 Muelheim/Ruhr               #
                  #                      Germany                        #
                  #                                                     #
                  #                  All rights reserved                #
                  #                        -***-                        #
                  #######################################################


                         Program Version 4.2.1 -  RELEASE  -


 With contributions from (in alphabetic order):
   Daniel Aravena         : Magnetic Suceptibility
   Michael Atanasov       : Ab Initio Ligand Field Theory (pilot matlab implementation)
   Alexander A. Auer      : GIAO ZORA, VPT2
   Ute Becker             : Parallelization
   Giovanni Bistoni       : ED, misc. LED, open-shell LED, HFLD
   Martin Brehm           : Molecular dynamics
   Dmytro Bykov           : SCF Hessian
   Vijay G. Chilkuri      : MRCI spin determinant printing, contributions to CSF-ICE
   Dipayan Datta          : RHF DLPNO-CCSD density
   Achintya Kumar Dutta   : EOM-CC, STEOM-CC
   Dmitry Ganyushin       : Spin-Orbit,Spin-Spin,Magnetic field MRCI
   Miquel Garcia          : C-PCM Hessian, Gaussian charge scheme
   Yang Guo               : DLPNO-NEVPT2, CIM, IAO-localization
   Andreas Hansen         : Spin unrestricted coupled pair/coupled cluster methods
   Benjamin Helmich-Paris : CASSCF linear response (MC-RPA)
   Lee Huntington         : MR-EOM, pCC
   Robert Izsak           : Overlap fitted RIJCOSX, COSX-SCS-MP3, EOM
   Christian Kollmar      : KDIIS, OOCD, Brueckner-CCSD(T), CCSD density
   Simone Kossmann        : Meta GGA functionals, TD-DFT gradient, OOMP2, MP2 Hessian
   Martin Krupicka        : AUTO-CI
   Lucas Lang             : DCDCAS
   Dagmar Lenk            : GEPOL surface, SMD
   Dimitrios Liakos       : Extrapolation schemes; Compound Job, initial MDCI parallelization
   Dimitrios Manganas     : Further ROCIS development; embedding schemes
   Dimitrios Pantazis     : SARC Basis sets
   Taras Petrenko         : DFT Hessian,TD-DFT gradient, ASA, ECA, R-Raman, ABS, FL, XAS/XES, NRVS
   Peter Pinski           : DLPNO-MP2, DLPNO-MP2 Gradient
   Christoph Reimann      : Effective Core Potentials
   Marius Retegan         : Local ZFS, SOC
   Christoph Riplinger    : Optimizer, TS searches, QM/MM, DLPNO-CCSD(T), (RO)-DLPNO pert. Triples
   Tobias Risthaus        : Range-separated hybrids, TD-DFT gradient, RPA, STAB
   Michael Roemelt        : Original ROCIS implementation
   Masaaki Saitow         : Open-shell DLPNO-CCSD energy and density
   Barbara Sandhoefer     : DKH picture change effects
   Avijit Sen             : IP-ROCIS
   Kantharuban Sivalingam : CASSCF convergence, NEVPT2, FIC-MRCI
   Bernardo de Souza      : ESD, SOC TD-DFT
   Georgi Stoychev        : AutoAux, RI-MP2 NMR
   Willem Van den Heuvel  : Paramagnetic NMR
   Boris Wezisla          : Elementary symmetry handling
   Frank Wennmohs         : Technical directorship


 We gratefully acknowledge several colleagues who have allowed us to
 interface, adapt or use parts of their codes:
   Stefan Grimme, W. Hujo, H. Kruse,             : VdW corrections, initial TS optimization,
                  C. Bannwarth                     DFT functionals, gCP, sTDA/sTD-DF
   Ed Valeev, F. Pavosevic, A. Kumar             : LibInt (2-el integral package), F12 methods
   Garnet Chan, S. Sharma, J. Yang, R. Olivares  : DMRG
   Ulf Ekstrom                                   : XCFun DFT Library
   Mihaly Kallay                                 : mrcc  (arbitrary order and MRCC methods)
   Andreas Klamt, Michael Diedenhofen            : otool_cosmo (COSMO solvation model)
   Jiri Pittner, Ondrej Demel                    : Mk-CCSD
   Frank Weinhold                                : gennbo (NPA and NBO analysis)
   Christopher J. Cramer and Donald G. Truhlar   : smd solvation model
   Lars Goerigk                                  : TD-DFT with DH, B97 family of functionals
   V. Asgeirsson, H. Jonsson                     : NEB implementation
   FAccTs GmbH                                   : IRC, NEB, NEB-TS, Multilevel, MM, QM/MM, CI optimization
   S Lehtola, MJT Oliveira, MAL Marques          : LibXC Library


 Your calculation uses the libint2 library for the computation of 2-el integrals
 For citations please refer to: http://libint.valeyev.net

 Your ORCA version has been built with support for libXC version: 4.2.3
 For citations please refer to: https://tddft.org/programs/libxc/

 This ORCA versions uses:
   CBLAS   interface :  Fast vector & matrix operations
   LAPACKE interface :  Fast linear algebra routines
   SCALAPACK package :  Parallel linear algebra routines




***************************************
The coordinates will be read from file: init.xyz
***************************************


----- Orbital basis set information -----
Your calculation utilizes the basis: 6-311G(3df,3pd)
   H, Li - Ne  : R. Krishnan, J. S. Binkley, R. Seeger and J. A. Pople, J. Chem. Phys. 72, 650 (1980).
   Na - Ar     : A. D. McLean and G. S. Chandler J. Chem. Phys. 72, 5639, (1980).
   K  - Ca     : J.-P. Blaudeau, M. P. McGrath, L. A. Curtiss and L. Radom, J. Chem. Phys. 107, 5016 (1997).
   Ga - Kr     : L. A. Curtiss, M. P. McGrath, J.-P. Blandeau, N. E. Davis, R. C. Binning and L. Radom, J. Chem. Phys. 103, 6104 (1995).
   Pol./Diff.
   H, Li - Cl  : T. Clark, J. Chandrasekhar and P. v. R. Schleyer, J. Comp. Chem. 4, 294 (1983).
   H - Ne      : M. J. Frisch, J. A. Pople and J. S. Binkley, J. Chem. Phys. 80, 3265 (1984).

================================================================================
                                        WARNINGS
                       Please study these warnings very carefully!
================================================================================


WARNING: Geometry Optimization
  ===> : Switching off AutoStart
         For restart on a previous wavefunction, please use MOREAD

WARNING: Post HF methods need fully converged wavefunctions
  ===> : Setting SCFConvForced true
         You can overwrite this default with %scf ConvForced false 


INFO   : the flag for use of LIBINT has been found!

================================================================================
                                       INPUT FILE
================================================================================
NAME = NH3.inp
|  1> ! MP2 6-311G(3df,3pd) Opt Freq NoFrozenCore TightOpt TightSCF Grid4 FinalGrid5 PrintBasis PrintMOs NBO
|  2> 
|  3> %pal
|  4>  nprocs 12
|  5> end
|  6> 
|  7> *xyzfile 0 1 init.xyz
|  8> 
|  9>                          ****END OF INPUT****
================================================================================

                       *****************************
                       * Geometry Optimization Run *
                       *****************************

Geometry optimization settings:
Update method            Update   .... BFGS
Choice of coordinates    CoordSys .... Z-matrix Internals
Initial Hessian          InHess   .... Almoef's Model

Convergence Tolerances:
Energy Change            TolE     ....  1.0000e-06 Eh
Max. Gradient            TolMAXG  ....  1.0000e-04 Eh/bohr
RMS Gradient             TolRMSG  ....  3.0000e-05 Eh/bohr
Max. Displacement        TolMAXD  ....  1.0000e-03 bohr
RMS Displacement         TolRMSD  ....  6.0000e-04 bohr
Strict Convergence                ....  False
------------------------------------------------------------------------------
                        ORCA OPTIMIZATION COORDINATE SETUP
------------------------------------------------------------------------------

The optimization will be done in new redundant internal coordinates
Making redundant internal coordinates   ...  (new redundants) done
Evaluating the initial hessian          ...  (Almloef) done
Evaluating the coordinates              ...  done
Calculating the B-matrix                .... done
Calculating the G-matrix                .... done
Diagonalizing the G-matrix              .... done
The first mode is                       ....    1
The number of degrees of freedom        ....    6

    -----------------------------------------------------------------
                    Redundant Internal Coordinates


    -----------------------------------------------------------------
         Definition                    Initial Value    Approx d2E/dq
    -----------------------------------------------------------------
      1. B(H   1,N   0)                  1.0240         0.411062   
      2. B(H   2,N   0)                  1.0240         0.411059   
      3. B(H   3,N   0)                  1.0240         0.411055   
      4. A(H   1,N   0,H   3)          105.5769         0.298336   
      5. A(H   2,N   0,H   3)          105.5760         0.298336   
      6. A(H   1,N   0,H   2)          105.5766         0.298337   
      7. I(H   1,H   3,H   2,N   0)    -63.6393         0.003384   
    -----------------------------------------------------------------

Number of atoms                         .... 4
Number of degrees of freedom            .... 7

         *************************************************************
         *                GEOMETRY OPTIMIZATION CYCLE   1            *
         *************************************************************
---------------------------------
CARTESIAN COORDINATES (ANGSTROEM)
---------------------------------
  N     -2.450307   -2.758448    0.020227
  H     -1.428425   -2.816498   -0.009802
  H     -2.760126   -3.609374    0.498197
  H     -2.760132   -2.860009   -0.950452

----------------------------
CARTESIAN COORDINATES (A.U.)
----------------------------
  NO LB      ZA    FRAG     MASS         X           Y           Z
   0 N     7.0000    0    14.007   -4.630410   -5.212711    0.038223
   1 H     1.0000    0     1.008   -2.699333   -5.322410   -0.018523
   2 H     1.0000    0     1.008   -5.215881   -6.820729    0.941456
   3 H     1.0000    0     1.008   -5.215893   -5.404634   -1.796093

--------------------------------
INTERNAL COORDINATES (ANGSTROEM)
--------------------------------
 N      0   0   0     0.000000000000     0.00000000     0.00000000
 H      1   0   0     1.023969736897     0.00000000     0.00000000
 H      1   2   0     1.023971891049   105.57659500     0.00000000
 H      1   2   3     1.023974065136   105.57690262   248.46346802

---------------------------
INTERNAL COORDINATES (A.U.)
---------------------------
 N      0   0   0     0.000000000000     0.00000000     0.00000000
 H      1   0   0     1.935022372159     0.00000000     0.00000000
 H      1   2   0     1.935026442915   105.57659500     0.00000000
 H      1   2   3     1.935030551344   105.57690262   248.46346802

---------------------
BASIS SET INFORMATION
---------------------
There are 2 groups of distinct atoms

 Group   1 Type N   : 11s5p3d1f contracted to 4s3p3d1f pattern {6311/311/111/1}
 Group   2 Type H   : 5s3p1d contracted to 3s3p1d pattern {311/111/1}

Atom   0N    basis set group =>   1
Atom   1H    basis set group =>   2
Atom   2H    basis set group =>   2
Atom   3H    basis set group =>   2

-------------------------
BASIS SET IN INPUT FORMAT
-------------------------

 # Basis set for element : H 
 NewGTO H 
 S 3 
   1      33.8650000000      0.0254938145
   2       5.0947900000      0.1903731086
   3       1.1587900000      0.8521614860
 S 1 
   1       0.3258400000      1.0000000000
 S 1 
   1       0.1027410000      1.0000000000
 P 1 
   1       3.0000000000      1.0000000000
 P 1 
   1       0.7500000000      1.0000000000
 P 1 
   1       0.1875000000      1.0000000000
 D 1 
   1       1.0000000000      1.0000000000
  end;

 # Basis set for element : N 
 NewGTO N 
 S 6 
   1    6293.4800000000      0.0019697881
   2     949.0440000000      0.0149612859
   3     218.7760000000      0.0735005308
   4      63.6916000000      0.2489367658
   5      18.8282000000      0.6024594331
   6       2.7202300000      0.2562017589
 S 3 
   1      30.6331000000      0.1119060795
   2       7.0261400000      0.9216666549
   3       2.1120500000     -0.0025691918
 P 3 
   1      30.6331000000      0.0383119186
   2       7.0261400000      0.2374031155
   3       2.1120500000      0.8175923978
 S 1 
   1       0.6840090000      1.0000000000
 P 1 
   1       0.6840090000      1.0000000000
 S 1 
   1       0.2008780000      1.0000000000
 P 1 
   1       0.2008780000      1.0000000000
 D 1 
   1       3.6520000000      1.0000000000
 D 1 
   1       0.9130000000      1.0000000000
 D 1 
   1       0.2282500000      1.0000000000
 F 1 
   1       1.0000000000      1.0000000000
  end;



           ************************************************************
           *        Program running with 12 parallel MPI-processes    *
           *              working on a common directory               *
           ************************************************************
------------------------------------------------------------------------------
                           ORCA GTO INTEGRAL CALCULATION
------------------------------------------------------------------------------

                         BASIS SET STATISTICS AND STARTUP INFO

 # of primitive gaussian shells          ...   47
 # of primitive gaussian functions       ...  105
 # of contracted shells                  ...   32
 # of contracted basis functions         ...   86
 Highest angular momentum                ...    3
 Maximum contraction depth               ...    6
 Integral package used                   ... LIBINT
 Integral threshhold            Thresh   ...  2.500e-11
 Primitive cut-off              TCut     ...  2.500e-12


------------------------------ INTEGRAL EVALUATION ----------------------------


 * One electron integrals 
 Pre-screening matrix                    ... done
 Shell pair data                         ... done (   0.000 sec)



           ************************************************************
           *        Program running with 12 parallel MPI-processes    *
           *              working on a common directory               *
           ************************************************************
-------------------------------------------------------------------------------
                                 ORCA SCF
-------------------------------------------------------------------------------

------------
SCF SETTINGS
------------
Hamiltonian:
 Ab initio Hamiltonian  Method          .... Hartree-Fock(GTOs)


General Settings:
 Integral files         IntName         .... NH3
 Hartree-Fock type      HFTyp           .... RHF
 Total Charge           Charge          ....    0
 Multiplicity           Mult            ....    1
 Number of Electrons    NEL             ....   10
 Basis Dimension        Dim             ....   86
 Nuclear Repulsion      ENuc            ....     11.8259167110 Eh

Convergence Acceleration:
 DIIS                   CNVDIIS         .... on
   Start iteration      DIISMaxIt       ....    12
   Startup error        DIISStart       ....  0.200000
   # of expansion vecs  DIISMaxEq       ....     5
   Bias factor          DIISBfac        ....   1.050
   Max. coefficient     DIISMaxC        ....  10.000
 Newton-Raphson         CNVNR           .... off
 SOSCF                  CNVSOSCF        .... on
   Start iteration      SOSCFMaxIt      ....   150
   Startup grad/error   SOSCFStart      ....  0.003300
 Level Shifting         CNVShift        .... on
   Level shift para.    LevelShift      ....    0.2500
   Turn off err/grad.   ShiftErr        ....    0.0010
 Zerner damping         CNVZerner       .... off
 Static damping         CNVDamp         .... on
   Fraction old density DampFac         ....    0.7000
   Max. Damping (<1)    DampMax         ....    0.9800
   Min. Damping (>=0)   DampMin         ....    0.0000
   Turn off err/grad.   DampErr         ....    0.1000
 Fernandez-Rico         CNVRico         .... off

SCF Procedure:
 Maximum # iterations   MaxIter         ....   125
 SCF integral mode      SCFMode         .... Direct
   Integral package                     .... LIBINT
 Reset frequency        DirectResetFreq ....    20
 Integral Threshold     Thresh          ....  2.500e-11 Eh
 Primitive CutOff       TCut            ....  2.500e-12 Eh

Convergence Tolerance:
 Convergence Check Mode ConvCheckMode   .... Total+1el-Energy
 Convergence forced     ConvForced      .... 1
 Energy Change          TolE            ....  1.000e-08 Eh
 1-El. energy change                    ....  1.000e-05 Eh
 Orbital Gradient       TolG            ....  1.000e-05
 Orbital Rotation angle TolX            ....  1.000e-05
 DIIS Error             TolErr          ....  5.000e-07


Diagonalization of the overlap matrix:
Smallest eigenvalue                        ... 1.230e-03
Time for diagonalization                   ...    0.002 sec
Threshold for overlap eigenvalues          ... 1.000e-08
Number of eigenvalues below threshold      ... 0
Time for construction of square roots      ...    0.010 sec
Total time needed                          ...    0.013 sec

-------------------
DFT GRID GENERATION
-------------------

General Integration Accuracy     IntAcc      ...  4.670
Radial Grid Type                 RadialGrid  ... Gauss-Chebyshev
Angular Grid (max. acc.)         AngularGrid ... Lebedev-302
Angular grid pruning method      GridPruning ... 3 (G Style)
Weight generation scheme         WeightScheme... Becke
Basis function cutoff            BFCut       ...    1.0000e-11
Integration weight cutoff        WCut        ...    1.0000e-14
Grids for H and He will be reduced by one unit

# of grid points (after initial pruning)     ...  16394 (   0.0 sec)
# of grid points (after weights+screening)   ...  16133 (   0.0 sec)
nearest neighbour list constructed           ...    0.0 sec
Grid point re-assignment to atoms done       ...    0.0 sec
Grid point division into batches done        ...    0.1 sec
Reduced shell lists constructed in    0.1 sec

Total number of grid points                  ...    16133
Total number of batches                      ...      254
Average number of points per batch           ...       63
Average number of grid points per atom       ...     4033
Average number of shells per batch           ...    26.26 (82.07%)
Average number of basis functions per batch  ...    69.91 (81.29%)
Average number of large shells per batch     ...    24.04 (91.56%)
Average number of large basis fcns per batch ...    64.30 (91.98%)
Maximum spatial batch extension              ...  13.71, 10.83, 13.15 au
Average spatial batch extension              ...   0.31,  0.28,  0.29 au

Time for grid setup =    0.185 sec

------------------------------
INITIAL GUESS: MODEL POTENTIAL
------------------------------
Loading Hartree-Fock densities                     ... done
Calculating cut-offs                               ... done
Setting up the integral package                    ... done
Initializing the effective Hamiltonian             ... done
Starting the Coulomb interaction                   ... done (   0.0 sec)
Reading the grid                                   ... done
Mapping shells                                     ... done
Starting the XC term evaluation                    ... done (   0.0 sec)
Transforming the Hamiltonian                       ... done (   0.0 sec)
Diagonalizing the Hamiltonian                      ... done (   0.0 sec)
Back transforming the eigenvectors                 ... done (   0.0 sec)
Now organizing SCF variables                       ... done
                      ------------------
                      INITIAL GUESS DONE (   0.3 sec)
                      ------------------
--------------
SCF ITERATIONS
--------------
ITER       Energy         Delta-E        Max-DP      RMS-DP      [F,P]     Damp
               ***  Starting incremental Fock matrix formation  ***
  0    -56.0756415677   0.000000000000 0.06868210  0.00161705  0.4107591 0.7000
  1    -56.1303618948  -0.054720327149 0.04198744  0.00117414  0.2451901 0.7000
                               ***Turning on DIIS***
  2    -56.1598834586  -0.029521563780 0.02023987  0.00065889  0.1332165 0.7000
  3    -56.3504510039  -0.190567545313 0.02426764  0.00087883  0.0712312 0.0000
  4    -56.1826341202   0.167816883703 0.01025702  0.00029074  0.0144316 0.0000
                      *** Initiating the SOSCF procedure ***
                           *** Shutting down DIIS ***
                      *** Re-Reading the Fockian *** 
                      *** Removing any level shift *** 
ITER      Energy       Delta-E        Grad      Rot      Max-DP    RMS-DP
  5    -56.21427501  -0.0316408941  0.001945  0.001945  0.003487  0.000114
               *** Restarting incremental Fock matrix formation ***
  6    -56.21506865  -0.0007936354  0.000807  0.000965  0.002119  0.000067
  7    -56.21507484  -0.0000061951  0.000305  0.000784  0.001367  0.000044
  8    -56.21507621  -0.0000013621  0.000029  0.000037  0.000094  0.000002
  9    -56.21507622  -0.0000000090  0.000013  0.000019  0.000014  0.000001
 10    -56.21507622  -0.0000000023  0.000004  0.000009  0.000005  0.000000
                 **** Energy Check signals convergence ****
              ***Rediagonalizing the Fockian in SOSCF/NRSCF***

               *****************************************************
               *                     SUCCESS                       *
               *           SCF CONVERGED AFTER  11 CYCLES          *
               *****************************************************


----------------
TOTAL SCF ENERGY
----------------

Total Energy       :          -56.21507622 Eh           -1529.68999 eV

Components:
Nuclear Repulsion  :           11.82591671 Eh             321.79955 eV
Electronic Energy  :          -68.04099293 Eh           -1851.48955 eV
One Electron Energy:          -99.40764105 Eh           -2705.01943 eV
Two Electron Energy:           31.36664812 Eh             853.52989 eV

Virial components:
Potential Energy   :         -112.33463392 Eh           -3056.78079 eV
Kinetic Energy     :           56.11955771 Eh            1527.09080 eV
Virial Ratio       :            2.00170205


---------------
SCF CONVERGENCE
---------------

  Last Energy change         ...   -1.7526e-10  Tolerance :   1.0000e-08
  Last MAX-Density change    ...    3.3495e-06  Tolerance :   1.0000e-07
  Last RMS-Density change    ...    1.1085e-07  Tolerance :   5.0000e-09
  Last Orbital Gradient      ...    8.8355e-07  Tolerance :   1.0000e-05
  Last Orbital Rotation      ...    2.0969e-06  Tolerance :   1.0000e-05

             **** THE GBW FILE WAS UPDATED (NH3.gbw) ****
             **** DENSITY FILE WAS UPDATED (NH3.scfp) ****
             **** ENERGY FILE WAS UPDATED (NH3.en.tmp) ****
             **** THE GBW FILE WAS UPDATED (NH3.gbw) ****
             **** DENSITY FILE WAS UPDATED (NH3.scfp) ****
----------------
ORBITAL ENERGIES
----------------

  NO   OCC          E(Eh)            E(eV) 
   0   2.0000     -15.537903      -422.8078 
   1   2.0000      -1.133691       -30.8493 
   2   2.0000      -0.617837       -16.8122 
   3   2.0000      -0.617834       -16.8121 
   4   2.0000      -0.429909       -11.6984 
   5   0.0000       0.152494         4.1496 
   6   0.0000       0.202060         5.4983 
   7   0.0000       0.202061         5.4984 
   8   0.0000       0.355373         9.6702 
   9   0.0000       0.355374         9.6702 
  10   0.0000       0.407083        11.0773 
  11   0.0000       0.435470        11.8497 
  12   0.0000       0.435471        11.8498 
  13   0.0000       0.479016        13.0347 
  14   0.0000       0.645809        17.5734 
  15   0.0000       0.645810        17.5734 
  16   0.0000       0.653787        17.7904 
  17   0.0000       0.810184        22.0462 
  18   0.0000       0.822561        22.3830 
  19   0.0000       0.822563        22.3831 
  20   0.0000       0.851229        23.1631 
  21   0.0000       0.934136        25.4191 
  22   0.0000       0.934138        25.4192 
  23   0.0000       1.070362        29.1260 
  24   0.0000       1.070362        29.1260 
  25   0.0000       1.114937        30.3390 
  26   0.0000       1.117905        30.4197 
  27   0.0000       1.117908        30.4198 
  28   0.0000       1.374765        37.4093 
  29   0.0000       2.030113        55.2422 
  30   0.0000       2.030115        55.2422 
  31   0.0000       2.081624        56.6439 
  32   0.0000       2.090904        56.8964 
  33   0.0000       2.180451        59.3331 
  34   0.0000       2.180454        59.3332 
  35   0.0000       2.374130        64.6034 
  36   0.0000       2.374134        64.6035 
  37   0.0000       2.566382        69.8348 
  38   0.0000       2.782975        75.7286 
  39   0.0000       2.855739        77.7086 
  40   0.0000       2.855740        77.7086 
  41   0.0000       3.116264        84.7979 
  42   0.0000       3.181568        86.5749 
  43   0.0000       3.181570        86.5749 
  44   0.0000       3.258259        88.6617 
  45   0.0000       3.258264        88.6619 
  46   0.0000       3.276891        89.1687 
  47   0.0000       3.407651        92.7269 
  48   0.0000       3.524534        95.9074 
  49   0.0000       3.524542        95.9077 
  50   0.0000       3.612845        98.3105 
  51   0.0000       3.612852        98.3107 
  52   0.0000       3.997110       108.7669 
  53   0.0000       3.997113       108.7670 
  54   0.0000       4.138584       112.6166 
  55   0.0000       4.145443       112.8033 
  56   0.0000       4.383149       119.2716 
  57   0.0000       4.383151       119.2716 
  58   0.0000       4.744195       129.0961 
  59   0.0000       4.851081       132.0046 
  60   0.0000       4.925104       134.0189 
  61   0.0000       4.925109       134.0190 
  62   0.0000       5.322573       144.8346 
  63   0.0000       5.540633       150.7683 
  64   0.0000       5.540636       150.7684 
  65   0.0000       5.603112       152.4684 
  66   0.0000       5.681380       154.5982 
  67   0.0000       5.681388       154.5984 
  68   0.0000       5.816965       158.2877 
  69   0.0000       6.434324       175.0869 
  70   0.0000       6.434332       175.0871 
  71   0.0000       8.717335       237.2108 
  72   0.0000       8.717338       237.2108 
  73   0.0000       8.798048       239.4071 
  74   0.0000       8.817649       239.9404 
  75   0.0000       8.886735       241.8204 
  76   0.0000       8.886743       241.8206 
  77   0.0000       9.651709       262.6363 
  78   0.0000       9.651718       262.6366 
  79   0.0000       9.667194       263.0577 
  80   0.0000      11.378848       309.6342 
  81   0.0000      11.479500       312.3731 
  82   0.0000      11.479511       312.3734 
  83   0.0000      12.268822       333.8516 
  84   0.0000      12.268835       333.8520 
  85   0.0000      38.557682      1049.2079 
------------------
MOLECULAR ORBITALS
------------------
                      0         1         2         3         4         5   
                 -15.53790  -1.13369  -0.61784  -0.61783  -0.42991   0.15249
                   2.00000   2.00000   2.00000   2.00000   2.00000   0.00000
                  --------  --------  --------  --------  --------  --------
  0N   1s         0.557681  0.107271  0.000000  0.000000  0.035126  0.042231
  0N   2s         0.468204  0.177567  0.000000  0.000000  0.059538  0.071347
  0N   1pz       -0.000824  0.014856 -0.039356  0.181912 -0.107127  0.020519
  0N   1px        0.000634 -0.011432 -0.194517 -0.008235  0.082435 -0.015789
  0N   1py       -0.001593  0.028720 -0.057071 -0.097379 -0.207092  0.039666
  0N   3s         0.005283 -0.472121 -0.000001 -0.000001 -0.182800 -0.088616
  0N   2pz        0.000309  0.024285 -0.061397  0.283795 -0.165314  0.056580
  0N   2px       -0.000237 -0.018688 -0.303459 -0.012847  0.127211 -0.043539
  0N   2py        0.000597  0.046948 -0.089034 -0.151918 -0.319578  0.109379
  0N   4s        -0.001213 -0.351732 -0.000000 -0.000001 -0.121190 -1.999783
  0N   3pz       -0.000089  0.011112 -0.039131  0.180878 -0.170424  0.148983
  0N   3px        0.000068 -0.008551 -0.193410 -0.008188  0.131143 -0.114648
  0N   3py       -0.000171  0.021482 -0.056746 -0.096826 -0.329456  0.288019
  0N   1dz2       0.000010 -0.000112  0.002242 -0.002759 -0.000213  0.000470
  0N   1dxz       0.000011 -0.000128  0.000869 -0.001168 -0.000244  0.000538
  0N   1dyz      -0.000028  0.000323 -0.000231 -0.002343  0.000613 -0.001352
  0N   1dx2y2     0.000022 -0.000263 -0.003139 -0.001780 -0.000499  0.001100
  0N   1dxy       0.000021 -0.000248  0.001555  0.000689 -0.000472  0.001040
  0N   2dz2       0.000017 -0.001083  0.016389 -0.019747 -0.002078 -0.003921
  0N   2dxz       0.000020 -0.001240  0.006103 -0.008870 -0.002377 -0.004489
  0N   2dyz      -0.000049  0.003115 -0.001939 -0.016791  0.005973  0.011276
  0N   2dx2y2     0.000040 -0.002534 -0.022646 -0.012760 -0.004858 -0.009173
  0N   2dxy       0.000038 -0.002397  0.010853  0.005182 -0.004596 -0.008677
  0N   3dz2      -0.000026  0.000162  0.003017 -0.011672  0.001285 -0.008043
  0N   3dxz      -0.000030  0.000186  0.005914  0.004754  0.001471 -0.009207
  0N   3dyz       0.000074 -0.000467  0.004515 -0.009455 -0.003696  0.023131
  0N   3dx2y2    -0.000060  0.000380 -0.009890 -0.007231  0.003006 -0.018816
  0N   3dxy      -0.000057  0.000359  0.011899 -0.001826  0.002844 -0.017799
  0N   1f0       -0.000087  0.002281 -0.002131  0.000711 -0.002917  0.012813
  0N   1f+1      -0.000144  0.002311  0.000763  0.002223 -0.001756  0.014246
  0N   1f-1      -0.000022  0.000425 -0.000388 -0.000411 -0.000411  0.002527
  0N   1f+2      -0.000042  0.001650 -0.001428 -0.001041 -0.002554  0.008800
  0N   1f-2       0.000079 -0.000368  0.000915  0.002001 -0.000923 -0.003534
  0N   1f+3      -0.000095  0.002558  0.002330 -0.001598 -0.003335  0.014307
  0N   1f-3      -0.000034  0.000075 -0.000116 -0.000579  0.000570  0.001124
  1H   1s         0.000181 -0.087983 -0.164818 -0.006978  0.044599  0.019649
  1H   2s         0.000136 -0.087125 -0.244158 -0.010337  0.040237  0.166231
  1H   3s         0.000211 -0.001426 -0.127644 -0.005404  0.002814  0.778998
  1H   1pz        0.000010  0.000021 -0.000385  0.001388 -0.001137  0.000273
  1H   1px       -0.000092  0.003040  0.003783  0.000160 -0.000877  0.006482
  1H   1py        0.000019  0.000041 -0.000599 -0.000752 -0.002198  0.000529
  1H   2pz       -0.000059  0.000230 -0.003124  0.011614 -0.007152  0.000926
  1H   2px        0.000138  0.018320  0.017797  0.000753 -0.000719 -0.047890
  1H   2py       -0.000115  0.000445 -0.004822 -0.006280 -0.013827  0.001791
  1H   3pz        0.000052  0.000304 -0.000779  0.000407 -0.018468  0.013458
  1H   3px       -0.000169  0.000601  0.027132  0.001149  0.025898 -0.101021
  1H   3py        0.000101  0.000588 -0.001461 -0.000289 -0.035701  0.026015
  1H   1dz2       0.000055  0.000861  0.000141 -0.000257  0.000157 -0.004947
  1H   1dxz       0.000050 -0.000171  0.000645 -0.003289  0.002416 -0.001261
  1H   1dyz      -0.000012  0.000086  0.000247 -0.000205 -0.000157 -0.000347
  1H   1dx2y2    -0.000079 -0.001614 -0.000556 -0.000176 -0.000049  0.009061
  1H   1dxy       0.000097 -0.000331  0.000904  0.001754  0.004670 -0.002437
  2H   1s         0.000181 -0.087983  0.076366  0.146225  0.044599  0.019649
  2H   2s         0.000136 -0.087124  0.113127  0.216616  0.040236  0.166227
  2H   3s         0.000211 -0.001426  0.059143  0.113247  0.002814  0.779000
  2H   1pz       -0.000034  0.001576 -0.001489 -0.000883 -0.002028  0.003677
  2H   1px        0.000021 -0.001035 -0.000714  0.001419  0.001459 -0.002441
  2H   1py        0.000086 -0.002385  0.001554  0.003066 -0.000808 -0.004784
  2H   2pz       -0.000013  0.009639 -0.009255 -0.001260 -0.010318 -0.023068
  2H   2px        0.000015 -0.006343 -0.008063  0.007866  0.007578  0.015013
  2H   2py       -0.000188 -0.014239  0.007843  0.015779 -0.008886  0.039241
  2H   3pz       -0.000013  0.000729 -0.006157 -0.011172 -0.012523 -0.032656
  2H   3px        0.000002 -0.000513  0.003471  0.007518  0.010315  0.019867
  2H   3py        0.000203 -0.000075  0.010434  0.020008 -0.044979  0.097989
  2H   1dz2       0.000071  0.000002  0.001566 -0.001609  0.002962 -0.002729
  2H   1dxz      -0.000010  0.000624  0.001080  0.000070 -0.002197 -0.001459
  2H   1dyz       0.000040  0.001392 -0.001476  0.000458 -0.001031 -0.006832
  2H   1dx2y2     0.000118  0.000541 -0.001348 -0.000236  0.003494 -0.006221
  2H   1dxy      -0.000021 -0.000934 -0.001942  0.001188  0.000907  0.004390
  3H   1s         0.000181 -0.087982  0.088452 -0.139247  0.044599  0.019649
  3H   2s         0.000136 -0.087124  0.131032 -0.206279  0.040237  0.166220
  3H   3s         0.000211 -0.001426  0.068503 -0.107843  0.002815  0.778992
  3H   1pz        0.000089 -0.002857  0.002375 -0.002822  0.000513 -0.006029
  3H   1px        0.000021 -0.001035 -0.000591 -0.001474  0.001459 -0.002441
  3H   1py        0.000022 -0.000092 -0.000227 -0.001074 -0.002122  0.000237
  3H   2pz       -0.000146 -0.017191  0.012857 -0.012565 -0.001291  0.045356
  3H   2px        0.000015 -0.006343 -0.007369 -0.008519  0.007578  0.015013
  3H   2py       -0.000119 -0.000360 -0.002327 -0.008316 -0.013555  0.003846
  3H   3pz        0.000173 -0.000482  0.013956 -0.021683 -0.029474  0.098841
  3H   3px        0.000002 -0.000513  0.004094 -0.007198  0.010315  0.019866
  3H   3py        0.000107  0.000552  0.001207 -0.002348 -0.036210  0.029964
  3H   1dz2      -0.000101 -0.001449  0.001957  0.000406 -0.001172  0.009167
  3H   1dxz      -0.000011 -0.001123 -0.002122 -0.001113  0.002010  0.004426
  3H   1dyz      -0.000100  0.000206 -0.000997 -0.001668 -0.004410  0.002893
  3H   1dx2y2     0.000019 -0.000297 -0.001056 -0.000646  0.001108  0.000647
  3H   1dxy      -0.000020 -0.000031 -0.000177 -0.000761 -0.001270  0.001346
                      6         7         8         9        10        11   
                   0.20206   0.20206   0.35537   0.35537   0.40708   0.43547
                   0.00000   0.00000   0.00000   0.00000   0.00000   0.00000
                  --------  --------  --------  --------  --------  --------
  0N   1s        -0.000000 -0.000000  0.000000 -0.000000 -0.015859 -0.000000
  0N   2s        -0.000000 -0.000000  0.000000 -0.000000 -0.026576 -0.000000
  0N   1pz        0.027014 -0.088111  0.061235  0.013079  0.034816  0.025764
  0N   1px        0.095629  0.012186 -0.002597  0.065447 -0.026793  0.062641
  0N   1py        0.024092  0.050429 -0.032710  0.019287  0.067304  0.011609
  0N   3s         0.000001  0.000000 -0.000002  0.000000  0.164927 -0.000003
  0N   2pz        0.045076 -0.147024 -0.016302 -0.003481  0.048363  0.008662
  0N   2px        0.159572  0.020334  0.000693 -0.017429 -0.037217  0.021056
  0N   2py        0.040200  0.084149  0.008708 -0.005135  0.093494  0.003903
  0N   4s         0.000017 -0.000012  0.000018 -0.000041 -1.393818  0.000055
  0N   3pz        0.554404 -1.808241 -1.832026 -0.391276  0.678489 -0.260288
  0N   3px        1.962564  0.250084  0.077706 -1.958071 -0.522073 -0.632887
  0N   3py        0.494427  1.034932  0.978603 -0.576998  1.311669 -0.117285
  0N   1dz2       0.001852 -0.001989 -0.001543 -0.000826  0.000022 -0.000139
  0N   1dxz       0.000760 -0.000755 -0.000021 -0.000631  0.000025  0.000280
  0N   1dyz       0.000025 -0.001815 -0.001279 -0.000226 -0.000063  0.000745
  0N   1dx2y2    -0.002277 -0.001574 -0.000970  0.001534  0.000051 -0.000233
  0N   1dxy       0.001208  0.000594  0.000072 -0.001216  0.000048  0.001132
  0N   2dz2      -0.032487  0.033936  0.061754  0.075389 -0.010850  0.022116
  0N   2dxz      -0.012825  0.014145  0.064344  0.010397 -0.012417  0.015763
  0N   2dyz       0.000258  0.031159  0.053998 -0.026951  0.031196  0.018088
  0N   2dx2y2     0.039352  0.026998  0.040697 -0.083524 -0.025373 -0.029037
  0N   2dxy      -0.019944 -0.010704 -0.034045  0.013812 -0.024006  0.036050
  0N   3dz2      -0.319125  0.245700  0.439223  0.224717  0.063101  0.440165
  0N   3dxz      -0.078342  0.223772 -0.009537  0.183371  0.072220  0.044602
  0N   3dyz       0.067341  0.242676  0.363432  0.073230 -0.181424 -0.248930
  0N   3dx2y2     0.332903  0.207758  0.275853 -0.431340  0.147597 -0.283227
  0N   3dxy      -0.079619 -0.131062 -0.012907  0.354704  0.139608 -0.246123
  0N   1f0        0.010218 -0.002483 -0.004959 -0.016002  0.012932 -0.012132
  0N   1f+1      -0.002654 -0.010746 -0.012397  0.006961  0.010484  0.002522
  0N   1f-1       0.001587  0.002272 -0.008075 -0.005250  0.002119 -0.003959
  0N   1f+2       0.006367  0.005392  0.009679 -0.004414  0.010322 -0.003050
  0N   1f-2      -0.003569 -0.009775 -0.010913  0.001500  0.000956  0.000310
  0N   1f+3      -0.011599  0.006584  0.008903  0.012210  0.014641  0.011325
  0N   1f-3       0.000149  0.002658  0.008386 -0.010145 -0.001027 -0.004074
  1H   1s         0.037133  0.004732  0.005050 -0.127235 -0.044720 -0.055324
  1H   2s        -0.943620 -0.120245 -0.045902  1.156600  0.228027  0.547580
  1H   3s        -3.386395 -0.431536 -0.055585  1.400458  0.190249  1.645260
  1H   1pz        0.002054 -0.004346  0.004102  0.000784 -0.003333  0.003489
  1H   1px       -0.006777 -0.000864 -0.000139  0.003497  0.002373 -0.001928
  1H   1py        0.002554  0.002709 -0.002182  0.001115 -0.006444  0.009294
  1H   2pz       -0.013305  0.025127  0.018706 -0.001216  0.010662 -0.007255
  1H   2px        0.060369  0.007693  0.005370 -0.135279 -0.054661 -0.044051
  1H   2py       -0.017479 -0.016102 -0.009487 -0.004162  0.020611 -0.018197
  1H   3pz        0.016755 -0.101387  0.690329  0.036112 -0.390607  0.227899
  1H   3px        0.987537  0.125842  0.045997 -1.158851 -0.315819 -0.963740
  1H   3py        0.000583  0.053624 -0.357938  0.002638 -0.755114  0.874596
  1H   1dz2       0.010838 -0.002789 -0.004196 -0.019923 -0.009669 -0.015941
  1H   1dxz       0.001328 -0.001997 -0.019222 -0.001146  0.006658 -0.003045
  1H   1dyz      -0.000323 -0.003450 -0.003963 -0.002867  0.006839  0.006391
  1H   1dx2y2    -0.016502 -0.004511 -0.004383  0.037881  0.007064  0.017172
  1H   1dxy       0.001902  0.001363  0.009981 -0.000344  0.012870 -0.013894
  2H   1s        -0.014469 -0.034523 -0.112714  0.059243 -0.044724  0.015008
  2H   2s         0.367673  0.877307  1.024578 -0.538539  0.228076 -0.148539
  2H   3s         1.319480  3.148473  1.240635 -0.652081  0.190317 -0.446296
  2H   1pz        0.003281  0.000148  0.003588  0.001143 -0.003431 -0.003996
  2H   1px        0.003585 -0.002317  0.000170  0.004200  0.002629 -0.002527
  2H   1py       -0.002730 -0.006870 -0.001675  0.001021 -0.006291 -0.002158
  2H   2pz       -0.022509 -0.009008 -0.057728  0.044020 -0.012969  0.013638
  2H   2px       -0.018693  0.018679  0.049696 -0.006760  0.007283 -0.000562
  2H   2py        0.023058  0.057086  0.093103 -0.048304  0.057494 -0.006081
  2H   3pz       -0.136261 -0.497649 -0.302590  0.666090 -0.704141 -0.454481
  2H   3px        0.216833  0.273164  0.629913  0.386758  0.506053 -0.589672
  2H   3py        0.306361  0.723039  0.834810 -0.415335 -0.265740 -0.372913
  2H   1dz2       0.003240 -0.005119 -0.012069 -0.011184  0.007486  0.008340
  2H   1dxz      -0.000278 -0.005847 -0.011593 -0.001360 -0.016250  0.004421
  2H   1dyz      -0.004068 -0.012488 -0.024168  0.020657 -0.007410 -0.004203
  2H   1dx2y2    -0.006896 -0.008811 -0.012462  0.015891  0.000936  0.003447
  2H   1dxy       0.004399  0.007289  0.023183  0.000055  0.004926 -0.011683
  3H   1s        -0.022664  0.029791  0.107665  0.067989 -0.044722  0.040318
  3H   2s         0.575938 -0.757054 -0.978674 -0.618046  0.228051 -0.399050
  3H   3s         2.066904 -2.716935 -1.185065 -0.748356  0.190292 -1.199000
  3H   1pz       -0.005420  0.004476  0.003416  0.000445 -0.003152 -0.001218
  3H   1px        0.002890  0.003142 -0.000502  0.004173  0.002629  0.000261
  3H   1py        0.000100  0.004001 -0.002075  0.001363 -0.006435 -0.007914
  3H   2pz        0.043798 -0.042160 -0.103860 -0.073321  0.054417 -0.030097
  3H   2px       -0.013410 -0.022770 -0.049005 -0.010678  0.007282 -0.013050
  3H   2py        0.001542 -0.026079 -0.007293  0.007463  0.022635  0.013592
  3H   3pz        0.538376 -0.767164 -0.796135 -0.789437  0.189942 -0.570129
  3H   3px        0.278411 -0.210057 -0.658595  0.335613  0.506049 -0.383703
  3H   3py        0.066611  0.005268 -0.258710  0.284054 -0.728253 -0.860674
  3H   1dz2       0.010901 -0.012959 -0.024772 -0.028100  0.005518 -0.010168
  3H   1dxz       0.005971 -0.008089 -0.025606 -0.001203  0.013409 -0.013390
  3H   1dyz       0.000328 -0.004240 -0.008354  0.007868 -0.009019 -0.015250
  3H   1dx2y2    -0.003660 -0.004013 -0.010596  0.006489 -0.000200  0.001998
  3H   1dxy       0.002100  0.001123 -0.003835 -0.001387 -0.010417 -0.001059
                     12        13        14        15        16        17   
                   0.43547   0.47902   0.64581   0.64581   0.65379   0.81018
                   0.00000   0.00000   0.00000   0.00000   0.00000   0.00000
                  --------  --------  --------  --------  --------  --------
  0N   1s        -0.000000 -0.002083 -0.000000 -0.000000  0.000000 -0.025428
  0N   2s        -0.000000  0.001183  0.000000 -0.000000  0.000000 -0.049928
  0N   1pz       -0.056325 -0.064993  0.064493 -0.109706 -0.000010  0.017318
  0N   1px        0.016546  0.050014  0.124551  0.046982 -0.000006 -0.013326
  0N   1py        0.035723 -0.125643  0.016217  0.075451  0.000003  0.033477
  0N   3s        -0.000000  0.308697 -0.000001  0.000000 -0.000000  0.185533
  0N   2pz       -0.018935 -0.012730  0.089949 -0.153007 -0.000015  0.067873
  0N   2px        0.005561  0.009791  0.173708  0.065524 -0.000008 -0.052226
  0N   2py        0.012009 -0.024604  0.022618  0.105231  0.000004  0.131207
  0N   4s         0.000030 -7.722937 -0.000012  0.000017  0.000000 -0.662181
  0N   3pz        0.569057  0.362472 -0.301478  0.512790  0.000015 -0.073214
  0N   3px       -0.167171 -0.278921 -0.582273 -0.219627  0.000012  0.056405
  0N   3py       -0.360905  0.700749 -0.075820 -0.352690 -0.000003 -0.141531
  0N   1dz2      -0.000715  0.000190 -0.000564  0.001024  0.000000  0.003039
  0N   1dxz       0.001049  0.000218 -0.000395 -0.000753 -0.000000  0.003478
  0N   1dyz      -0.000358 -0.000546 -0.000778  0.000717  0.000000 -0.008737
  0N   1dx2y2    -0.000453  0.000445  0.000662  0.000964 -0.000000  0.007106
  0N   1dxy      -0.000205  0.000421 -0.001252 -0.000160  0.000000  0.006723
  0N   2dz2      -0.034907 -0.016304  0.017527 -0.006178 -0.000001 -0.001438
  0N   2dxz       0.013381 -0.018661  0.005674 -0.011844 -0.000001 -0.001645
  0N   2dyz      -0.028533  0.046881 -0.002182 -0.011278 -0.000000  0.004133
  0N   2dx2y2    -0.031196 -0.038136 -0.012627 -0.012147  0.000000 -0.003360
  0N   2dxy       0.004754 -0.036076 -0.000347  0.007103  0.000000 -0.003180
  0N   3dz2      -0.031758 -0.118202  0.442813 -0.161355 -0.000028  0.284976
  0N   3dxz      -0.537503 -0.135293  0.144722 -0.292026 -0.000017  0.326121
  0N   3dyz      -0.186757  0.339857 -0.049724 -0.287200 -0.000006 -0.819294
  0N   3dx2y2    -0.160275 -0.276457 -0.320619 -0.310535  0.000006  0.666430
  0N   3dxy       0.219128 -0.261535 -0.000715  0.179028  0.000008  0.630447
  0N   1f0        0.001086  0.043103 -0.005559  0.000084  0.004665 -0.016605
  0N   1f+1       0.010737  0.048756 -0.000317  0.006377 -0.002296 -0.017086
  0N   1f-1       0.002613  0.008592  0.000308 -0.002811 -0.003869 -0.003122
  0N   1f+2      -0.007446  0.029295 -0.003579 -0.003571 -0.005326 -0.011913
  0N   1f-2       0.009100 -0.012854  0.001202  0.006271 -0.002056  0.002981
  0N   1f+3      -0.004809  0.048083  0.007633 -0.002153  0.001778 -0.018611
  0N   1f-3      -0.006230  0.004243  0.001356 -0.000384 -0.002777 -0.000692
  1H   1s        -0.014613 -0.061540 -0.040198 -0.015163  0.000002 -0.001899
  1H   2s         0.144639  1.168148  0.541549  0.204269 -0.000016 -0.748924
  1H   3s         0.434575  1.225347  3.180542  1.199734 -0.000141  0.463738
  1H   1pz        0.005135  0.001079 -0.010094  0.006702 -0.013451  0.001590
  1H   1px       -0.000509  0.004885 -0.004040 -0.001524  0.000000 -0.005068
  1H   1py        0.000276  0.002086 -0.011008 -0.009589  0.006959  0.003074
  1H   2pz       -0.008813 -0.008562  0.064070 -0.048483  0.071512 -0.002451
  1H   2px       -0.011636 -0.189668 -0.040113 -0.015131  0.000001  0.046479
  1H   2py       -0.001239 -0.016553  0.065063  0.062124 -0.036997 -0.004739
  1H   3pz        0.777551  0.189038 -0.865172  0.784827 -1.153718 -0.122977
  1H   3px       -0.254558 -1.468591 -1.728326 -0.651938  0.000073 -0.503056
  1H   3py       -0.140067  0.365428 -0.773258 -0.866480  0.596859 -0.237735
  1H   1dz2      -0.002587 -0.024641 -0.010109 -0.002176  0.002937 -0.005819
  1H   1dxz      -0.014039 -0.004586  0.004928 -0.005476  0.008911  0.004120
  1H   1dyz       0.003016 -0.003420 -0.000460  0.001165  0.002401  0.005232
  1H   1dx2y2     0.005473  0.047521  0.016286  0.007089  0.001695  0.002672
  1H   1dxy       0.003176 -0.008865  0.003591  0.005149 -0.004610  0.007965
  2H   1s         0.055219 -0.061540  0.006967  0.042394  0.000001 -0.001898
  2H   2s        -0.546542  1.168140 -0.093873 -0.571086 -0.000007 -0.748871
  2H   3s        -1.642140  1.225325 -0.551280 -3.354285 -0.000123  0.463822
  2H   1pz       -0.004618  0.003986 -0.004346  0.012921  0.008736 -0.000365
  2H   1px        0.004979 -0.002735 -0.010329 -0.007121  0.012366  0.000058
  2H   1py       -0.007474 -0.002451  0.000671  0.005902  0.000404  0.006126
  2H   2pz        0.033668 -0.108382  0.037420 -0.044448 -0.046444  0.020228
  2H   2px       -0.025437  0.072007  0.066461  0.019135 -0.065748 -0.012977
  2H   2py       -0.023135  0.139244 -0.012691 -0.089799 -0.002150 -0.040136
  2H   3pz        0.044881 -0.483953 -0.393538  1.767571  0.749317 -0.427018
  2H   3px        0.261342  0.295577 -1.131395 -0.991712  1.060699  0.293877
  2H   3py       -1.292695  1.415771 -0.154441 -0.747158  0.034632  0.236792
  2H   1dz2       0.008187 -0.011883  0.002346 -0.001388 -0.007752  0.004887
  2H   1dxz       0.006133 -0.007947  0.002565  0.008329 -0.003277 -0.010545
  2H   1dyz       0.012050 -0.036979 -0.001661  0.015966  0.002932 -0.003043
  2H   1dx2y2     0.023072 -0.028717 -0.000168  0.005569  0.004185  0.000780
  2H   1dxy      -0.002798  0.024086 -0.007729 -0.009262  0.004585  0.001959
  3H   1s        -0.040606 -0.061540  0.033230 -0.027231 -0.000003 -0.001898
  3H   2s         0.401896  1.168120 -0.447660  0.366805  0.000023 -0.748874
  3H   3s         1.207547  1.225319 -2.629263  2.154546  0.000264  0.463808
  3H   1pz        0.003254 -0.004304  0.000548  0.004009  0.004718  0.005211
  3H   1px       -0.005577 -0.002736 -0.012460 -0.001475 -0.012365  0.000058
  3H   1py        0.004806  0.001837  0.006844 -0.012566 -0.007364  0.003242
  3H   2pz        0.026992  0.176268 -0.055458  0.014626 -0.025077 -0.044446
  3H   2px        0.021842  0.072007  0.062546  0.029528  0.065742 -0.012977
  3H   2py       -0.008509 -0.008004 -0.040798  0.081529  0.039150 -0.006681
  3H   3pz        0.919371  1.435142 -1.001141  1.291700  0.404732  0.439986
  3H   3px       -0.518439  0.295576 -1.504589 -0.002602 -1.060571  0.293873
  3H   3py        0.328056  0.423046  0.359435 -1.030172 -0.631582 -0.211695
  3H   1dz2       0.020843  0.046761 -0.009642  0.013167  0.004816  0.002040
  3H   1dxz      -0.000903  0.024250 -0.014021  0.004144 -0.005634  0.007692
  3H   1dyz       0.006938  0.010962  0.000724 -0.004441 -0.005332 -0.005371
  3H   1dx2y2    -0.004594  0.005142 -0.002504  0.001813 -0.005880 -0.000864
  3H   1dxy      -0.004498  0.007431 -0.000826 -0.002652  0.000026 -0.007475
                     18        19        20        21        22        23   
                   0.82256   0.82256   0.85123   0.93414   0.93414   1.07036
                   0.00000   0.00000   0.00000   0.00000   0.00000   0.00000
                  --------  --------  --------  --------  --------  --------
  0N   1s         0.000002  0.000001  0.079333  0.000001  0.000000  0.000000
  0N   2s         0.000003  0.000003  0.151506  0.000001  0.000001  0.000001
  0N   1pz        0.031799  0.006510  0.029657 -0.083781  0.016967 -0.055486
  0N   1px       -0.001058  0.033935 -0.022821  0.002598  0.089380  0.006443
  0N   1py       -0.016868  0.010141  0.057332  0.044374  0.026802  0.031268
  0N   3s        -0.000011 -0.000008 -0.539741 -0.000006 -0.000001 -0.000004
  0N   2pz        0.145211  0.029725  0.073948 -0.371960  0.075324 -0.517494
  0N   2px       -0.004833  0.154974 -0.056906  0.011534  0.396814  0.060109
  0N   2py       -0.077035  0.046309  0.142955  0.197003  0.118989  0.291625
  0N   4s        -0.000100 -0.000028 -5.345697 -0.000031  0.000007 -0.000043
  0N   3pz        2.675137  0.547639  0.882514 -0.174006  0.035222 -4.874188
  0N   3px       -0.089024  2.854942 -0.679148  0.005393  0.185565  0.566219
  0N   3py       -1.419207  0.853176  1.706164  0.092178  0.055646  2.746758
  0N   1dz2       0.011691  0.011888  0.001672  0.006378  0.004585 -0.009319
  0N   1dxz       0.008857  0.002635  0.001914 -0.011789 -0.005550 -0.002672
  0N   1dyz       0.009963 -0.003305 -0.004808  0.004882 -0.007659 -0.008252
  0N   1dx2y2     0.007420 -0.014610  0.003911  0.003672  0.002273 -0.006965
  0N   1dxy      -0.004761  0.004412  0.003700  0.005679 -0.011557  0.002233
  0N   2dz2      -0.042463 -0.034759 -0.000408  0.013850 -0.008375  0.097814
  0N   2dxz      -0.019509 -0.012680 -0.000468  0.001980 -0.005203  0.077619
  0N   2dyz      -0.035748  0.004795  0.001177  0.011495 -0.000912  0.092509
  0N   2dx2y2    -0.026661  0.048715 -0.000957  0.008556  0.014379  0.077265
  0N   2dxy       0.011013 -0.022993 -0.000905 -0.001390 -0.009908 -0.045820
  0N   3dz2       0.265847  0.430713  0.070644  0.867604  0.451530  1.459538
  0N   3dxz       0.442511  0.000723  0.080867 -1.344473 -0.690635  1.835995
  0N   3dyz       0.234917 -0.212430 -0.203189  0.672505 -0.894124  1.460873
  0N   3dx2y2     0.174188 -0.415083  0.165274  0.504894  0.397874  1.209685
  0N   3dxy      -0.227904 -0.032393  0.156353  0.643548 -1.429373 -0.989728
  0N   1f0       -0.000013 -0.000980  0.008094  0.000895  0.000163 -0.015431
  0N   1f+1       0.002254  0.001231  0.006409  0.009373 -0.002564 -0.055529
  0N   1f-1      -0.008306 -0.001875  0.001310 -0.024704  0.004907 -0.012221
  0N   1f+2       0.001946  0.004141  0.006516  0.004395 -0.013868  0.035687
  0N   1f-2       0.002169 -0.003710  0.000777  0.008809  0.012005 -0.048876
  0N   1f+3      -0.001685 -0.002920  0.009171 -0.006986  0.011419  0.035109
  0N   1f-3       0.003272 -0.007119 -0.000728  0.008749  0.020584  0.027244
  1H   1s         0.001989 -0.063756  0.037976 -0.000163 -0.005595 -0.003881
  1H   2s         0.050490 -1.618076  1.852229 -0.022245 -0.765663 -0.647161
  1H   3s         0.090228 -2.893320  0.258847  0.016025  0.551519 -0.261885
  1H   1pz        0.004974 -0.000617  0.000961 -0.005989 -0.002262  0.002721
  1H   1px       -0.000093  0.002986  0.000985 -0.000126 -0.004351 -0.002389
  1H   1py       -0.002514 -0.001570  0.001858  0.002925 -0.004794 -0.001107
  1H   2pz       -0.015384  0.004694 -0.000491  0.000531  0.013293 -0.049330
  1H   2px       -0.001785  0.057249  0.011658  0.000671  0.023054  0.042961
  1H   2py        0.007563  0.010238 -0.000951  0.000672  0.025709  0.025916
  1H   3pz       -0.332565 -0.155253 -0.166338  0.696404  0.514315 -0.387231
  1H   3px       -0.077020  2.469262 -1.065685  0.003079  0.105944  0.184845
  1H   3py        0.183083 -0.274363 -0.321577 -0.322199  1.042753  0.163157
  1H   1dz2      -0.001382  0.031063 -0.011969 -0.006668  0.014179 -0.010234
  1H   1dxz       0.015312  0.004635  0.003408 -0.022349 -0.013113  0.009018
  1H   1dyz      -0.000424  0.002764 -0.001730 -0.005603  0.006354 -0.014300
  1H   1dx2y2     0.001564 -0.057761  0.023182 -0.005043 -0.032843 -0.019378
  1H   1dxy      -0.008238  0.007779  0.006589  0.010581 -0.026914 -0.002488
  2H   1s        -0.056208  0.030157  0.037976  0.004928  0.002656  0.033233
  2H   2s        -1.426519  0.765395  1.852236  0.674306  0.363574  5.541544
  2H   3s        -2.550815  1.368518  0.258873 -0.485611 -0.261881  2.242605
  2H   1pz        0.001913  0.002623  0.001838  0.003106  0.006043  0.009629
  2H   1px        0.001972  0.004108 -0.001314 -0.006059  0.002917 -0.004768
  2H   1py       -0.002918  0.001734  0.000488 -0.000293  0.000044 -0.017592
  2H   2pz        0.027336 -0.025890  0.005245 -0.026574 -0.014437 -0.202107
  2H   2px       -0.028119 -0.000803 -0.003382  0.018845  0.010009  0.105527
  2H   2py       -0.034258  0.017861 -0.009906  0.000638  0.000337  0.289561
  2H   3pz        0.826176 -0.691752 -0.773473 -0.491927 -0.767764 -0.722819
  2H   3px       -0.741277  0.045893  0.525909  0.810847 -0.274185  0.255252
  2H   3py       -1.901670  1.008778  0.626053 -0.538099 -0.313417  1.423748
  2H   1dz2       0.015157  0.001474  0.001121  0.001903  0.022562 -0.024160
  2H   1dxz       0.012812 -0.002637 -0.009375 -0.019775 -0.001553 -0.029678
  2H   1dyz       0.036199 -0.028434 -0.020488 -0.026136 -0.022392 -0.068678
  2H   1dx2y2     0.027904 -0.019660 -0.006110  0.010350 -0.006031 -0.055914
  2H   1dxy      -0.031580  0.003653  0.013872  0.026335  0.001245  0.033370
  3H   1s         0.054222  0.033600  0.037973 -0.004765  0.002938 -0.029352
  3H   2s         1.376130  0.852783  1.852204 -0.652011  0.402118 -4.894344
  3H   3s         2.460603  1.524772  0.258773  0.469583 -0.289656 -1.980710
  3H   1pz        0.003487  0.000117 -0.000664  0.001829 -0.003568  0.017808
  3H   1px       -0.002224  0.003977 -0.001314  0.006219  0.002560  0.003654
  3H   1py       -0.000071  0.003144  0.001782 -0.002074  0.005087  0.001705
  3H   2pz        0.041827  0.032204 -0.011117 -0.015348  0.009523 -0.315923
  3H   2px        0.028113  0.000951 -0.003383 -0.018231  0.011087 -0.082579
  3H   2py       -0.001838 -0.010946 -0.001443  0.020611 -0.012807  0.004247
  3H   3pz        1.949361  1.347101  0.957806  0.165612  0.178490 -1.425664
  3H   3px        0.737007  0.091992  0.525895 -0.825397 -0.226622 -0.145590
  3H   3py        0.422512  0.044693 -0.269583  0.664286 -0.847740 -0.157978
  3H   1dz2       0.043411  0.037345  0.020259 -0.014087  0.022643 -0.079476
  3H   1dxz       0.032833  0.006564  0.016737 -0.032753  0.003822 -0.036412
  3H   1dyz       0.013571 -0.000536 -0.004843  0.013757 -0.023865 -0.020764
  3H   1dx2y2     0.007226 -0.000103  0.004941 -0.018476 -0.005414 -0.011867
  3H   1dxy       0.007777  0.000444  0.000363  0.000890 -0.000602  0.007429
                     24        25        26        27        28        29   
                   1.07036   1.11494   1.11791   1.11791   1.37477   2.03011
                   0.00000   0.00000   0.00000   0.00000   0.00000   0.00000
                  --------  --------  --------  --------  --------  --------
  0N   1s         0.000001  0.024207  0.000002 -0.000003 -0.067692  0.000001
  0N   2s         0.000001  0.042493  0.000003 -0.000005 -0.122573  0.000001
  0N   1pz        0.015825  0.088831 -0.037677 -0.173678  0.035079  0.031306
  0N   1px        0.060008 -0.068366 -0.185722  0.007983 -0.026995  0.063299
  0N   1py        0.015710  0.171776 -0.054428  0.092990  0.067813  0.008999
  0N   3s        -0.000018 -0.587361 -0.000032  0.000069  1.652997 -0.000013
  0N   2pz        0.147560  0.260650 -0.129587 -0.597344  0.404756  0.065043
  0N   2px        0.559692 -0.200619 -0.638767  0.027458 -0.311479  0.131518
  0N   2py        0.146482  0.504051 -0.187208  0.319840  0.782474  0.018697
  0N   4s         0.000206  3.431404  0.000190 -0.000402-13.126746  0.000130
  0N   3pz        1.389608 -1.647099  0.884522  4.076860  0.707048 -0.162575
  0N   3px        5.271639  1.267324  4.359627 -0.187290 -0.544018 -0.328624
  0N   3py        1.379390 -3.185271  1.277648 -2.182923  1.366857 -0.046777
  0N   1dz2       0.007747 -0.002309  0.007630  0.004448  0.003705  0.002204
  0N   1dxz       0.003557 -0.002642  0.000021  0.007893  0.004241 -0.000424
  0N   1dyz       0.000425  0.006640 -0.003771  0.004065 -0.010653 -0.004144
  0N   1dx2y2    -0.010284 -0.005400 -0.007165  0.003065  0.008665 -0.000343
  0N   1dxy       0.006081 -0.005110 -0.000788 -0.004049  0.008197 -0.005799
  0N   2dz2      -0.115249  0.010907 -0.033217 -0.054552 -0.031679 -0.016874
  0N   2dxz      -0.030122  0.012487 -0.021057 -0.006358 -0.036261 -0.037127
  0N   2dyz       0.022624 -0.031371 -0.004947 -0.045542  0.091091 -0.107747
  0N   2dx2y2     0.127026  0.025502  0.056216 -0.034734 -0.074100  0.049534
  0N   2dxy      -0.037194  0.024140 -0.039942  0.005467 -0.070098 -0.165531
  0N   3dz2      -2.183611 -0.198930 -0.261505 -1.099682 -0.203004 -0.328690
  0N   3dxz      -0.350919 -0.227525 -0.565111  0.483463 -0.232352  0.058009
  0N   3dyz       0.707924  0.571708 -0.445908 -0.889043  0.583652  0.599881
  0N   3dx2y2     2.156214 -0.465366  0.919160 -0.680778 -0.474762  0.057285
  0N   3dxy      -0.190838 -0.439992 -1.140642 -0.188499 -0.449151  0.837535
  0N   1f0        0.062199 -0.044785  0.012143  0.003848  0.107145  0.006455
  0N   1f+1      -0.021017 -0.041721 -0.004912  0.010637  0.126838 -0.000495
  0N   1f-1       0.017249 -0.007938  0.003332  0.002954  0.021984  0.001330
  0N   1f+2       0.024390 -0.033742  0.005117 -0.006818  0.070733  0.002329
  0N   1f-2      -0.010920  0.002980 -0.002639  0.009445 -0.038508 -0.000399
  0N   1f+3      -0.057296 -0.050419 -0.010778 -0.007604  0.119228 -0.007110
  0N   1f-3       0.022432  0.000551  0.005053 -0.005232  0.013680  0.000674
  1H   1s        -0.036134 -0.012044  0.008487 -0.000363  0.068520  0.003152
  1H   2s        -6.025314 -1.322498 -2.552784  0.109703  3.350627 -0.155985
  1H   3s        -2.438329 -0.122717  0.345132 -0.014830  1.205091 -1.045810
  1H   1pz        0.000862 -0.003528  0.000856  0.009107 -0.002639  0.023702
  1H   1px       -0.022238 -0.018166 -0.020629  0.000888  0.027730  0.002168
  1H   1py        0.002350 -0.006822  0.000694 -0.004759 -0.005101  0.057941
  1H   2pz        0.006833  0.015857 -0.025294 -0.041778  0.046388 -0.390608
  1H   2px        0.399961  0.302762  0.307220 -0.013223 -0.565560 -0.057537
  1H   2py        0.000181  0.030668 -0.044397  0.024076  0.089674 -0.904564
  1H   3pz       -0.101148  0.454246 -0.064984 -1.275368  0.145034  0.378102
  1H   3px        1.721124  0.062975 -0.705134  0.030287 -1.357818  0.657229
  1H   3py       -0.293496  0.878505  0.008598  0.660672  0.280363  0.207428
  1H   1dz2       0.060511  0.013620 -0.008517  0.010386 -0.073032 -0.022728
  1H   1dxz       0.007397 -0.016711  0.000121  0.051779 -0.016298 -0.016119
  1H   1dyz      -0.005780  0.007955  0.002714  0.008075 -0.000719  0.008599
  1H   1dx2y2    -0.090465 -0.034850  0.012398  0.005257  0.127513 -0.011708
  1H   1dxy       0.016440 -0.032320 -0.005204 -0.026559 -0.031506  0.013725
  2H   1s         0.014705 -0.012044 -0.003930  0.007534  0.068520 -0.000611
  2H   2s         2.452124 -1.323329  1.181328 -2.265336  3.350650  0.030312
  2H   3s         0.992346 -0.122805 -0.159778  0.306334  1.205085  0.203570
  2H   1pz        0.002405 -0.014152  0.009816 -0.005994  0.010433 -0.017472
  2H   1px       -0.004737  0.009678  0.004484  0.009562 -0.006536 -0.007581
  2H   1py       -0.007870  0.009759 -0.007619  0.015204 -0.025503 -0.007479
  2H   2pz       -0.054085  0.176096 -0.081856  0.096826 -0.223111  0.245137
  2H   2px        0.096730 -0.117221  0.001342 -0.087708  0.140926  0.071844
  2H   2py        0.129760 -0.219438  0.126070 -0.244533  0.510303  0.112776
  2H   3pz       -0.054130  0.664223 -0.562575 -0.714401 -0.488833  0.300455
  2H   3px        0.489086 -0.487227 -1.154484 -0.324797  0.303795  0.656022
  2H   3py        0.642312  0.550848 -0.286813  0.466992  1.269663  0.078188
  2H   1dz2       0.000632 -0.015707  0.036140  0.014266 -0.036486 -0.061720
  2H   1dxz      -0.008939  0.019815  0.016778  0.003585 -0.026406 -0.021571
  2H   1dyz      -0.016460  0.036728 -0.014393 -0.017109 -0.096052  0.008614
  2H   1dx2y2    -0.032541 -0.010595 -0.012984 -0.019004 -0.088380  0.035359
  2H   1dxy       0.033824 -0.026208 -0.030270 -0.009914  0.061529  0.018403
  3H   1s         0.021427 -0.012046 -0.004561 -0.007166  0.068520 -0.002533
  3H   2s         3.572950 -1.322821  1.371300  2.156080  3.350636  0.125537
  3H   3s         1.445958 -0.122899 -0.185403 -0.291453  1.205091  0.842220
  3H   1pz       -0.011865  0.016138 -0.013208 -0.014798 -0.026843 -0.001313
  3H   1px       -0.005642  0.009675  0.003648 -0.009913 -0.006536  0.015360
  3H   1py       -0.003015 -0.005912  0.003262 -0.004186 -0.006220 -0.049051
  3H   2pz        0.209008 -0.280790  0.171555  0.241780  0.545407  0.014629
  3H   2px        0.116934 -0.117200  0.008862  0.087300  0.140928 -0.278937
  3H   2py        0.030629  0.016947  0.011350  0.061515  0.112756  0.754214
  3H   3pz        0.878319  0.065595  0.022610 -0.798804  1.318721  0.315454
  3H   3px        0.532143 -0.487143 -1.122369  0.422691  0.303799  0.696494
  3H   3py        0.368904  0.860479 -0.595734  0.365464  0.334642  0.000181
  3H   1dz2       0.050241 -0.023907  0.017068 -0.026503  0.129413 -0.017177
  3H   1dxz       0.041449 -0.032837 -0.033400  0.013082  0.065477  0.013567
  3H   1dyz       0.014090  0.030032 -0.027357  0.010753  0.039564  0.022984
  3H   1dx2y2    -0.012060 -0.015322 -0.021537  0.014739  0.007403  0.042911
  3H   1dxy       0.010919  0.001030 -0.003542  0.003117  0.014000  0.008147
                     30        31        32        33        34        35   
                   2.03011   2.08162   2.09090   2.18045   2.18045   2.37413
                   0.00000   0.00000   0.00000   0.00000   0.00000   0.00000
                  --------  --------  --------  --------  --------  --------
  0N   1s         0.000000  0.000000 -0.019463 -0.000000 -0.000000  0.000000
  0N   2s         0.000001  0.000000 -0.032971 -0.000000 -0.000001  0.000000
  0N   1pz       -0.056008  0.000001  0.036667 -0.015220  0.035406  0.196742
  0N   1px        0.022318  0.000001 -0.028212 -0.039204 -0.009398 -0.013106
  0N   1py        0.037853 -0.000000  0.070888 -0.007730 -0.022055 -0.106988
  0N   3s        -0.000011 -0.000000  0.381153  0.000002  0.000006 -0.000004
  0N   2pz       -0.116369  0.000007  0.072971  0.013889 -0.032302 -0.163589
  0N   2px        0.046373  0.000004 -0.056150  0.035767  0.008572  0.010904
  0N   2py        0.078647 -0.000002  0.141076  0.007053  0.020119  0.088964
  0N   4s         0.000089  0.000000 -3.181412 -0.000043 -0.000015 -0.000002
  0N   3pz        0.290789 -0.000073  0.639585 -1.061669  2.469511 -1.253016
  0N   3px       -0.115861 -0.000036 -0.492106 -2.734411 -0.655462  0.083488
  0N   3py       -0.196586  0.000023  1.236503 -0.539224 -1.538338  0.681406
  0N   1dz2       0.002979  0.000000 -0.000178  0.005059  0.000097 -0.003420
  0N   1dxz      -0.006629  0.000000 -0.000203  0.000120 -0.006878 -0.001814
  0N   1dyz       0.000339 -0.000000  0.000511 -0.003430 -0.001734 -0.002982
  0N   1dx2y2     0.001150 -0.000000 -0.000416 -0.003028 -0.001370 -0.002338
  0N   1dxy       0.001307 -0.000000 -0.000393 -0.003605  0.002709  0.001080
  0N   2dz2       0.115697  0.000002 -0.058706  0.197813 -0.027023  0.445690
  0N   2dxz      -0.135102  0.000007 -0.067187  0.018069 -0.232842  0.245857
  0N   2dyz       0.061447 -0.000002  0.168783 -0.106709 -0.086431  0.389274
  0N   2dx2y2     0.087697 -0.000000 -0.137287 -0.133034 -0.074873  0.305122
  0N   2dxy       0.004753 -0.000007 -0.129885 -0.096818  0.099475 -0.145298
  0N   3dz2      -0.426181  0.000011  0.154618  0.068535 -0.719376 -0.234033
  0N   3dxz       0.964414 -0.000029  0.176969  0.314791  0.751754  0.292215
  0N   3dyz      -0.042132  0.000029 -0.444549  0.595008 -0.458870 -0.175383
  0N   3dx2y2    -0.158944  0.000007  0.361658 -0.382902 -0.516597 -0.140636
  0N   3dxy      -0.193004  0.000041  0.342101  0.984230 -0.113906 -0.124620
  0N   1f0       -0.000120 -0.013364  0.013287 -0.001475 -0.000584 -0.004824
  0N   1f+1      -0.006354  0.006579  0.024072  0.004001 -0.005826 -0.018599
  0N   1f-1       0.000361  0.011086  0.003649 -0.008629  0.019482  0.012423
  0N   1f+2       0.004062  0.015261  0.005685  0.011559 -0.002118  0.005597
  0N   1f-2      -0.005674  0.005892 -0.014467 -0.008154 -0.008031 -0.017099
  0N   1f+3       0.002279 -0.005097  0.014352 -0.009031  0.003091  0.012965
  0N   1f-3       0.002418  0.007955  0.006330 -0.015686 -0.011314  0.000189
  1H   1s         0.001112 -0.000000 -0.075862 -0.073122 -0.017529  0.031854
  1H   2s        -0.055016  0.000017  0.957031  2.123973  0.509139 -0.112589
  1H   3s        -0.368732  0.000001  0.236727  1.514938  0.363158 -0.084565
  1H   1pz        0.024132 -0.038522  0.022466 -0.015564  0.055944  0.025450
  1H   1px        0.000764 -0.000000  0.008185 -0.001196 -0.000287  0.000742
  1H   1py        0.012268  0.019928  0.043432  0.003060 -0.030135 -0.013615
  1H   2pz       -0.332234  0.666859 -0.340884  0.271886 -0.895927 -0.365772
  1H   2px       -0.020283  0.000003 -0.080370  0.186607  0.044733 -0.016348
  1H   2py       -0.218304 -0.344970 -0.659008 -0.008259  0.495180  0.196001
  1H   3pz       -0.547914 -0.631557 -0.045936 -0.173414 -0.176845 -0.033436
  1H   3px        0.231726 -0.000004 -0.381003 -1.096294 -0.262802  0.094352
  1H   3py        0.425525  0.326696 -0.088788 -0.410408 -0.028408 -0.005851
  1H   1dz2       0.027767  0.019218 -0.004249 -0.048808 -0.006239  0.048896
  1H   1dxz       0.052725  0.044719 -0.009004  0.021003  0.017885 -0.054722
  1H   1dyz       0.032281  0.015711 -0.047006 -0.003780  0.003559  0.033789
  1H   1dx2y2     0.016529  0.011097  0.073915  0.085596  0.023673  0.007657
  1H   1dxy      -0.025375 -0.023132 -0.017406  0.047746  0.004797  0.034651
  2H   1s        -0.003278 -0.000002 -0.075863  0.021378  0.072091 -0.460206
  2H   2s         0.162506  0.000026  0.957180 -0.621050 -2.093958  1.626379
  2H   3s         1.090031  0.000007  0.236887 -0.442960 -1.493567  1.221764
  2H   1pz       -0.040926  0.025012  0.035420 -0.035119  0.014110  0.005665
  2H   1px        0.033904  0.035409 -0.025776 -0.051874  0.012715  0.011367
  2H   1py       -0.037609  0.001157  0.023207 -0.001160  0.002216  0.012366
  2H   2pz        0.663596 -0.432986 -0.515147  0.532104 -0.340282 -0.042381
  2H   2px       -0.533935 -0.612979  0.376499  0.858141 -0.128326 -0.188809
  2H   2py        0.573815 -0.020036 -0.386917  0.049319  0.067609 -0.245488
  2H   3pz       -0.663499  0.410108 -0.257762  0.327947  0.805408 -0.510378
  2H   3px        0.295804  0.580613  0.174202 -0.052148 -0.601079  0.304497
  2H   3py        0.313570  0.018975  0.241775 -0.171771 -0.593081  1.262314
  2H   1dz2       0.007222 -0.042949 -0.022234 -0.016738 -0.014414 -0.073861
  2H   1dxz       0.024888 -0.018033  0.033930  0.009778  0.050612 -0.028717
  2H   1dyz      -0.008415  0.012378 -0.063848  0.026884  0.078377 -0.146522
  2H   1dx2y2     0.000238  0.023545 -0.018851  0.009090  0.007633 -0.165518
  2H   1dxy       0.002306  0.019939  0.044699 -0.010743 -0.055960  0.139254
  3H   1s         0.002172  0.000002 -0.075863  0.051739 -0.054565  0.428359
  3H   2s        -0.107587 -0.000043  0.957113 -1.502905  1.584810 -1.513793
  3H   3s        -0.721312 -0.000008  0.236838 -1.071959  1.130421 -1.137195
  3H   1pz        0.007994  0.013508 -0.001525  0.014366  0.014426 -0.005103
  3H   1px       -0.031161 -0.035410 -0.025776 -0.040470 -0.034851 -0.013842
  3H   1py        0.031286 -0.021084  0.042320 -0.020344 -0.024705 -0.012896
  3H   2pz       -0.097240 -0.233836 -0.018143 -0.123993 -0.345583  0.145822
  3H   2px        0.460913  0.612994  0.376500  0.706678  0.503438  0.222640
  3H   2py       -0.513708  0.364994 -0.644035  0.304287  0.422527  0.192137
  3H   3pz       -0.566795  0.221469  0.346238 -0.724303  0.696778 -1.234612
  3H   3px        0.181057 -0.580595  0.174191 -0.318990  0.512116 -0.280376
  3H   3py        0.462805 -0.345675 -0.070662  0.292778 -0.204122 -0.289347
  3H   1dz2      -0.022490  0.023726  0.063009 -0.055285  0.048659 -0.195141
  3H   1dxz       0.026971 -0.026692  0.016876 -0.046816  0.060238 -0.129157
  3H   1dyz       0.029816 -0.028090  0.005836  0.031842 -0.022194 -0.085794
  3H   1dx2y2     0.034604 -0.034641  0.030363 -0.007969  0.022373  0.002937
  3H   1dxy      -0.021232  0.003198  0.053520  0.005650 -0.007195 -0.058670
                     36        37        38        39        40        41   
                   2.37413   2.56638   2.78297   2.85574   2.85574   3.11626
                   0.00000   0.00000   0.00000   0.00000   0.00000   0.00000
                  --------  --------  --------  --------  --------  --------
  0N   1s        -0.000000  0.043565  0.008657 -0.000000 -0.000000  0.042520
  0N   2s        -0.000001  0.065992  0.056801 -0.000001 -0.000002  0.097260
  0N   1pz       -0.046638  0.083391 -0.004027 -0.043045  0.031588  0.086748
  0N   1px       -0.211099 -0.064170  0.003099  0.024909  0.049985 -0.066742
  0N   1py       -0.059905  0.161209 -0.007787  0.032183  0.003556  0.167693
  0N   3s         0.000008 -0.411398 -0.148318  0.000002 -0.000000 -0.185041
  0N   2pz        0.038773 -0.058933  0.253158  0.276421 -0.202859  0.245515
  0N   2px        0.175546  0.045369 -0.194831 -0.159972 -0.321007 -0.188989
  0N   2py        0.049810 -0.113934  0.489428 -0.206684 -0.022860  0.474713
  0N   4s         0.000074  4.079223 -7.156434  0.000164  0.000192 -6.415202
  0N   3pz        0.297017 -0.403838  0.566912  0.604214 -0.443429  1.006463
  0N   3px        1.344504  0.310804 -0.436265 -0.349676 -0.701675 -0.774599
  0N   3py        0.381534 -0.780722  1.095997 -0.451795 -0.049983  1.945945
  0N   1dz2       0.003137  0.000415  0.003622  0.011226 -0.001224 -0.000476
  0N   1dxz       0.001049  0.000475  0.004145 -0.015634 -0.001345 -0.000543
  0N   1dyz      -0.000436 -0.001194 -0.010413  0.003694 -0.012002  0.001363
  0N   1dx2y2    -0.004041  0.000971  0.008471  0.008196  0.002734 -0.001109
  0N   1dxy       0.001744  0.000919  0.008013 -0.000850 -0.017238 -0.001049
  0N   2dz2      -0.415252  0.110287  0.069404  0.303652  0.138138 -0.153319
  0N   2dxz      -0.134833  0.126230  0.079401 -0.591272  0.025204 -0.175488
  0N   2dyz       0.062180 -0.317116 -0.199500  0.002501 -0.380131  0.440852
  0N   2dx2y2     0.530116  0.257955  0.162273  0.122606 -0.026007 -0.358590
  0N   2dxy      -0.222125  0.244025  0.153497  0.042264 -0.541970 -0.339247
  0N   3dz2      -0.064885 -0.055820 -0.188431 -0.480132  0.134231  0.019754
  0N   3dxz       0.157002 -0.063880 -0.215643  0.588190  0.086955  0.022572
  0N   3dyz       0.203537  0.160470  0.541768 -0.204565  0.486812 -0.056627
  0N   3dx2y2    -0.126467 -0.130519 -0.440686 -0.397904 -0.164700  0.046075
  0N   3dxy       0.346323 -0.123488 -0.416878  0.067547  0.701096  0.043579
  0N   1f0        0.014278 -0.075745  0.181954 -0.005547 -0.023531  0.034402
  0N   1f+1      -0.003684 -0.042164  0.281407 -0.001103  0.020125  0.076126
  0N   1f-1       0.000295 -0.010280  0.044643  0.067052 -0.055089  0.010977
  0N   1f+2       0.014899 -0.067578  0.095699 -0.010122  0.042071  0.009625
  0N   1f-2      -0.010443 -0.027965 -0.142084 -0.022699 -0.025542 -0.053488
  0N   1f+3      -0.020351 -0.086763  0.199037 -0.000013 -0.017329  0.036460
  0N   1f-3      -0.007260  0.016711  0.059889 -0.065616 -0.052297  0.024047
  1H   1s         0.513018  0.491093 -0.641523 -0.071766 -0.144020 -0.147164
  1H   2s        -1.813058 -1.367804  3.119291  0.476197  0.955595  2.580414
  1H   3s        -1.361964 -0.272274  0.243427 -0.090876 -0.182348  0.264868
  1H   1pz       -0.004550  0.006980  0.002444 -0.018507 -0.000282 -0.003687
  1H   1px        0.011954  0.018451  0.020200  0.006343  0.012728  0.054789
  1H   1py       -0.004896  0.013494  0.004725  0.000275 -0.018512 -0.007127
  1H   2pz        0.067558 -0.097481  0.008346  0.263299  0.005560  0.052101
  1H   2px       -0.263353 -0.247781 -0.631708 -0.115266 -0.231302 -0.928920
  1H   2py        0.074527 -0.188442  0.016134 -0.002401  0.265611  0.100708
  1H   3pz       -0.150670  0.079674  0.089318 -0.504289  0.009798 -0.154916
  1H   3px        1.519601  0.757615 -0.628086 -0.010584 -0.021252 -0.399350
  1H   3py       -0.294919  0.154019  0.172664  0.024604 -0.479147 -0.299475
  1H   1dz2       0.133717  0.131636  0.038560  0.092658 -0.024469  0.109816
  1H   1dxz       0.045267 -0.035507 -0.042854  0.307286 -0.025292  0.112610
  1H   1dyz       0.009763 -0.059001 -0.145456  0.017772 -0.136329 -0.134718
  1H   1dx2y2    -0.254132 -0.144465  0.139159  0.105535  0.090295  0.000520
  1H   1dxy       0.078790 -0.068638 -0.082843 -0.033893  0.264038  0.217692
  2H   1s        -0.228923  0.491090 -0.641530  0.160642  0.009869 -0.147164
  2H   2s         0.809022 -1.367740  3.119285 -1.065832 -0.065474  2.580439
  2H   3s         0.607756 -0.272274  0.243446  0.203344  0.012468  0.264873
  2H   1pz       -0.015808  0.019097  0.013676  0.003941  0.010935  0.022738
  2H   1px       -0.020715 -0.013312 -0.009241 -0.004906  0.014839 -0.014480
  2H   1py        0.005290 -0.005419 -0.012803  0.022467  0.001874 -0.048370
  2H   2pz        0.246703 -0.261664 -0.309690 -0.029533 -0.153496 -0.399991
  2H   2px        0.285189  0.182613  0.202005  0.052503 -0.211543  0.256194
  2H   2py       -0.109732  0.067827  0.512501 -0.365938 -0.029484  0.806307
  2H   3pz       -0.236448  0.496187 -0.195171  0.294156  0.314521 -0.418656
  2H   3px        0.176154 -0.334282  0.117725 -0.254930  0.404070  0.292048
  2H   3py        0.628730 -0.496082  0.616729  0.265613  0.029994  0.112187
  2H   1dz2      -0.040940 -0.026906 -0.075608 -0.104293 -0.255428  0.133249
  2H   1dxz      -0.014193  0.146888  0.150144  0.040872 -0.102794  0.032471
  2H   1dyz      -0.128488  0.121895 -0.118754  0.166137  0.104801 -0.072124
  2H   1dx2y2    -0.074780  0.065794 -0.032722 -0.178529  0.123457  0.248285
  2H   1dxy      -0.009125 -0.078498  0.085303 -0.140945  0.139246  0.067981
  3H   1s        -0.284089  0.491087 -0.641526 -0.088835  0.134199 -0.147133
  3H   2s         1.003939 -1.367709  3.119220  0.589424 -0.890368  2.580146
  3H   3s         0.754200 -0.272250  0.243436 -0.112484  0.169862  0.264801
  3H   1pz        0.014192 -0.015457 -0.018351 -0.013493  0.009939 -0.052614
  3H   1px       -0.019149 -0.013313 -0.009241  0.014801  0.005018 -0.014480
  3H   1py       -0.008314  0.012456  0.003764 -0.001763  0.018958 -0.009390
  3H   2pz       -0.252090  0.206549  0.597211  0.221148 -0.185918  0.889145
  3H   2px        0.259639  0.182618  0.202001 -0.200509 -0.085452  0.256175
  3H   2py        0.115064 -0.174374  0.043364  0.028195 -0.273749  0.139417
  3H   3pz        0.808692 -0.691566  0.616120 -0.153756 -0.057294  0.333405
  3H   3px        0.212462 -0.334283  0.117727  0.476105  0.039755  0.292035
  3H   3py        0.207686  0.118342  0.197049 -0.018165  0.479215 -0.276884
  3H   1dz2       0.173528 -0.137537  0.115815 -0.105629 -0.120727 -0.084233
  3H   1dxz       0.016858 -0.148941 -0.017132  0.221639 -0.006511  0.036716
  3H   1dyz       0.036907  0.031454  0.037726  0.012675  0.290847 -0.249901
  3H   1dx2y2     0.034237  0.001915  0.077796  0.226569 -0.001039  0.122725
  3H   1dxy      -0.009673  0.074530  0.171831  0.026203 -0.040458  0.065786
                     42        43        44        45        46        47   
                   3.18157   3.18157   3.25826   3.25826   3.27689   3.40765
                   0.00000   0.00000   0.00000   0.00000   0.00000   0.00000
                  --------  --------  --------  --------  --------  --------
  0N   1s         0.000000  0.000000 -0.000006 -0.000001  0.031354  0.000000
  0N   2s         0.000000  0.000000 -0.000016 -0.000001  0.080549  0.000000
  0N   1pz       -0.044793 -0.276031  0.006164 -0.127008  0.048838 -0.000003
  0N   1px       -0.292507 -0.002894  0.132032 -0.016201 -0.037560 -0.000002
  0N   1py       -0.093260  0.141640  0.049343  0.059247  0.094436  0.000001
  0N   3s         0.000016  0.000008  0.000053 -0.000010 -0.152676 -0.000000
  0N   2pz        0.208763  1.286665  0.062419 -1.283449  0.134604 -0.000030
  0N   2px        1.363488  0.013439  1.334162 -0.163796 -0.103358 -0.000015
  0N   2py        0.434756 -0.660224  0.498709  0.598706  0.260302  0.000010
  0N   4s        -0.000032 -0.000025  0.001190  0.000157 -6.631168 -0.000000
  0N   3pz        0.566224  3.489837  0.277390 -5.705305  1.102472 -0.000147
  0N   3px        3.698196  0.036430  5.930715 -0.728104 -0.847302 -0.000073
  0N   3py        1.179225 -1.790738  2.216738  2.661385  2.131738  0.000047
  0N   1dz2       0.029315  0.028642  0.024998 -0.033594  0.003801 -0.000001
  0N   1dxz       0.004207  0.024855  0.003171 -0.022949  0.004346 -0.000001
  0N   1dyz      -0.010922  0.023070 -0.011993 -0.023480 -0.010918 -0.000000
  0N   1dx2y2    -0.036285  0.016012 -0.039113 -0.012822  0.008872 -0.000000
  0N   1dxy       0.008735 -0.012750  0.012814  0.010096  0.008402  0.000000
  0N   2dz2      -0.101721 -0.235773 -0.563043  0.716251 -0.061286  0.000017
  0N   2dxz      -0.098301  0.007087 -0.046677  0.534841 -0.070045  0.000011
  0N   2dyz      -0.032860 -0.192248  0.283199  0.494231  0.176017  0.000006
  0N   2dx2y2     0.230804 -0.133294  0.845555  0.269831 -0.142980 -0.000002
  0N   2dxy      -0.189866 -0.006044 -0.247033 -0.243359 -0.135455 -0.000004
  0N   3dz2      -1.244458 -1.145915 -0.748624  1.411227  0.077339  0.000044
  0N   3dxz      -0.135688 -1.102965 -0.343158  0.507195  0.088579  0.000011
  0N   3dyz       0.499936 -0.921768  0.228300  1.050457 -0.222651  0.000028
  0N   3dx2y2     1.486528 -0.639856  1.526474  0.574282  0.181439  0.000001
  0N   3dxy      -0.288981  0.567011 -0.801150 -0.142217  0.171226  0.000010
  0N   1f0        0.309095  0.118108  0.178028 -0.090427  0.190230  0.059980
  0N   1f+1      -0.137108  0.289112 -0.103726 -0.148436  0.040230 -0.029529
  0N   1f-1       0.073877  0.027795  0.044323 -0.063009  0.018554 -0.049763
  0N   1f+2       0.171336 -0.159242  0.092177  0.094560  0.193984 -0.068492
  0N   1f-2      -0.107790  0.259036 -0.060596 -0.136887  0.146450 -0.026445
  0N   1f+3      -0.292712 -0.227880 -0.143541  0.142457  0.221250  0.022876
  0N   1f-3       0.093347 -0.111683  0.099188  0.069842 -0.078389 -0.035706
  1H   1s         0.750662  0.007401  0.870553 -0.106868 -0.286535 -0.000011
  1H   2s        -5.611718 -0.055279 -7.316406  0.898131  2.694435  0.000088
  1H   3s        -1.613464 -0.015910 -1.522911  0.186968  0.273008  0.000018
  1H   1pz       -0.000601  0.005702  0.001475 -0.005707  0.004111 -0.005018
  1H   1px       -0.023722 -0.000232 -0.081357  0.009986  0.029289  0.000001
  1H   1py       -0.001024 -0.002963  0.004489  0.002307  0.007948  0.002596
  1H   2pz       -0.056184 -0.083326 -0.003249  0.215765 -0.086663  0.055372
  1H   2px        0.957505  0.009411  1.849959 -0.227071 -0.818279 -0.000021
  1H   2py       -0.110628  0.041729 -0.070096 -0.102792 -0.167554 -0.028644
  1H   3pz       -0.042982  0.279720 -0.024197  0.422605 -0.139819 -0.035915
[...]
    4. BD ( 1) N  1- H  3       1.96798
    5. BD ( 1) N  1- H  4       1.96798
 ------ non-Lewis -----------------------
    6. BD*( 1) N  1- H  2       0.01727
    7. BD*( 1) N  1- H  3       0.01727
    8. BD*( 1) N  1- H  4       0.01727
    9. RY ( 1) N  1             0.01649
   10. RY ( 2) N  1             0.00743
   11. RY ( 3) N  1             0.00743
   12. RY ( 4) N  1             0.00634
   13. RY ( 5) N  1             0.00613
   14. RY ( 6) N  1             0.00613
   15. RY ( 7) N  1             0.00202
   16. RY ( 8) N  1             0.00202
   17. RY ( 9) N  1             0.00175
   18. RY (10) N  1             0.00049
   19. RY (11) N  1             0.00043
   20. RY (12) N  1             0.00042
   21. RY (13) N  1             0.00042
   22. RY (14) N  1             0.00041
   23. RY (15) N  1             0.00041
   24. RY (16) N  1             0.00040
   25. RY (17) N  1             0.00037
   26. RY (18) N  1             0.00032
   27. RY (19) N  1             0.00032
   28. RY (20) N  1             0.00030
   29. RY (21) N  1             0.00030
   30. RY (22) N  1             0.00024
   31. RY (23) N  1             0.00018
   32. RY (24) N  1             0.00010
   33. RY (25) N  1             0.00010
   34. RY (26) N  1             0.00005
   35. RY (27) N  1             0.00005
   36. RY (28) N  1             0.00005
   37. RY (29) N  1             0.00004
   38. RY (30) N  1             0.00004
   39. RY ( 1) H  2             0.00401
   40. RY ( 2) H  2             0.00175
   41. RY ( 3) H  2             0.00112
   42. RY ( 4) H  2             0.00074
   43. RY ( 5) H  2             0.00041
   44. RY ( 6) H  2             0.00030
   45. RY ( 7) H  2             0.00023
   46. RY ( 8) H  2             0.00010
   47. RY ( 9) H  2             0.00009
   48. RY (10) H  2             0.00009
   49. RY (11) H  2             0.00004
   50. RY (12) H  2             0.00003
   51. RY (13) H  2             0.00003
   52. RY (14) H  2             0.00002
   53. RY (15) H  2             0.00002
   54. RY (16) H  2             0.00002
   55. RY ( 1) H  3             0.00401
   56. RY ( 2) H  3             0.00175
   57. RY ( 3) H  3             0.00112
   58. RY ( 4) H  3             0.00074
   59. RY ( 5) H  3             0.00041
   60. RY ( 6) H  3             0.00030
   61. RY ( 7) H  3             0.00023
   62. RY ( 8) H  3             0.00010
   63. RY ( 9) H  3             0.00009
   64. RY (10) H  3             0.00009
   65. RY (11) H  3             0.00004
   66. RY (12) H  3             0.00003
   67. RY (13) H  3             0.00003
   68. RY (14) H  3             0.00002
   69. RY (15) H  3             0.00002
   70. RY (16) H  3             0.00002
   71. RY ( 1) H  4             0.00401
   72. RY ( 2) H  4             0.00175
   73. RY ( 3) H  4             0.00112
   74. RY ( 4) H  4             0.00074
   75. RY ( 5) H  4             0.00041
   76. RY ( 6) H  4             0.00030
   77. RY ( 7) H  4             0.00023
   78. RY ( 8) H  4             0.00010
   79. RY ( 9) H  4             0.00009
   80. RY (10) H  4             0.00009
   81. RY (11) H  4             0.00004
   82. RY (12) H  4             0.00003
   83. RY (13) H  4             0.00003
   84. RY (14) H  4             0.00002
   85. RY (15) H  4             0.00002
   86. RY (16) H  4             0.00002
          -------------------------------
                 Total Lewis    9.86003  ( 98.6003%)
           Valence non-Lewis    0.05180  (  0.5180%)
           Rydberg non-Lewis    0.08817  (  0.8817%)
          -------------------------------
               Total unit  1   10.00000  (100.0000%)
              Charge unit  1    0.00000

 $CHOOSE
   LONE 1 1 END
   BOND S 1 2 S 1 3 S 1 4 END
 $END

 NBO analysis completed in 0.12 CPU seconds (1 wall second)
 Maximum scratch memory used by NBO was 510233 words (3.89 MB)
Stopping NBO...Storing NBOs: NH3.pmp2re.nbo

                                *** returned from   NBO  program ***


----------------------------------
MP2 DERIVATIVE INTEGRAL GENERATION
----------------------------------


Input Wavefunction Amplitudes       ... NH3.mp2tsaa.tmp
Input Correlated Electron Density   ... NH3.pmp2re
Input Energy Weighted Density       ... NH3.wmp2.tmp
Input SCF Electron Density          ... NH3.scfp

One-Electron Terms    ...
                        ... One-Electron Terms done
Prescreening matrices              ... done

Batch handling in the gradient evaluation:
Memory available                      ...  256.0 MB
Memory per occupied orbital in Q2     ...    0.3 MB
Memory per occupied orbital in Q3     ...    0.0 MB
Total memory requirement per |i>      ...    0.3 MB
Max. Number of orbitals possible      ...    814
Number of orbitals treated per batch  ...      5
Number of batches to be done          ...      1
Batch   0: i=    0 ...     4

---------------------------------------
MP2 TOTAL ENERGY:      -56.476193856 Eh
---------------------------------------

-----------------------------------
NORM OF THE MP2 GRADIENT:  0.000006
-----------------------------------

-------------------------   --------------------
FINAL SINGLE POINT ENERGY       -56.476193855584
-------------------------   --------------------

                                *** OPTIMIZATION RUN DONE ***

                            ***************************************
                            *     ORCA property calculations      *
                            ***************************************

                                    ---------------------
                                    Active property flags
                                    ---------------------
   (+) Dipole Moment


------------------------------------------------------------------------------
                       ORCA ELECTRIC PROPERTIES CALCULATION
------------------------------------------------------------------------------

Dipole Moment Calculation                       ... on
Quadrupole Moment Calculation                   ... off
Polarizability Calculation                      ... off
GBWName                                         ... NH3.gbw
Electron density file                           ... NH3.scfp
The origin for moment calculation is the CENTER OF MASS  = (-4.579995, -5.339401 -0.027311)

-------------
DIPOLE MOMENT
-------------
                                X             Y             Z
Electronic contribution:     -0.09196       0.23100       0.11949
Nuclear contribution   :      0.29863      -0.75017      -0.38805
                        -----------------------------------------
Total Dipole Moment    :      0.20667      -0.51917      -0.26856
                        -----------------------------------------
Magnitude (a.u.)       :      0.61998
Magnitude (Debye)      :      1.57586



--------------------
Rotational spectrum 
--------------------
 
Rotational constants in cm-1:     9.964970     9.964717     6.390777 
Rotational constants in MHz : 298742.293532 298734.691503 191590.662316 

 Dipole components along the rotational axes: 
x,y,z [a.u.] :     0.000000     0.000013    -0.619979 
x,y,z [Debye]:     0.000000     0.000033    -1.575860 

 

                         *** MP2 UNRELAXED DENSITY ***

------------------------------------------------------------------------------
                       ORCA ELECTRIC PROPERTIES CALCULATION
------------------------------------------------------------------------------

Dipole Moment Calculation                       ... on
Quadrupole Moment Calculation                   ... off
Polarizability Calculation                      ... off
GBWName                                         ... NH3.gbw
Electron density file                           ... NH3.pmp2ur
The origin for moment calculation is the CENTER OF MASS  = (-4.579995, -5.339401 -0.027311)

-------------
DIPOLE MOMENT
-------------
                                X             Y             Z
Electronic contribution:     -0.09519       0.23911       0.12369
Nuclear contribution   :      0.29863      -0.75017      -0.38805
                        -----------------------------------------
Total Dipole Moment    :      0.20343      -0.51105      -0.26436
                        -----------------------------------------
Magnitude (a.u.)       :      0.61028
Magnitude (Debye)      :      1.55122



--------------------
Rotational spectrum 
--------------------
 
Rotational constants in cm-1:     9.964970     9.964717     6.390777 
Rotational constants in MHz : 298742.293532 298734.691503 191590.662316 

 Dipole components along the rotational axes: 
x,y,z [a.u.] :     0.000000     0.000013    -0.610284 
x,y,z [Debye]:     0.000000     0.000032    -1.551220 

 

                           *** MP2 RELAXED DENSITY ***

------------------------------------------------------------------------------
                       ORCA ELECTRIC PROPERTIES CALCULATION
------------------------------------------------------------------------------

Dipole Moment Calculation                       ... on
Quadrupole Moment Calculation                   ... off
Polarizability Calculation                      ... off
GBWName                                         ... NH3.gbw
Electron density file                           ... NH3.pmp2re
The origin for moment calculation is the CENTER OF MASS  = (-4.579995, -5.339401 -0.027311)

-------------
DIPOLE MOMENT
-------------
                                X             Y             Z
Electronic contribution:     -0.10471       0.26302       0.13606
Nuclear contribution   :      0.29863      -0.75017      -0.38805
                        -----------------------------------------
Total Dipole Moment    :      0.19392      -0.48714      -0.25199
                        -----------------------------------------
Magnitude (a.u.)       :      0.58173
Magnitude (Debye)      :      1.47865



--------------------
Rotational spectrum 
--------------------
 
Rotational constants in cm-1:     9.964970     9.964717     6.390777 
Rotational constants in MHz : 298742.293532 298734.691503 191590.662316 

 Dipole components along the rotational axes: 
x,y,z [a.u.] :     0.000000     0.000012    -0.581732 
x,y,z [Debye]:     0.000000     0.000031    -1.478646 

 
------------------------------------------------------------------------------
                         ORCA MP2 H E S S I A N CALCULATION
------------------------------------------------------------------------------

Calculating analytic MP2 second derivatives ... (>NH3.last_mp2) done

-----------------------
VIBRATIONAL FREQUENCIES
-----------------------

Scaling factor for frequencies =  1.000000000  (already applied!)

   0:         0.00 cm**-1
   1:         0.00 cm**-1
   2:         0.00 cm**-1
   3:         0.00 cm**-1
   4:         0.00 cm**-1
   5:         0.00 cm**-1
   6:      1055.16 cm**-1
   7:      1664.77 cm**-1
   8:      1664.77 cm**-1
   9:      3530.44 cm**-1
  10:      3672.78 cm**-1
  11:      3672.80 cm**-1


------------
NORMAL MODES
------------

These modes are the Cartesian displacements weighted by the diagonal matrix
M(i,i)=1/sqrt(m[i]) where m[i] is the mass of the displaced atom
Thus, these vectors are normalized but *not* orthogonal

                  0          1          2          3          4          5    
      0       0.000000   0.000000   0.000000   0.000000   0.000000   0.000000
      1       0.000000   0.000000   0.000000   0.000000   0.000000   0.000000
      2       0.000000   0.000000   0.000000   0.000000   0.000000   0.000000
      3       0.000000   0.000000   0.000000   0.000000   0.000000   0.000000
      4       0.000000   0.000000   0.000000   0.000000   0.000000   0.000000
      5       0.000000   0.000000   0.000000   0.000000   0.000000   0.000000
      6       0.000000   0.000000   0.000000   0.000000   0.000000   0.000000
      7       0.000000   0.000000   0.000000   0.000000   0.000000   0.000000
      8       0.000000   0.000000   0.000000   0.000000   0.000000   0.000000
      9       0.000000   0.000000   0.000000   0.000000   0.000000   0.000000
     10       0.000000   0.000000   0.000000   0.000000   0.000000   0.000000
     11       0.000000   0.000000   0.000000   0.000000   0.000000   0.000000
                  6          7          8          9         10         11    
      0      -0.038352  -0.041506  -0.047039  -0.012908  -0.074405  -0.002980
      1       0.096343  -0.035958   0.005455   0.032429  -0.024818   0.035324
      2       0.049838   0.037571  -0.046742   0.016773  -0.009279  -0.070582
      3      -0.022199  -0.033297  -0.037732   0.576741   0.812249   0.032519
      4      -0.509008   0.092144  -0.423418   0.012137  -0.030878   0.009460
      5      -0.263307  -0.594029   0.347191   0.006275  -0.014926  -0.021285
      6       0.277562  -0.026959   0.638625  -0.198695   0.120049  -0.225511
      7      -0.330538   0.136850  -0.006959  -0.449576   0.355371  -0.563434
      8      -0.377661   0.292898   0.388048   0.302105  -0.220514   0.323781
      9       0.277564   0.637011   0.052747  -0.198682   0.101627   0.234407
     10      -0.499224   0.270666   0.354575  -0.013193   0.020373   0.063117
     11      -0.051575  -0.220944  -0.085714  -0.541451   0.364373   0.678294


-----------
IR SPECTRUM
-----------

 Mode    freq (cm**-1)   T**2         TX         TY         TZ
-------------------------------------------------------------------
   6:      1055.16  127.121515  (  3.759444  -9.440683  -4.884833)
   7:      1664.77   13.483742  (  2.291209   1.983136  -2.073952)
   8:      1664.77   13.458730  (  2.591825  -0.301540   2.578807)
   9:      3530.44    3.418694  ( -0.616081   1.548487   0.800829)
  10:      3672.78    5.695300  (  2.247859   0.750671   0.280936)
  11:      3672.80    5.693037  (  0.090743  -1.067951   2.131732)

The first frequency considered to be a vibration is 6
The total number of vibrations considered is 6


--------------------------
THERMOCHEMISTRY AT 298.15K
--------------------------

Temperature         ... 298.15 K
Pressure            ... 1.00 atm
Total Mass          ... 17.03 AMU

Throughout the following assumptions are being made:
  (1) The electronic state is orbitally nondegenerate
  (2) There are no thermally accessible electronically excited states
  (3) Hindered rotations indicated by low frequency modes are not
      treated as such but are treated as vibrations and this may
      cause some error
  (4) All equations used are the standard statistical mechanics
      equations for an ideal gas
  (5) All vibrations are strictly harmonic

freq.    1055.16  E(vib)   ...       0.02 
freq.    1664.77  E(vib)   ...       0.00 
freq.    1664.77  E(vib)   ...       0.00 
freq.    3530.44  E(vib)   ...       0.00 
freq.    3672.78  E(vib)   ...       0.00 
freq.    3672.80  E(vib)   ...       0.00 

------------
INNER ENERGY
------------

The inner energy is: U= E(el) + E(ZPE) + E(vib) + E(rot) + E(trans)
    E(el)   - is the total energy from the electronic structure calculation
              = E(kin-el) + E(nuc-el) + E(el-el) + E(nuc-nuc)
    E(ZPE)  - the the zero temperature vibrational energy from the frequency calculation
    E(vib)  - the the finite temperature correction to E(ZPE) due to population
              of excited vibrational states
    E(rot)  - is the rotational thermal energy
    E(trans)- is the translational thermal energy

Summary of contributions to the inner energy U:
Electronic energy                ...    -56.47619386 Eh
Zero point energy                ...      0.03476648 Eh      21.82 kcal/mol
Thermal vibrational correction   ...      0.00003466 Eh       0.02 kcal/mol
Thermal rotational correction    ...      0.00141627 Eh       0.89 kcal/mol
Thermal translational correction ...      0.00141627 Eh       0.89 kcal/mol
-----------------------------------------------------------------------
Total thermal energy                    -56.43856018 Eh


Summary of corrections to the electronic energy:
(perhaps to be used in another calculation)
Total thermal correction                  0.00286720 Eh       1.80 kcal/mol
Non-thermal (ZPE) correction              0.03476648 Eh      21.82 kcal/mol
-----------------------------------------------------------------------
Total correction                          0.03763368 Eh      23.62 kcal/mol


--------
ENTHALPY
--------

The enthalpy is H = U + kB*T
                kB is Boltzmann's constant
Total free energy                 ...    -56.43856018 Eh 
Thermal Enthalpy correction       ...      0.00094421 Eh       0.59 kcal/mol
-----------------------------------------------------------------------
Total Enthalpy                    ...    -56.43761597 Eh


Note: Rotational entropy computed according to Herzberg 
Infrared and Raman Spectra, Chapter V,1, Van Nostrand Reinhold, 1945 
Point Group:  Cs, Symmetry Number:   1  
Rotational constants in cm-1:     9.964970     9.964717     6.390777 

Vibrational entropy computed according to the QRRHO of S. Grimme
Chem.Eur.J. 2012 18 9955


-------
ENTROPY
-------

The entropy contributions are T*S = T*(S(el)+S(vib)+S(rot)+S(trans))
     S(el)   - electronic entropy
     S(vib)  - vibrational entropy
     S(rot)  - rotational entropy
     S(trans)- translational entropy
The entropies will be listed as mutliplied by the temperature to get
units of energy

Electronic entropy                ...      0.00000000 Eh      0.00 kcal/mol
Vibrational entropy               ...      0.00004111 Eh      0.03 kcal/mol
Rotational entropy                ...      0.00646442 Eh      4.06 kcal/mol
Translational entropy             ...      0.01636425 Eh     10.27 kcal/mol
-----------------------------------------------------------------------
Final entropy term                ...      0.02286978 Eh     14.35 kcal/mol

In case the symmetry of your molecule has not been determined correctly
or in case you have a reason to use a different symmetry number we print 
out the resulting rotational entropy values for sn=1,12 :
 --------------------------------------------------------
|  sn= 1 | S(rot)=       0.00646442 Eh      4.06 kcal/mol|
|  sn= 2 | S(rot)=       0.00580996 Eh      3.65 kcal/mol|
|  sn= 3 | S(rot)=       0.00542713 Eh      3.41 kcal/mol|
|  sn= 4 | S(rot)=       0.00515551 Eh      3.24 kcal/mol|
|  sn= 5 | S(rot)=       0.00494482 Eh      3.10 kcal/mol|
|  sn= 6 | S(rot)=       0.00477267 Eh      2.99 kcal/mol|
|  sn= 7 | S(rot)=       0.00462713 Eh      2.90 kcal/mol|
|  sn= 8 | S(rot)=       0.00450105 Eh      2.82 kcal/mol|
|  sn= 9 | S(rot)=       0.00438984 Eh      2.75 kcal/mol|
|  sn=10 | S(rot)=       0.00429036 Eh      2.69 kcal/mol|
|  sn=11 | S(rot)=       0.00420037 Eh      2.64 kcal/mol|
|  sn=12 | S(rot)=       0.00411822 Eh      2.58 kcal/mol|
 --------------------------------------------------------


-------------------
GIBBS FREE ENERGY
-------------------

The Gibbs free energy is G = H - T*S

Total enthalpy                    ...    -56.43761597 Eh 
Total entropy correction          ...     -0.02286978 Eh    -14.35 kcal/mol
-----------------------------------------------------------------------
Final Gibbs free energy         ...    -56.46048575 Eh

For completeness - the Gibbs free energy minus the electronic energy
G-E(el)                           ...      0.01570811 Eh      9.86 kcal/mol


Timings for individual modules:

Sum of individual times         ...       69.996 sec (=   1.167 min)
GTO integral calculation        ...        4.464 sec (=   0.074 min)   6.4 %
SCF iterations                  ...       15.601 sec (=   0.260 min)  22.3 %
MP2 module                      ...       20.421 sec (=   0.340 min)  29.2 %
Geometry relaxation             ...        0.657 sec (=   0.011 min)   0.9 %
Analytical frequency calculation...       28.854 sec (=   0.481 min)  41.2 %
                             ****ORCA TERMINATED NORMALLY****
TOTAL RUN TIME: 0 days 0 hours 1 minutes 11 seconds 187 msec
