
                                 *****************
                                 * O   R   C   A *
                                 *****************

           --- An Ab Initio, DFT and Semiempirical electronic structure package ---

                  #######################################################
                  #                        -***-                        #
                  #          Department of theory and spectroscopy      #
                  #               Directorship: Frank Neese             #
                  #        Max Planck Institute fuer Kohlenforschung    #
                  #                Kaiser Wilhelm Platz 1               #
                  #                 D-45470 Muelheim/Ruhr               #
                  #                      Germany                        #
                  #                                                     #
                  #                  All rights reserved                #
                  #                        -***-                        #
                  #######################################################


                         Program Version 4.2.1 -  RELEASE  -


 With contributions from (in alphabetic order):
   Daniel Aravena         : Magnetic Suceptibility
   Michael Atanasov       : Ab Initio Ligand Field Theory (pilot matlab implementation)
   Alexander A. Auer      : GIAO ZORA, VPT2
   Ute Becker             : Parallelization
   Giovanni Bistoni       : ED, misc. LED, open-shell LED, HFLD
   Martin Brehm           : Molecular dynamics
   Dmytro Bykov           : SCF Hessian
   Vijay G. Chilkuri      : MRCI spin determinant printing, contributions to CSF-ICE
   Dipayan Datta          : RHF DLPNO-CCSD density
   Achintya Kumar Dutta   : EOM-CC, STEOM-CC
   Dmitry Ganyushin       : Spin-Orbit,Spin-Spin,Magnetic field MRCI
   Miquel Garcia          : C-PCM Hessian, Gaussian charge scheme
   Yang Guo               : DLPNO-NEVPT2, CIM, IAO-localization
   Andreas Hansen         : Spin unrestricted coupled pair/coupled cluster methods
   Benjamin Helmich-Paris : CASSCF linear response (MC-RPA)
   Lee Huntington         : MR-EOM, pCC
   Robert Izsak           : Overlap fitted RIJCOSX, COSX-SCS-MP3, EOM
   Christian Kollmar      : KDIIS, OOCD, Brueckner-CCSD(T), CCSD density
   Simone Kossmann        : Meta GGA functionals, TD-DFT gradient, OOMP2, MP2 Hessian
   Martin Krupicka        : AUTO-CI
   Lucas Lang             : DCDCAS
   Dagmar Lenk            : GEPOL surface, SMD
   Dimitrios Liakos       : Extrapolation schemes; Compound Job, initial MDCI parallelization
   Dimitrios Manganas     : Further ROCIS development; embedding schemes
   Dimitrios Pantazis     : SARC Basis sets
   Taras Petrenko         : DFT Hessian,TD-DFT gradient, ASA, ECA, R-Raman, ABS, FL, XAS/XES, NRVS
   Peter Pinski           : DLPNO-MP2, DLPNO-MP2 Gradient
   Christoph Reimann      : Effective Core Potentials
   Marius Retegan         : Local ZFS, SOC
   Christoph Riplinger    : Optimizer, TS searches, QM/MM, DLPNO-CCSD(T), (RO)-DLPNO pert. Triples
   Tobias Risthaus        : Range-separated hybrids, TD-DFT gradient, RPA, STAB
   Michael Roemelt        : Original ROCIS implementation
   Masaaki Saitow         : Open-shell DLPNO-CCSD energy and density
   Barbara Sandhoefer     : DKH picture change effects
   Avijit Sen             : IP-ROCIS
   Kantharuban Sivalingam : CASSCF convergence, NEVPT2, FIC-MRCI
   Bernardo de Souza      : ESD, SOC TD-DFT
   Georgi Stoychev        : AutoAux, RI-MP2 NMR
   Willem Van den Heuvel  : Paramagnetic NMR
   Boris Wezisla          : Elementary symmetry handling
   Frank Wennmohs         : Technical directorship


 We gratefully acknowledge several colleagues who have allowed us to
 interface, adapt or use parts of their codes:
   Stefan Grimme, W. Hujo, H. Kruse,             : VdW corrections, initial TS optimization,
                  C. Bannwarth                     DFT functionals, gCP, sTDA/sTD-DF
   Ed Valeev, F. Pavosevic, A. Kumar             : LibInt (2-el integral package), F12 methods
   Garnet Chan, S. Sharma, J. Yang, R. Olivares  : DMRG
   Ulf Ekstrom                                   : XCFun DFT Library
   Mihaly Kallay                                 : mrcc  (arbitrary order and MRCC methods)
   Andreas Klamt, Michael Diedenhofen            : otool_cosmo (COSMO solvation model)
   Jiri Pittner, Ondrej Demel                    : Mk-CCSD
   Frank Weinhold                                : gennbo (NPA and NBO analysis)
   Christopher J. Cramer and Donald G. Truhlar   : smd solvation model
   Lars Goerigk                                  : TD-DFT with DH, B97 family of functionals
   V. Asgeirsson, H. Jonsson                     : NEB implementation
   FAccTs GmbH                                   : IRC, NEB, NEB-TS, Multilevel, MM, QM/MM, CI optimization
   S Lehtola, MJT Oliveira, MAL Marques          : LibXC Library


 Your calculation uses the libint2 library for the computation of 2-el integrals
 For citations please refer to: http://libint.valeyev.net

 Your ORCA version has been built with support for libXC version: 4.2.3
 For citations please refer to: https://tddft.org/programs/libxc/

 This ORCA versions uses:
   CBLAS   interface :  Fast vector & matrix operations
   LAPACKE interface :  Fast linear algebra routines
   SCALAPACK package :  Parallel linear algebra routines




***************************************
The coordinates will be read from file: init.xyz
***************************************


----- Orbital basis set information -----
Your calculation utilizes the basis: 6-311G(3df,3pd)
   H, Li - Ne  : R. Krishnan, J. S. Binkley, R. Seeger and J. A. Pople, J. Chem. Phys. 72, 650 (1980).
   Na - Ar     : A. D. McLean and G. S. Chandler J. Chem. Phys. 72, 5639, (1980).
   K  - Ca     : J.-P. Blaudeau, M. P. McGrath, L. A. Curtiss and L. Radom, J. Chem. Phys. 107, 5016 (1997).
   Ga - Kr     : L. A. Curtiss, M. P. McGrath, J.-P. Blandeau, N. E. Davis, R. C. Binning and L. Radom, J. Chem. Phys. 103, 6104 (1995).
   Pol./Diff.
   H, Li - Cl  : T. Clark, J. Chandrasekhar and P. v. R. Schleyer, J. Comp. Chem. 4, 294 (1983).
   H - Ne      : M. J. Frisch, J. A. Pople and J. S. Binkley, J. Chem. Phys. 80, 3265 (1984).

================================================================================
                                        WARNINGS
                       Please study these warnings very carefully!
================================================================================


WARNING: The environment variable RSH_COMMAND is not set!
  ===> : All Displacements for the Numerical Hessian calculation
         will be started on localhost

WARNING: Geometry Optimization
  ===> : Switching off AutoStart
         For restart on a previous wavefunction, please use MOREAD

WARNING: Post HF methods need fully converged wavefunctions
  ===> : Setting SCFConvForced true
         You can overwrite this default with %scf ConvForced false 


INFO   : the flag for use of LIBINT has been found!

================================================================================
                                       INPUT FILE
================================================================================
NAME = NH3‡.inp
|  1> ! MP2 6-311G(3df,3pd) OptTS Freq IRC NoFrozenCore TightOpt TightSCF Grid4 FinalGrid5 PrintBasis PrintMOs NBO
|  2> 
|  3> %geom
|  4>  ts_mode
|  5>   {D 1 2 3 0}
|  6>  end
|  7>  ts_active_atoms
|  8>   {0 1 2 3}
|  9>  end
| 10>  calc_hess true
| 11>  numhess true
| 12> end
| 13> 
| 14> %irc
| 15>  maxiter 1000
| 16>  de_init_displ 0.25
| 17>  TolMAXG 1e-3
| 18>  TolRMSG 2e-4
| 19> end
| 20> 
| 21> %pal
| 22>  nprocs 12
| 23> end
| 24> 
| 25> *xyzfile 0 1 init.xyz
| 26> 
| 27>                          ****END OF INPUT****
================================================================================

                       *****************************
                       * Geometry Optimization Run *
                       *****************************

Geometry optimization settings:
Update method            Update   .... Bofill
Choice of coordinates    CoordSys .... Z-matrix Internals
Initial Hessian          InHess   .... Almoef's Model

Convergence Tolerances:
Energy Change            TolE     ....  1.0000e-06 Eh
Max. Gradient            TolMAXG  ....  1.0000e-04 Eh/bohr
RMS Gradient             TolRMSG  ....  3.0000e-05 Eh/bohr
Max. Displacement        TolMAXD  ....  1.0000e-03 bohr
RMS Displacement         TolRMSD  ....  6.0000e-04 bohr
Strict Convergence                ....  False
------------------------------------------------------------------------------
                        ORCA OPTIMIZATION COORDINATE SETUP
------------------------------------------------------------------------------

The optimization will be done in new redundant internal coordinates
Making redundant internal coordinates   ...  (new redundants) done
Following TS mode number                ...    internal coordinate number:  7
TS-active-atoms for coordinate setup... 0 1 2 3 
Evaluating the initial hessian          ...  (Is done on the fly) done
Evaluating the coordinates              ...  done
Calculating the B-matrix                .... done
Calculating the G-matrix                .... done
Diagonalizing the G-matrix              .... done
The first mode is                       ....    2
The number of degrees of freedom        ....    6

    -----------------------------------------------------------------
                    Redundant Internal Coordinates


    -----------------------------------------------------------------
         Definition                    Initial Value    d2E/dq (diagonal element)
    -----------------------------------------------------------------
      1. B(H   1,N   0)                  1.0047         0.000000   
      2. B(H   2,N   0)                  1.0047         0.000000   
      3. B(H   3,N   0)                  1.0047         0.000000   
      4. A(H   1,N   0,H   3)          120.0001         0.000000   
      5. A(H   2,N   0,H   3)          119.9998         0.000000   
      6. A(H   1,N   0,H   2)          120.0001         0.000000   
      7. D(N   0,H   3,H   2,H   1)     -0.0000         0.000000   
      8. I(H   1,H   3,H   2,N   0)     -0.0000         0.000000   
    -----------------------------------------------------------------

Number of atoms                         .... 4
Number of degrees of freedom            .... 8

         *************************************************************
         *                GEOMETRY OPTIMIZATION CYCLE   1            *
         *************************************************************
---------------------------------
CARTESIAN COORDINATES (ANGSTROEM)
---------------------------------
  N      0.000001   -0.000000   -0.000000
  H      1.004678    0.000000    0.000000
  H     -0.502340    0.870077    0.000000
  H     -0.502340   -0.870077    0.000000

----------------------------
CARTESIAN COORDINATES (A.U.)
----------------------------
  NO LB      ZA    FRAG     MASS         X           Y           Z
   0 N     7.0000    0    14.007    0.000003   -0.000000   -0.000000
   1 H     1.0000    0     1.008    1.898567    0.000000    0.000000
   2 H     1.0000    0     1.008   -0.949285    1.644207    0.000000
   3 H     1.0000    0     1.008   -0.949285   -1.644207    0.000000

--------------------------------
INTERNAL COORDINATES (ANGSTROEM)
--------------------------------
 N      0   0   0     0.000000000000     0.00000000     0.00000000
 H      1   0   0     1.004676751091     0.00000000     0.00000000
 H      1   2   0     1.004679489199   120.00010215     0.00000000
 H      1   2   3     1.004679489817   120.00010280   180.00000191

---------------------------
INTERNAL COORDINATES (A.U.)
---------------------------
 N      0   0   0     0.000000000000     0.00000000     0.00000000
 H      1   0   0     1.898563912680     0.00000000     0.00000000
 H      1   2   0     1.898569086954   120.00010215     0.00000000
 H      1   2   3     1.898569088122   120.00010280   180.00000191

---------------------
BASIS SET INFORMATION
---------------------
There are 2 groups of distinct atoms

 Group   1 Type N   : 11s5p3d1f contracted to 4s3p3d1f pattern {6311/311/111/1}
 Group   2 Type H   : 5s3p1d contracted to 3s3p1d pattern {311/111/1}

Atom   0N    basis set group =>   1
Atom   1H    basis set group =>   2
Atom   2H    basis set group =>   2
Atom   3H    basis set group =>   2

-------------------------
BASIS SET IN INPUT FORMAT
-------------------------

 # Basis set for element : H 
 NewGTO H 
 S 3 
   1      33.8650000000      0.0254938145
   2       5.0947900000      0.1903731086
   3       1.1587900000      0.8521614860
 S 1 
   1       0.3258400000      1.0000000000
 S 1 
   1       0.1027410000      1.0000000000
 P 1 
   1       3.0000000000      1.0000000000
 P 1 
   1       0.7500000000      1.0000000000
 P 1 
   1       0.1875000000      1.0000000000
 D 1 
   1       1.0000000000      1.0000000000
  end;

 # Basis set for element : N 
 NewGTO N 
 S 6 
   1    6293.4800000000      0.0019697881
   2     949.0440000000      0.0149612859
   3     218.7760000000      0.0735005308
   4      63.6916000000      0.2489367658
   5      18.8282000000      0.6024594331
   6       2.7202300000      0.2562017589
 S 3 
   1      30.6331000000      0.1119060795
   2       7.0261400000      0.9216666549
   3       2.1120500000     -0.0025691918
 P 3 
   1      30.6331000000      0.0383119186
   2       7.0261400000      0.2374031155
   3       2.1120500000      0.8175923978
 S 1 
   1       0.6840090000      1.0000000000
 P 1 
   1       0.6840090000      1.0000000000
 S 1 
   1       0.2008780000      1.0000000000
 P 1 
   1       0.2008780000      1.0000000000
 D 1 
   1       3.6520000000      1.0000000000
 D 1 
   1       0.9130000000      1.0000000000
 D 1 
   1       0.2282500000      1.0000000000
 F 1 
   1       1.0000000000      1.0000000000
  end;



           ************************************************************
           *        Program running with 12 parallel MPI-processes    *
           *              working on a common directory               *
           ************************************************************
------------------------------------------------------------------------------
                           ORCA GTO INTEGRAL CALCULATION
------------------------------------------------------------------------------

                         BASIS SET STATISTICS AND STARTUP INFO

 # of primitive gaussian shells          ...   47
 # of primitive gaussian functions       ...  105
 # of contracted shells                  ...   32
 # of contracted basis functions         ...   86
 Highest angular momentum                ...    3
 Maximum contraction depth               ...    6
 Integral package used                   ... LIBINT
 Integral threshhold            Thresh   ...  2.500e-11
 Primitive cut-off              TCut     ...  2.500e-12


------------------------------ INTEGRAL EVALUATION ----------------------------


 * One electron integrals 
 Pre-screening matrix                    ... done
 Shell pair data                         ... done (   0.000 sec)



           ************************************************************
           *        Program running with 12 parallel MPI-processes    *
           *              working on a common directory               *
           ************************************************************
-------------------------------------------------------------------------------
                                 ORCA SCF
-------------------------------------------------------------------------------

------------
SCF SETTINGS
------------
Hamiltonian:
 Ab initio Hamiltonian  Method          .... Hartree-Fock(GTOs)


General Settings:
 Integral files         IntName         .... NH3‡
 Hartree-Fock type      HFTyp           .... RHF
 Total Charge           Charge          ....    0
 Multiplicity           Mult            ....    1
 Number of Electrons    NEL             ....   10
 Basis Dimension        Dim             ....   86
 Nuclear Repulsion      ENuc            ....     11.9732653450 Eh

Convergence Acceleration:
 DIIS                   CNVDIIS         .... on
   Start iteration      DIISMaxIt       ....    12
   Startup error        DIISStart       ....  0.200000
   # of expansion vecs  DIISMaxEq       ....     5
   Bias factor          DIISBfac        ....   1.050
   Max. coefficient     DIISMaxC        ....  10.000
 Newton-Raphson         CNVNR           .... off
 SOSCF                  CNVSOSCF        .... on
   Start iteration      SOSCFMaxIt      ....   150
   Startup grad/error   SOSCFStart      ....  0.003300
 Level Shifting         CNVShift        .... on
   Level shift para.    LevelShift      ....    0.2500
   Turn off err/grad.   ShiftErr        ....    0.0010
 Zerner damping         CNVZerner       .... off
 Static damping         CNVDamp         .... on
   Fraction old density DampFac         ....    0.7000
   Max. Damping (<1)    DampMax         ....    0.9800
   Min. Damping (>=0)   DampMin         ....    0.0000
   Turn off err/grad.   DampErr         ....    0.1000
 Fernandez-Rico         CNVRico         .... off

SCF Procedure:
 Maximum # iterations   MaxIter         ....   125
 SCF integral mode      SCFMode         .... Direct
   Integral package                     .... LIBINT
 Reset frequency        DirectResetFreq ....    20
 Integral Threshold     Thresh          ....  2.500e-11 Eh
 Primitive CutOff       TCut            ....  2.500e-12 Eh

Convergence Tolerance:
 Convergence Check Mode ConvCheckMode   .... Total+1el-Energy
 Convergence forced     ConvForced      .... 1
 Energy Change          TolE            ....  1.000e-08 Eh
 1-El. energy change                    ....  1.000e-05 Eh
 Orbital Gradient       TolG            ....  1.000e-05
 Orbital Rotation angle TolX            ....  1.000e-05
 DIIS Error             TolErr          ....  5.000e-07


Diagonalization of the overlap matrix:
Smallest eigenvalue                        ... 1.156e-03
Time for diagonalization                   ...    0.002 sec
Threshold for overlap eigenvalues          ... 1.000e-08
Number of eigenvalues below threshold      ... 0
Time for construction of square roots      ...    0.013 sec
Total time needed                          ...    0.016 sec

-------------------
DFT GRID GENERATION
-------------------

General Integration Accuracy     IntAcc      ...  4.670
Radial Grid Type                 RadialGrid  ... Gauss-Chebyshev
Angular Grid (max. acc.)         AngularGrid ... Lebedev-302
Angular grid pruning method      GridPruning ... 3 (G Style)
Weight generation scheme         WeightScheme... Becke
Basis function cutoff            BFCut       ...    1.0000e-11
Integration weight cutoff        WCut        ...    1.0000e-14
Grids for H and He will be reduced by one unit

# of grid points (after initial pruning)     ...  16394 (   0.0 sec)
# of grid points (after weights+screening)   ...  16135 (   0.0 sec)
nearest neighbour list constructed           ...    0.0 sec
Grid point re-assignment to atoms done       ...    0.0 sec
Grid point division into batches done        ...    0.1 sec
Reduced shell lists constructed in    0.1 sec

Total number of grid points                  ...    16135
Total number of batches                      ...      254
Average number of points per batch           ...       63
Average number of grid points per atom       ...     4034
Average number of shells per batch           ...    30.09 (94.02%)
Average number of basis functions per batch  ...    80.87 (94.03%)
Average number of large shells per batch     ...    29.13 (96.82%)
Average number of large basis fcns per batch ...    78.52 (97.10%)
Maximum spatial batch extension              ...   2.60,  2.57, 15.66 au
Average spatial batch extension              ...   0.11,  0.12,  0.22 au

Time for grid setup =    0.171 sec

------------------------------
INITIAL GUESS: MODEL POTENTIAL
------------------------------
Loading Hartree-Fock densities                     ... done
Calculating cut-offs                               ... done
Setting up the integral package                    ... done
Initializing the effective Hamiltonian             ... done
Starting the Coulomb interaction                   ... done (   0.0 sec)
Reading the grid                                   ... done
Mapping shells                                     ... done
Starting the XC term evaluation                    ... done (   0.0 sec)
Transforming the Hamiltonian                       ... done (   0.0 sec)
Diagonalizing the Hamiltonian                      ... done (   0.0 sec)
Back transforming the eigenvectors                 ... done (   0.0 sec)
Now organizing SCF variables                       ... done
                      ------------------
                      INITIAL GUESS DONE (   0.3 sec)
                      ------------------
--------------
SCF ITERATIONS
--------------
ITER       Energy         Delta-E        Max-DP      RMS-DP      [F,P]     Damp
               ***  Starting incremental Fock matrix formation  ***
  0    -56.0596158949   0.000000000000 0.07411748  0.00150090  0.4319744 0.7000
  1    -56.1174130475  -0.057797152527 0.04679936  0.00103235  0.2582213 0.7000
                               ***Turning on DIIS***
  2    -56.1487121182  -0.031299070710 0.02415363  0.00058020  0.1421345 0.7000
  3    -56.3490908650  -0.200378746794 0.02087541  0.00081467  0.0768589 0.0000
  4    -56.1703112527   0.178779612232 0.00879551  0.00018186  0.0176144 0.0000
                      *** Initiating the SOSCF procedure ***
                           *** Shutting down DIIS ***
                      *** Re-Reading the Fockian *** 
                      *** Removing any level shift *** 
ITER      Energy       Delta-E        Grad      Rot      Max-DP    RMS-DP
  5    -56.20469230  -0.0343810451  0.001252  0.001252  0.001210  0.000044
               *** Restarting incremental Fock matrix formation ***
  6    -56.20702294  -0.0023306397  0.000550  0.000628  0.000849  0.000023
  7    -56.20702547  -0.0000025309  0.000166  0.000341  0.000493  0.000013
  8    -56.20702593  -0.0000004661  0.000069  0.000044  0.000090  0.000002
  9    -56.20702595  -0.0000000198  0.000013  0.000011  0.000023  0.000001
                  ***Gradient check signals convergence***
              ***Rediagonalizing the Fockian in SOSCF/NRSCF***

               *****************************************************
               *                     SUCCESS                       *
               *           SCF CONVERGED AFTER  10 CYCLES          *
               *****************************************************


----------------
TOTAL SCF ENERGY
----------------

Total Energy       :          -56.20702596 Eh           -1529.47093 eV

Components:
Nuclear Repulsion  :           11.97326535 Eh             325.80911 eV
Electronic Energy  :          -68.18029130 Eh           -1855.28005 eV
One Electron Energy:          -99.75475898 Eh           -2714.46499 eV
Two Electron Energy:           31.57446768 Eh             859.18495 eV

Virial components:
Potential Energy   :         -112.33224329 Eh           -3056.71574 eV
Kinetic Energy     :           56.12521734 Eh            1527.24481 eV
Virial Ratio       :            2.00145761


---------------
SCF CONVERGENCE
---------------

  Last Energy change         ...   -2.1782e-09  Tolerance :   1.0000e-08
  Last MAX-Density change    ...    4.0924e-06  Tolerance :   1.0000e-07
  Last RMS-Density change    ...    2.0157e-07  Tolerance :   5.0000e-09
  Last Orbital Gradient      ...    2.2173e-06  Tolerance :   1.0000e-05
  Last Orbital Rotation      ...    3.1668e-06  Tolerance :   1.0000e-05

             **** THE GBW FILE WAS UPDATED (NH3‡.gbw) ****
             **** DENSITY FILE WAS UPDATED (NH3‡.scfp) ****
             **** ENERGY FILE WAS UPDATED (NH3‡.en.tmp) ****
             **** THE GBW FILE WAS UPDATED (NH3‡.gbw) ****
             **** DENSITY FILE WAS UPDATED (NH3‡.scfp) ****
----------------
ORBITAL ENERGIES
----------------

  NO   OCC          E(Eh)            E(eV) 
   0   2.0000     -15.516254      -422.2187 
   1   2.0000      -1.115790       -30.3622 
   2   2.0000      -0.641838       -17.4653 
   3   2.0000      -0.641836       -17.4653 
   4   2.0000      -0.387181       -10.5357 
   5   0.0000       0.159518         4.3407 
   6   0.0000       0.200335         5.4514 
   7   0.0000       0.200336         5.4514 
   8   0.0000       0.350674         9.5423 
   9   0.0000       0.350674         9.5423 
  10   0.0000       0.412516        11.2251 
  11   0.0000       0.471663        12.8346 
  12   0.0000       0.471664        12.8346 
  13   0.0000       0.489414        13.3176 
  14   0.0000       0.591002        16.0820 
  15   0.0000       0.591002        16.0820 
  16   0.0000       0.640428        17.4269 
  17   0.0000       0.789497        21.4833 
  18   0.0000       0.865525        23.5521 
  19   0.0000       0.865527        23.5522 
  20   0.0000       0.868877        23.6433 
  21   0.0000       0.922522        25.1031 
  22   0.0000       0.922523        25.1031 
  23   0.0000       1.045346        28.4453 
  24   0.0000       1.045348        28.4454 
  25   0.0000       1.100200        29.9380 
  26   0.0000       1.280575        34.8462 
  27   0.0000       1.287006        35.0212 
  28   0.0000       1.287007        35.0212 
  29   0.0000       1.930790        52.5395 
  30   0.0000       1.930790        52.5395 
  31   0.0000       2.025110        55.1060 
  32   0.0000       2.057238        55.9803 
  33   0.0000       2.216087        60.3028 
  34   0.0000       2.216089        60.3028 
  35   0.0000       2.404580        65.4319 
  36   0.0000       2.495070        67.8943 
  37   0.0000       2.495072        67.8944 
  38   0.0000       2.875970        78.2591 
  39   0.0000       2.875972        78.2592 
  40   0.0000       2.914325        79.3028 
  41   0.0000       3.029867        82.4469 
  42   0.0000       3.029872        82.4470 
  43   0.0000       3.240047        88.1662 
  44   0.0000       3.339067        90.8606 
  45   0.0000       3.339071        90.8607 
  46   0.0000       3.377446        91.9050 
  47   0.0000       3.416099        92.9568 
  48   0.0000       3.416100        92.9568 
  49   0.0000       3.565522        97.0228 
  50   0.0000       3.565526        97.0229 
  51   0.0000       3.877495       105.5120 
  52   0.0000       3.888142       105.8017 
  53   0.0000       4.014369       109.2365 
  54   0.0000       4.289632       116.7268 
  55   0.0000       4.466044       121.5272 
  56   0.0000       4.466047       121.5273 
  57   0.0000       4.531050       123.2961 
  58   0.0000       4.531055       123.2963 
  59   0.0000       4.763628       129.6249 
  60   0.0000       4.805392       130.7614 
  61   0.0000       4.805395       130.7614 
  62   0.0000       5.442858       148.1077 
  63   0.0000       5.442858       148.1077 
  64   0.0000       5.499706       149.6546 
  65   0.0000       5.542983       150.8322 
  66   0.0000       5.542984       150.8323 
  67   0.0000       5.799154       157.8030 
  68   0.0000       6.285034       171.0245 
  69   0.0000       6.563613       178.6050 
  70   0.0000       6.563618       178.6051 
  71   0.0000       8.676733       236.1059 
  72   0.0000       8.676733       236.1059 
  73   0.0000       8.684555       236.3188 
  74   0.0000       8.830299       240.2847 
  75   0.0000       9.031217       245.7519 
  76   0.0000       9.031217       245.7519 
  77   0.0000       9.407736       255.9975 
  78   0.0000       9.407740       255.9976 
  79   0.0000      10.252735       278.9911 
  80   0.0000      11.276374       306.8457 
  81   0.0000      11.276378       306.8459 
  82   0.0000      11.523284       313.5645 
  83   0.0000      12.138009       330.2920 
  84   0.0000      12.138012       330.2921 
  85   0.0000      38.745284      1054.3128 
------------------
MOLECULAR ORBITALS
------------------
                      0         1         2         3         4         5   
                 -15.51625  -1.11579  -0.64184  -0.64184  -0.38718   0.15952
                   2.00000   2.00000   2.00000   2.00000   2.00000   0.00000
                  --------  --------  --------  --------  --------  --------
  0N   1s         0.557592 -0.109281  0.000000 -0.000000 -0.000000  0.047049
  0N   2s         0.468065 -0.180842  0.000000 -0.000000 -0.000000  0.079932
  0N   1pz        0.000000  0.000000  0.000000  0.000000 -0.264404 -0.000000
  0N   1px       -0.000000  0.000000  0.207199  0.000080  0.000000  0.000000
  0N   1py        0.000000  0.000000  0.000080 -0.207198  0.000000  0.000000
  0N   3s         0.006069  0.477259 -0.000000  0.000000  0.000000 -0.124041
  0N   2pz       -0.000000  0.000000  0.000000  0.000000 -0.408329 -0.000000
  0N   2px        0.000000  0.000000  0.317468  0.000122  0.000000 -0.000000
  0N   2py        0.000000  0.000000  0.000122 -0.317468  0.000000 -0.000000
  0N   4s         0.002485  0.354841 -0.000001 -0.000000  0.000000 -1.952298
  0N   3pz        0.000000  0.000000  0.000000  0.000000 -0.404168 -0.000000
  0N   3px        0.000000 -0.000000  0.167457  0.000065 -0.000000 -0.000001
  0N   3py        0.000000  0.000000  0.000065 -0.167458  0.000000 -0.000000
  0N   1dz2      -0.000091 -0.001467 -0.000000  0.000000 -0.000000 -0.003758
  0N   1dxz       0.000000  0.000000  0.000000  0.000000 -0.000000  0.000000
  0N   1dyz       0.000000  0.000000  0.000000 -0.000000 -0.000000  0.000000
  0N   1dx2y2     0.000000  0.000000  0.003396  0.000001  0.000000  0.000000
  0N   1dxy       0.000000  0.000000 -0.000001  0.003396  0.000000  0.000000
  0N   2dz2      -0.000312 -0.011450 -0.000000  0.000000 -0.000000  0.038976
  0N   2dxz       0.000000  0.000000  0.000000  0.000000 -0.000000 -0.000000
  0N   2dyz      -0.000000 -0.000000  0.000000 -0.000000 -0.000000 -0.000000
  0N   2dx2y2     0.000000  0.000000  0.020969  0.000008 -0.000000 -0.000000
  0N   2dxy       0.000000  0.000000 -0.000008  0.020970 -0.000000 -0.000000
  0N   3dz2      -0.000191 -0.001336  0.000000  0.000000  0.000000  0.029739
  0N   3dxz       0.000000 -0.000000  0.000000  0.000000  0.000000 -0.000000
  0N   3dyz       0.000000 -0.000000  0.000000 -0.000000  0.000000  0.000000
  0N   3dx2y2     0.000000 -0.000000 -0.015415 -0.000006 -0.000000 -0.000001
  0N   3dxy       0.000000  0.000000  0.000006 -0.015415 -0.000000  0.000000
  0N   1f0       -0.000000 -0.000000 -0.000000 -0.000000  0.005936  0.000000
  0N   1f+1      -0.000000 -0.000000 -0.005214 -0.000002 -0.000000  0.000000
  0N   1f-1      -0.000000 -0.000000 -0.000002  0.005214 -0.000000  0.000000
  0N   1f+2       0.000000  0.000000  0.000000  0.000000 -0.000000 -0.000000
  0N   1f-2       0.000000  0.000000 -0.000000  0.000000 -0.000000 -0.000000
  0N   1f+3      -0.000404 -0.004260 -0.000000 -0.000000  0.000000  0.025065
  0N   1f-3      -0.000000  0.000000 -0.000000  0.000000  0.000000 -0.000000
  1H   1s         0.000133  0.087493  0.168714  0.000065 -0.000000  0.028682
  1H   2s        -0.001158  0.087480  0.272206  0.000105 -0.000000  0.152528
  1H   3s        -0.000039  0.002537  0.120879  0.000047  0.000000  0.780960
  1H   1pz       -0.000000 -0.000000 -0.000000 -0.000000 -0.003365  0.000000
  1H   1px       -0.000093 -0.002917 -0.004277 -0.000002  0.000000  0.005180
  1H   1py       -0.000000 -0.000000  0.000001 -0.001623 -0.000000  0.000000
  1H   2pz        0.000000 -0.000000 -0.000000 -0.000000 -0.016917 -0.000000
  1H   2px        0.000601 -0.017904 -0.021240 -0.000008  0.000000 -0.046156
  1H   2py        0.000000 -0.000000  0.000004 -0.010606  0.000000 -0.000000
  1H   3pz       -0.000000  0.000000 -0.000000 -0.000000 -0.054536 -0.000000
  1H   3px        0.000216 -0.001767 -0.030617 -0.000012 -0.000000 -0.076978
  1H   3py       -0.000000 -0.000000 -0.000002  0.004097  0.000000 -0.000000
  1H   1dz2       0.000104 -0.000916 -0.000971 -0.000000  0.000000 -0.005117
  1H   1dxz      -0.000000  0.000000  0.000000  0.000000  0.005424  0.000000
  1H   1dyz      -0.000000 -0.000000 -0.000000  0.000000  0.000000 -0.000000
  1H   1dx2y2    -0.000191  0.001363  0.001508  0.000001 -0.000000  0.009525
  1H   1dxy      -0.000000  0.000000 -0.000001  0.002999 -0.000000  0.000000
  2H   1s         0.000133  0.087493 -0.084301 -0.146143 -0.000000  0.028682
  2H   2s        -0.001158  0.087479 -0.136013 -0.235790 -0.000000  0.152524
  2H   3s        -0.000039  0.002537 -0.060400 -0.104708  0.000000  0.780958
  2H   1pz       -0.000000 -0.000000  0.000000  0.000000 -0.003365  0.000000
  2H   1px        0.000047  0.001459  0.000149 -0.002555 -0.000000 -0.002590
  2H   1py       -0.000081 -0.002526  0.002554  0.002803  0.000000  0.004486
  2H   2pz        0.000000 -0.000000  0.000000  0.000000 -0.016917 -0.000000
  2H   2px       -0.000300  0.008952  0.002649 -0.013789 -0.000000  0.023078
  2H   2py        0.000520 -0.015506  0.013785  0.013284  0.000000 -0.039971
  2H   3pz       -0.000000  0.000000  0.000000  0.000000 -0.054536 -0.000000
  2H   3px       -0.000108  0.000883 -0.010722 -0.011488  0.000000  0.038488
  2H   3py        0.000187 -0.001530  0.011474  0.023991 -0.000000 -0.066662
  2H   1dz2       0.000104 -0.000916  0.000485  0.000841  0.000000 -0.005117
  2H   1dxz       0.000000 -0.000000  0.000000  0.000000 -0.002712 -0.000000
  2H   1dyz      -0.000000  0.000000 -0.000000 -0.000000  0.004697  0.000000
  2H   1dx2y2     0.000095 -0.000682  0.002626 -0.000645  0.000000 -0.004762
  2H   1dxy       0.000165 -0.001181 -0.000646  0.001880  0.000000 -0.008249
  3H   1s         0.000133  0.087493 -0.084413  0.146078 -0.000000  0.028682
  3H   2s        -0.001158  0.087479 -0.136194  0.235685 -0.000000  0.152524
  3H   3s        -0.000039  0.002537 -0.060480  0.104662  0.000000  0.780958
  3H   1pz       -0.000000 -0.000000  0.000000 -0.000000 -0.003365  0.000000
  3H   1px        0.000047  0.001459  0.000147  0.002555 -0.000000 -0.002590
  3H   1py        0.000081  0.002526 -0.002556  0.002801 -0.000000 -0.004486
  3H   2pz        0.000000 -0.000000  0.000000 -0.000000 -0.016917 -0.000000
  3H   2px       -0.000300  0.008952  0.002639  0.013791 -0.000000  0.023078
  3H   2py       -0.000520  0.015506 -0.013795  0.013273 -0.000000  0.039971
  3H   3pz       -0.000000  0.000000  0.000000 -0.000000 -0.054536 -0.000000
  3H   3px       -0.000108  0.000883 -0.010731  0.011480  0.000000  0.038488
  3H   3py       -0.000187  0.001530 -0.011493  0.023982  0.000000  0.066662
  3H   1dz2       0.000104 -0.000916  0.000486 -0.000840  0.000000 -0.005117
  3H   1dxz       0.000000 -0.000000  0.000000 -0.000000 -0.002712 -0.000000
  3H   1dyz       0.000000 -0.000000  0.000000 -0.000000 -0.004697 -0.000000
  3H   1dx2y2     0.000095 -0.000682  0.002626  0.000647  0.000000 -0.004762
  3H   1dxy      -0.000165  0.001181  0.000645  0.001881 -0.000000  0.008249
                      6         7         8         9        10        11   
                   0.20034   0.20034   0.35067   0.35067   0.41252   0.47166
                   0.00000   0.00000   0.00000   0.00000   0.00000   0.00000
                  --------  --------  --------  --------  --------  --------
  0N   1s         0.000000  0.000000  0.000000 -0.000000 -0.018891  0.000000
  0N   2s         0.000000  0.000000  0.000000 -0.000000 -0.026658  0.000000
  0N   1pz        0.000000  0.000000  0.000000  0.000000  0.000000  0.000003
  0N   1px       -0.090140 -0.000054 -0.000021  0.045036 -0.000000 -0.000000
  0N   1py       -0.000054  0.090140  0.045036  0.000021  0.000000 -0.000000
  0N   3s        -0.000001 -0.000000 -0.000000 -0.000001  0.320233  0.000000
  0N   2pz       -0.000000  0.000000  0.000000  0.000000 -0.000000  0.000004
  0N   2px       -0.224875 -0.000136 -0.000005  0.010545 -0.000003  0.000000
  0N   2py       -0.000136  0.224872  0.010547  0.000005 -0.000000  0.000000
  0N   4s        -0.000022 -0.000000  0.000000 -0.000009 -6.442749 -0.000000
  0N   3pz       -0.000000  0.000000 -0.000000 -0.000000 -0.000000  0.000022
  0N   3px       -2.486813 -0.001499  0.000614 -1.317799  0.000007  0.000000
  0N   3py       -0.001499  2.486802 -1.317813 -0.000614 -0.000000  0.000000
  0N   1dz2      -0.000000 -0.000000  0.000000  0.000000 -0.003337 -0.000000
  0N   1dxz       0.000000  0.000000  0.000000 -0.000000  0.000000  0.002484
  0N   1dyz       0.000000 -0.000000 -0.000000 -0.000000 -0.000000  0.000005
  0N   1dx2y2     0.003745  0.000002  0.000000 -0.000489  0.000000 -0.000000
  0N   1dxy      -0.000002  0.003745  0.000489  0.000000  0.000000  0.000000
  0N   2dz2       0.000000  0.000000 -0.000000  0.000000  0.143646  0.000000
  0N   2dxz      -0.000000 -0.000000  0.000000 -0.000000 -0.000000  0.041554
  0N   2dyz      -0.000000  0.000000 -0.000000 -0.000000 -0.000000  0.000079
  0N   2dx2y2    -0.064331 -0.000039  0.000039 -0.083106 -0.000001  0.000000
  0N   2dxy       0.000039 -0.064330  0.083106  0.000039  0.000000 -0.000000
  0N   3dz2       0.000001  0.000000 -0.000000 -0.000001  0.573782  0.000000
  0N   3dxz      -0.000000 -0.000000  0.000000 -0.000000 -0.000000 -0.249712
  0N   3dyz      -0.000000  0.000000 -0.000000 -0.000000  0.000000 -0.000477
  0N   3dx2y2    -0.688649 -0.000415 -0.000133  0.285592 -0.000001  0.000000
  0N   3dxy       0.000415 -0.688651 -0.285583 -0.000133 -0.000000 -0.000000
  0N   1f0        0.000000 -0.000000 -0.000000  0.000000  0.000000 -0.000000
  0N   1f+1       0.030187  0.000018 -0.000006  0.013088 -0.000000 -0.000000
  0N   1f-1       0.000018 -0.030187  0.013088  0.000006  0.000000 -0.000000
  0N   1f+2      -0.000000 -0.000000  0.000000 -0.000000 -0.000000  0.001595
  0N   1f-2       0.000000 -0.000000  0.000000  0.000000  0.000000 -0.000003
  0N   1f+3       0.000000  0.000000 -0.000000 -0.000000  0.080232  0.000000
  0N   1f-3       0.000000 -0.000000  0.000000  0.000000 -0.000000  0.000000
  1H   1s        -0.046255 -0.000028  0.000044 -0.094962 -0.093359  0.000000
  1H   2s         1.341118  0.000808 -0.000110  0.237075  0.960441 -0.000000
  1H   3s         3.444008  0.002076 -0.000425  0.911826  1.050892 -0.000000
  1H   1pz        0.000000  0.000000  0.000000 -0.000000  0.000000  0.016871
  1H   1px        0.008482  0.000005  0.000001 -0.001744  0.003402 -0.000000
  1H   1py       -0.000001  0.001658  0.006046  0.000003  0.000000 -0.000000
  1H   2pz       -0.000000 -0.000000 -0.000000  0.000000 -0.000000 -0.060118
  1H   2px       -0.102836 -0.000062  0.000025 -0.053268 -0.175144  0.000000
  1H   2py        0.000000 -0.000315  0.014779  0.000007 -0.000000  0.000000
  1H   3pz       -0.000000 -0.000000 -0.000000  0.000000  0.000000  1.261477
  1H   3px       -1.059729 -0.000639  0.000409 -0.877313 -1.219829  0.000000
  1H   3py       -0.000133  0.220811  0.970140  0.000452  0.000000  0.000000
  1H   1dz2      -0.008078 -0.000005  0.000009 -0.020170 -0.027212  0.000000
  1H   1dxz       0.000000  0.000000 -0.000000  0.000000  0.000000 -0.012760
  1H   1dyz       0.000000 -0.000000 -0.000000 -0.000000 -0.000000  0.000022
  1H   1dx2y2     0.027721  0.000017 -0.000011  0.022824  0.040247 -0.000000
  1H   1dxy       0.000001 -0.001906 -0.023167 -0.000011  0.000000 -0.000000
  2H   1s         0.023103  0.040071 -0.082262  0.047443 -0.093360 -0.000000
  2H   2s        -0.669851 -1.161834  0.205372 -0.118442  0.960433  0.000000
  2H   3s        -1.720202 -2.983630  0.789891 -0.455542  1.050900  0.000000
  2H   1pz       -0.000000 -0.000000 -0.000000  0.000000  0.000000 -0.008408
  2H   1px        0.000875  0.004391  0.003372  0.004100 -0.001701 -0.000000
  2H   1py       -0.004387 -0.005950  0.000202  0.003374  0.002946  0.000000
  2H   2pz        0.000000  0.000000  0.000000 -0.000000 -0.000000  0.029962
  2H   2px       -0.025445 -0.044680  0.029466 -0.002219  0.087571  0.000000
  2H   2py        0.044619  0.077073 -0.036270  0.029449 -0.151678 -0.000000
  2H   3pz        0.000000  0.000000  0.000000 -0.000000  0.000000 -0.628673
  2H   3px       -0.430320 -0.363523  0.799735  0.508652  0.609917  0.000000
  2H   3py        0.362749  0.850215 -0.415826  0.799776 -1.056406 -0.000000
  2H   1dz2       0.004035  0.006998 -0.017472  0.010077 -0.027212 -0.000000
  2H   1dxz       0.000000  0.000000 -0.000000 -0.000000 -0.000000  0.005627
  2H   1dyz      -0.000000 -0.000000  0.000000 -0.000000  0.000000  0.010592
  2H   1dx2y2     0.005493  0.012832  0.000138  0.023081 -0.020123  0.000000
  2H   1dxy       0.012816  0.020322 -0.022910 -0.000159 -0.034855 -0.000000
  3H   1s         0.023151 -0.040043  0.082218  0.047519 -0.093360 -0.000000
  3H   2s        -0.671251  1.161026 -0.205262 -0.118633  0.960433  0.000000
  3H   3s        -1.723797  2.981554 -0.789466 -0.456278  1.050900  0.000000
  3H   1pz       -0.000000  0.000000  0.000000  0.000000  0.000000 -0.008464
  3H   1px        0.000880 -0.004390 -0.003375  0.004097 -0.001701 -0.000000
  3H   1py        0.004394 -0.005944  0.000205 -0.003373 -0.002946 -0.000000
  3H   2pz        0.000000 -0.000000 -0.000000 -0.000000 -0.000000  0.030161
  3H   2px       -0.025499  0.044650 -0.029464 -0.002246  0.087571  0.000000
  3H   2py       -0.044712  0.077019 -0.036242 -0.029482  0.151678  0.000000
  3H   3pz        0.000000 -0.000000 -0.000000 -0.000000  0.000000 -0.632851
  3H   3px       -0.430758  0.363004 -0.800208  0.507907  0.609917  0.000000
  3H   3py       -0.363774  0.849777 -0.415081 -0.800163  1.056406  0.000000
  3H   1dz2       0.004043 -0.006993  0.017463  0.010093 -0.027212 -0.000000
  3H   1dxz       0.000000 -0.000000  0.000000 -0.000000 -0.000000  0.005586
  3H   1dyz       0.000000 -0.000000  0.000000  0.000000 -0.000000 -0.010617
  3H   1dx2y2     0.005509 -0.012825 -0.000159  0.023081 -0.020123  0.000000
  3H   1dxy      -0.012841  0.020306 -0.022910  0.000138  0.034855  0.000000
                     12        13        14        15        16        17   
                   0.47166   0.48941   0.59100   0.59100   0.64043   0.78950
                   0.00000   0.00000   0.00000   0.00000   0.00000   0.00000
                  --------  --------  --------  --------  --------  --------
  0N   1s        -0.000000 -0.000000 -0.000000 -0.000000 -0.000000 -0.027711
  0N   2s        -0.000000 -0.000000  0.000000  0.000000 -0.000000 -0.052713
  0N   1pz       -0.000000 -0.164815 -0.000000 -0.000000  0.000000  0.000000
  0N   1px        0.000000 -0.000000  0.173363  0.002079 -0.000000 -0.000001
  0N   1py       -0.000000  0.000000  0.002079 -0.173363 -0.000001 -0.000000
  0N   3s         0.000000 -0.000000 -0.000001 -0.000000  0.000000  0.138177
  0N   2pz       -0.000000 -0.225327 -0.000000 -0.000000  0.000000  0.000000
  0N   2px       -0.000000  0.000000  0.026859  0.000322 -0.000000 -0.000001
  0N   2py        0.000000 -0.000000  0.000322 -0.026866 -0.000002 -0.000000
  0N   4s        -0.000000  0.000000 -0.000039 -0.000000  0.000000  5.144209
  0N   3pz       -0.000000 -1.499522 -0.000000 -0.000000  0.000000  0.000000
  0N   3px       -0.000000  0.000000 -2.834963 -0.033998  0.000000 -0.000023
  0N   3py        0.000000 -0.000000 -0.033998  2.834931  0.000006  0.000000
  0N   1dz2       0.000000  0.000000 -0.000000 -0.000000  0.000000  0.017165
  0N   1dxz      -0.000005  0.000000  0.000000  0.000000  0.000000 -0.000000
  0N   1dyz       0.002484 -0.000000  0.000000 -0.000000 -0.000000 -0.000000
  0N   1dx2y2     0.000000 -0.000000  0.004563  0.000055 -0.000000  0.000000
  0N   1dxy       0.000000 -0.000000 -0.000055  0.004563  0.000000 -0.000000
  0N   2dz2      -0.000000 -0.000000  0.000001  0.000000  0.000000 -0.035955
  0N   2dxz      -0.000079  0.000001 -0.000000 -0.000000 -0.000000  0.000000
  0N   2dyz       0.041554 -0.000000 -0.000000  0.000000 -0.000000  0.000000
  0N   2dx2y2    -0.000000  0.000000 -0.099522 -0.001194  0.000000  0.000000
  0N   2dxy      -0.000000  0.000000  0.001193 -0.099520 -0.000000  0.000000
  0N   3dz2       0.000000 -0.000000  0.000003  0.000000 -0.000000  0.885468
  0N   3dxz       0.000477 -0.000004 -0.000000 -0.000000  0.000000 -0.000000
  0N   3dyz      -0.249708  0.000000 -0.000000  0.000000  0.000000 -0.000000
  0N   3dx2y2    -0.000000  0.000000 -1.756886 -0.021069  0.000000  0.000002
  0N   3dxy      -0.000000  0.000000  0.021070 -1.756893 -0.000003 -0.000000
  0N   1f0        0.000000  0.002677  0.000000 -0.000000  0.000000 -0.000000
  0N   1f+1       0.000000 -0.000000  0.037593  0.000451 -0.000000  0.000000
  0N   1f-1      -0.000000  0.000000  0.000451 -0.037592  0.000000  0.000000
  0N   1f+2      -0.000003  0.000000 -0.000000 -0.000000 -0.000000  0.000000
  0N   1f-2      -0.001595  0.000000  0.000000 -0.000000 -0.000000  0.000000
  0N   1f+3      -0.000000 -0.000000  0.000000  0.000000 -0.000000 -0.002701
  0N   1f-3       0.000000  0.000000  0.000000 -0.000000  0.028467  0.000000
  1H   1s        -0.000000  0.000000 -0.089123 -0.001069  0.000000 -0.040140
  1H   2s         0.000000 -0.000000  2.450882  0.029392 -0.000000 -0.592245
  1H   3s         0.000000 -0.000000  4.344432  0.052101 -0.000000 -0.806909
  1H   1pz       -0.000032  0.012178  0.000000  0.000000 -0.000000  0.000000
  1H   1px        0.000000 -0.000000  0.000523  0.000006  0.000000  0.004980
  1H   1py       -0.000000 -0.000000 -0.000054  0.004495 -0.016069 -0.000000
  1H   2pz        0.000115 -0.077353 -0.000000 -0.000000  0.000000  0.000000
  1H   2px       -0.000000  0.000000 -0.203842 -0.002445  0.000000 -0.011937
  1H   2py        0.000000  0.000000  0.000257 -0.021408  0.090346 -0.000000
  1H   3pz       -0.002412  0.975077  0.000000  0.000000 -0.000000 -0.000000
  1H   3px       -0.000000  0.000000 -2.657110 -0.031865  0.000000  1.304022
  1H   3py        0.000000 -0.000000 -0.018322  1.527765 -1.188528  0.000000
  1H   1dz2      -0.000000  0.000000 -0.015807 -0.000190  0.000000  0.013371
  1H   1dxz       0.000024 -0.008664  0.000000  0.000000 -0.000000 -0.000000
  1H   1dyz       0.011729 -0.000000  0.000000 -0.000000 -0.000000  0.000000
  1H   1dx2y2     0.000000 -0.000000  0.059840  0.000718 -0.000000 -0.028669
  1H   1dxy      -0.000000  0.000000  0.000224 -0.018656 -0.000894 -0.000000
  2H   1s         0.000000  0.000000  0.043636  0.077717  0.000000 -0.040140
  2H   2s        -0.000000 -0.000000 -1.199967 -2.137195 -0.000002 -0.592258
  2H   3s        -0.000000 -0.000000 -2.127092 -3.788428 -0.000017 -0.806929
  2H   1pz        0.014627  0.012177 -0.000000 -0.000000 -0.000000  0.000000
  2H   1px        0.000000  0.000000 -0.003266  0.002134  0.013916 -0.002490
  2H   1py       -0.000000 -0.000000 -0.002182  0.000705  0.008034  0.004313
  2H   2pz       -0.052123 -0.077351  0.000000  0.000000 -0.000000  0.000000
  2H   2px       -0.000000 -0.000000 -0.033734 -0.097953 -0.078242  0.005969
  2H   2py        0.000000  0.000000  0.095766  0.148696 -0.045173 -0.010339
  2H   3pz        1.093688  0.975042 -0.000000 -0.000000  0.000000 -0.000000
  2H   3px       -0.000000 -0.000000 -1.804222 -0.510736  1.029299 -0.652020
  2H   3py        0.000000  0.000000  0.460544  2.380624  0.594278  1.129332
  2H   1dz2       0.000000  0.000000  0.007739  0.013783  0.000000  0.013372
  2H   1dxz       0.010593  0.004332  0.000000 -0.000000  0.000000  0.000000
  2H   1dyz      -0.006658 -0.007503  0.000000 -0.000000  0.000000 -0.000000
  2H   1dx2y2     0.000000  0.000000  0.000560  0.034001 -0.000774  0.014335
  2H   1dxy       0.000000  0.000000  0.033507  0.040623  0.000447  0.024829
  3H   1s        -0.000000  0.000000  0.045487 -0.076648 -0.000000 -0.040140
  3H   2s         0.000000 -0.000000 -1.250875  2.107803  0.000002 -0.592258
  3H   3s         0.000000 -0.000000 -2.217333  3.736327  0.000018 -0.806929
  3H   1pz       -0.014595  0.012177 -0.000000  0.000000  0.000000  0.000000
  3H   1px       -0.000000  0.000000 -0.003214 -0.002212 -0.013916 -0.002490
  3H   1py       -0.000000  0.000000  0.002164  0.000757  0.008034 -0.004313
  3H   2pz        0.052008 -0.077351  0.000000 -0.000000 -0.000000  0.000000
  3H   2px        0.000000 -0.000000 -0.036073  0.097116  0.078242  0.005969
  3H   2py        0.000000 -0.000000 -0.099304  0.146356 -0.045173  0.010339
  3H   3pz       -1.091276  0.975042 -0.000000  0.000000 -0.000000 -0.000000
  3H   3px        0.000000 -0.000000 -1.815951  0.467321 -1.029299 -0.652020
  3H   3py        0.000000 -0.000000 -0.517503  2.368895  0.594278 -1.129332
  3H   1dz2      -0.000000  0.000000  0.008068 -0.013594 -0.000000  0.013372
  3H   1dxz      -0.010615  0.004332  0.000000  0.000000 -0.000000  0.000000
  3H   1dyz      -0.006618  0.007503 -0.000000 -0.000000  0.000000  0.000000
  3H   1dx2y2    -0.000000  0.000000  0.001375 -0.033978  0.000774  0.014335
  3H   1dxy       0.000000 -0.000000 -0.034472  0.039808  0.000447 -0.024829
                     18        19        20        21        22        23   
                   0.86553   0.86553   0.86888   0.92252   0.92252   1.04535
                   0.00000   0.00000   0.00000   0.00000   0.00000   0.00000
                  --------  --------  --------  --------  --------  --------
  0N   1s         0.000000  0.000006 -0.076001 -0.000000 -0.000000  0.000000
  0N   2s         0.000000  0.000012 -0.147726 -0.000000 -0.000000  0.000001
  0N   1pz       -0.000000  0.000000  0.000000  0.000000 -0.000000 -0.000000
  0N   1px       -0.000033  0.089959  0.000007 -0.000000  0.000000 -0.152849
  0N   1py        0.089959  0.000033  0.000000  0.000000  0.000000 -0.000010
  0N   3s        -0.000000 -0.000039  0.481971  0.000000  0.000000 -0.000004
  0N   2pz       -0.000000  0.000000 -0.000000  0.000000  0.000000 -0.000000
  0N   2px       -0.000133  0.364724  0.000031 -0.000000  0.000000 -0.221805
  0N   2py        0.364722  0.000133  0.000000  0.000000  0.000000 -0.000014
  0N   4s        -0.000001 -0.000388  5.101540  0.000000  0.000000  0.000059
  0N   3pz        0.000000 -0.000000  0.000000 -0.000000  0.000005  0.000000
  0N   3px       -0.000915  2.504818  0.000210 -0.000000  0.000000  6.397255
  0N   3py        2.504830  0.000915  0.000001  0.000000  0.000000  0.000401
  0N   1dz2       0.000000  0.000000 -0.000367 -0.000000  0.000000  0.000000
  0N   1dxz       0.000000 -0.000000 -0.000000 -0.000011  0.017508 -0.000000
  0N   1dyz      -0.000000 -0.000000 -0.000000  0.017508  0.000011 -0.000000
  0N   1dx2y2     0.000007 -0.018073 -0.000002  0.000000 -0.000000 -0.016460
  0N   1dxy       0.018073  0.000007  0.000000  0.000000  0.000000  0.000001
  0N   2dz2       0.000000  0.000001 -0.021297  0.000000 -0.000000 -0.000001
  0N   2dxz      -0.000000  0.000000  0.000000  0.000006 -0.009185  0.000000
  0N   2dyz       0.000000  0.000000  0.000000 -0.009185 -0.000006  0.000000
  0N   2dx2y2    -0.000013  0.036442  0.000004 -0.000000  0.000000  0.158407
  0N   2dxy      -0.036441 -0.000013 -0.000000 -0.000000 -0.000000 -0.000010
  0N   3dz2       0.000000  0.000106 -1.153867 -0.000000  0.000000 -0.000004
  0N   3dxz       0.000000 -0.000000 -0.000000 -0.001257  1.975481  0.000000
  0N   3dyz      -0.000000 -0.000000 -0.000000  1.975474  0.001257  0.000000
  0N   3dx2y2     0.000507 -1.387747 -0.000122  0.000000 -0.000000  1.757130
  0N   3dxy       1.387730  0.000507  0.000000  0.000000  0.000000 -0.000110
  0N   1f0       -0.000000  0.000000 -0.000000  0.000000 -0.000000 -0.000000
  0N   1f+1       0.000006 -0.015299 -0.000001 -0.000000  0.000000 -0.079576
  0N   1f-1      -0.015299 -0.000006 -0.000000  0.000000  0.000000 -0.000005
  0N   1f+2       0.000000 -0.000000 -0.000000 -0.000018  0.027636  0.000000
  0N   1f-2       0.000000  0.000000  0.000000 -0.027636 -0.000018 -0.000000
  0N   1f+3       0.000000  0.000003 -0.042654  0.000000 -0.000000 -0.000001
  0N   1f-3      -0.000000 -0.000000  0.000000 -0.000000 -0.000000 -0.000000
  1H   1s         0.000031 -0.085438 -0.035938  0.000000 -0.000000 -0.013327
  1H   2s         0.000410 -1.119371 -2.237745  0.000000 -0.000000 -4.674293
  1H   3s         0.000754 -2.063479 -0.040611  0.000000 -0.000000 -1.507697
  1H   1pz       -0.000000  0.000000 -0.000000 -0.000005  0.007135 -0.000000
  1H   1px       -0.000002  0.004706 -0.004535  0.000000 -0.000000 -0.025684
  1H   1py        0.008802  0.000003  0.000000  0.000000  0.000000 -0.000000
  1H   2pz       -0.000000  0.000000  0.000000  0.000017 -0.027365  0.000000
  1H   2px       -0.000008  0.021273  0.050196 -0.000000  0.000000  0.471238
  1H   2py       -0.004287 -0.000002 -0.000000  0.000000  0.000000  0.000002
  1H   3pz       -0.000000  0.000000  0.000000  0.001016 -1.597585 -0.000000
  1H   3px       -0.000786  2.150728  0.686159 -0.000000  0.000000  0.468951
  1H   3py       -0.900977 -0.000329 -0.000000 -0.000000 -0.000000 -0.000033
  1H   1dz2      -0.000017  0.047369  0.024824 -0.000000  0.000000  0.018930
  1H   1dxz       0.000000 -0.000000 -0.000000 -0.000025  0.039084 -0.000000
  1H   1dyz       0.000000  0.000000  0.000000 -0.005080 -0.000003 -0.000000
  1H   1dx2y2     0.000023 -0.063869 -0.019527  0.000000 -0.000000 -0.041428
  1H   1dxy       0.026110  0.000010  0.000000  0.000000  0.000000  0.000001
  2H   1s        -0.074010  0.042696 -0.035927 -0.000000  0.000000  0.006662
  2H   2s        -0.969776  0.559611 -2.237603 -0.000000  0.000000  2.336869
  2H   3s        -1.787411  1.031079 -0.040358 -0.000000  0.000000  0.753758
  2H   1pz        0.000000 -0.000000 -0.000000  0.006181 -0.003563  0.000000
  2H   1px        0.001771  0.007778  0.002269  0.000000  0.000000 -0.007900
  2H   1py        0.005729  0.001776 -0.003928 -0.000000  0.000000  0.010266
  2H   2pz        0.000000 -0.000000  0.000000 -0.023707  0.013667 -0.000000
  2H   2px       -0.011069  0.002102 -0.025096 -0.000000  0.000000  0.140647
  2H   2py        0.014889 -0.011067  0.043468  0.000000 -0.000000 -0.190833
  2H   3pz        0.000000 -0.000000  0.000000 -1.384050  0.797911  0.000000
  2H   3px       -1.321399 -0.138498 -0.343010 -0.000000 -0.000000 -0.280585
  2H   3py        1.388330 -1.320985  0.593966  0.000000 -0.000000 -0.432713
  2H   1dz2       0.041033 -0.023672  0.024817  0.000000 -0.000000 -0.009464
  2H   1dxz       0.000000 -0.000000  0.000000 -0.019127  0.005949 -0.000000
  2H   1dyz      -0.000000  0.000000 -0.000000  0.028055 -0.019105  0.000000
  2H   1dx2y2     0.016363 -0.035545  0.009757  0.000000 -0.000000 -0.026837
  2H   1dxy       0.054435 -0.016332  0.016905  0.000000 -0.000000 -0.008421
  3H   1s         0.073978  0.042750 -0.035927  0.000000  0.000000  0.006664
  3H   2s         0.969368  0.560320 -2.237603  0.000000  0.000000  2.337377
  3H   3s         1.786657  1.032385 -0.040357  0.000000  0.000000  0.753922
  3H   1pz       -0.000000 -0.000000 -0.000000 -0.006176 -0.003571  0.000000
  3H   1px       -0.001777  0.007777  0.002269 -0.000000  0.000000 -0.007901
  3H   1py        0.005730 -0.001772  0.003928 -0.000000 -0.000000 -0.010269
  3H   2pz       -0.000000 -0.000000  0.000000  0.023690  0.013697 -0.000000
  3H   2px        0.011068  0.002110 -0.025096  0.000000  0.000000  0.140671
  3H   2py        0.014881  0.011078 -0.043468  0.000000  0.000000  0.190878
  3H   3pz       -0.000000 -0.000000  0.000000  1.383034  0.799671  0.000000
  3H   3px        1.321500 -0.137532 -0.343009  0.000000 -0.000000 -0.280531
  3H   3py        1.387364  1.321999 -0.593966  0.000000  0.000000  0.432741
  3H   1dz2      -0.041015 -0.023702  0.024817 -0.000000 -0.000000 -0.009466
  3H   1dxz      -0.000000 -0.000000  0.000000  0.019119  0.005973 -0.000000
  3H   1dyz      -0.000000 -0.000000  0.000000  0.028030  0.019141 -0.000000
  3H   1dx2y2    -0.016337 -0.035556  0.009757 -0.000000 -0.000000 -0.026838
  3H   1dxy       0.054423  0.016372 -0.016904  0.000000  0.000000  0.008426
                     24        25        26        27        28        29   
                   1.04535   1.10020   1.28057   1.28701   1.28701   1.93079
                   0.00000   0.00000   0.00000   0.00000   0.00000   0.00000
                  --------  --------  --------  --------  --------  --------
  0N   1s        -0.000000 -0.000000  0.073920 -0.000000 -0.000004 -0.000000
  0N   2s        -0.000000 -0.000000  0.128874 -0.000000 -0.000007 -0.000000
  0N   1pz       -0.000000  0.200553  0.000000  0.000000 -0.000000 -0.000000
  0N   1px        0.000010 -0.000000  0.000009  0.000040  0.169567  0.000000
  0N   1py       -0.152849 -0.000000  0.000000  0.169566 -0.000040 -0.000000
  0N   3s         0.000000  0.000000 -1.589971  0.000000  0.000084  0.000000
  0N   2pz       -0.000000  0.903599  0.000000  0.000000 -0.000000 -0.000000
  0N   2px        0.000014 -0.000000  0.000061  0.000261  1.095396  0.000000
  0N   2py       -0.221816 -0.000000  0.000000  1.095380 -0.000261 -0.000000
  0N   4s         0.000000 -0.000000 12.672919 -0.000002 -0.000556 -0.000000
  0N   3pz        0.000000 -2.975768  0.000000 -0.000000 -0.000000  0.000000
  0N   3px       -0.000401  0.000000  0.000200  0.001146  4.807158  0.000000
  0N   3py        6.397245  0.000000  0.000001  4.807130 -0.001146 -0.000000
  0N   1dz2       0.000000 -0.000000  0.030537 -0.000000 -0.000001  0.000000
  0N   1dxz       0.000000  0.000000 -0.000000 -0.000000 -0.000000  0.000006
  0N   1dyz      -0.000000 -0.000000 -0.000000 -0.000000  0.000000 -0.007711
  0N   1dx2y2     0.000001 -0.000000 -0.000000 -0.000002 -0.006446  0.000000
  0N   1dxy       0.016460  0.000000  0.000000  0.006446 -0.000002  0.000000
  0N   2dz2      -0.000000  0.000000 -0.305854  0.000000  0.000014 -0.000000
  0N   2dxz      -0.000000 -0.000000  0.000000  0.000000  0.000000  0.000181
  0N   2dyz       0.000000 -0.000000  0.000000  0.000000 -0.000000 -0.229561
  0N   2dx2y2    -0.000010 -0.000000  0.000012  0.000046  0.194663  0.000000
  0N   2dxy      -0.158405  0.000000 -0.000000 -0.194660  0.000046  0.000000
  0N   3dz2      -0.000000 -0.000000 -1.152614  0.000000  0.000047  0.000000
  0N   3dxz      -0.000000  0.000000  0.000000  0.000000  0.000000 -0.000499
  0N   3dyz       0.000000 -0.000000  0.000000  0.000000 -0.000000  0.632055
  0N   3dx2y2    -0.000110 -0.000000  0.000205  0.001000  4.193609  0.000000
  0N   3dxy      -1.757134  0.000000 -0.000001 -4.193631  0.001000  0.000000
  0N   1f0       -0.000000  0.032855 -0.000000 -0.000000  0.000000  0.000000
  0N   1f+1       0.000005 -0.000000 -0.000002 -0.000014 -0.058093 -0.000000
  0N   1f-1      -0.079575  0.000000 -0.000000 -0.058093  0.000014  0.000000
  0N   1f+2      -0.000000 -0.000000  0.000000  0.000000  0.000000 -0.000024
  0N   1f-2      -0.000000 -0.000000 -0.000000 -0.000000  0.000000 -0.030181
  0N   1f+3      -0.000000  0.000000 -0.241466  0.000000  0.000012 -0.000000
  0N   1f-3      -0.000000  0.000000 -0.000000  0.000000 -0.000000  0.000000
  1H   1s         0.000001  0.000000 -0.089954 -0.000001 -0.002520  0.000000
  1H   2s         0.000293  0.000000 -3.359603 -0.001562 -6.551267 -0.000000
  1H   3s         0.000095  0.000000 -1.123961 -0.000711 -2.983335 -0.000000
  1H   1pz        0.000000 -0.006710 -0.000000  0.000000  0.000000 -0.000052
  1H   1px        0.000002  0.000000 -0.024006 -0.000005 -0.020154  0.000000
  1H   1py       -0.001973  0.000000 -0.000000 -0.013426  0.000003 -0.000000
  1H   2pz       -0.000000  0.084781  0.000000 -0.000000 -0.000000  0.000798
  1H   2px       -0.000030 -0.000000  0.637759  0.000079  0.332688 -0.000000
  1H   2py        0.030468  0.000000  0.000000  0.097847 -0.000023  0.000000
  1H   3pz       -0.000000  0.876967  0.000000  0.000000  0.000000 -0.000146
  1H   3px       -0.000029 -0.000000  1.114809  0.000518  2.171663  0.000000
  1H   3py       -0.530395 -0.000000  0.000000  1.663631 -0.000397 -0.000000
  1H   1dz2      -0.000001 -0.000000  0.076118  0.000014  0.057444  0.000000
  1H   1dxz       0.000000 -0.031661 -0.000000 -0.000000 -0.000000 -0.000015
  1H   1dyz      -0.000000 -0.000000  0.000000 -0.000000  0.000000  0.044164
  1H   1dx2y2     0.000003  0.000000 -0.125477 -0.000027 -0.111326 -0.000000
  1H   1dxy       0.021974  0.000000 -0.000000 -0.046717  0.000011 -0.000000
  2H   1s        -0.011542  0.000000 -0.089954 -0.002186  0.001267 -0.000000
  2H   2s        -4.048175  0.000000 -3.359134 -5.672889  3.277191  0.000000
  2H   3s        -1.305749  0.000000 -1.123757 -2.583328  1.492364  0.000000
  2H   1pz       -0.000000 -0.006710 -0.000000  0.000000 -0.000000  0.057212
  2H   1px        0.010268 -0.000000  0.012002  0.002910 -0.015110 -0.000000
  2H   1py       -0.019757  0.000000 -0.020789 -0.018472  0.002919 -0.000000
  2H   2pz        0.000000  0.084780  0.000000 -0.000000  0.000000 -0.876052
  2H   2px       -0.190866  0.000000 -0.318864 -0.101664  0.156603  0.000000
  2H   2py        0.361053 -0.000000  0.552294  0.273971 -0.101793  0.000000
  2H   3pz       -0.000000  0.876964  0.000000  0.000000 -0.000000  0.160541
  2H   3px       -0.432718  0.000000 -0.557268 -0.219589  1.790721  0.000000
  2H   3py        0.219143 -0.000000  0.965361  2.044634 -0.220546 -0.000000
  2H   1dz2       0.016394 -0.000000  0.076114  0.049743 -0.028739 -0.000000
  2H   1dxz       0.000000  0.015831  0.000000  0.000000 -0.000000  0.011078
  2H   1dyz      -0.000000 -0.027420 -0.000000 -0.000000  0.000000  0.024915
  2H   1dx2y2     0.008425 -0.000000  0.062735  0.068437  0.007186 -0.000000
  2H   1dxy       0.036565 -0.000000  0.108658  0.071802 -0.068459 -0.000000
  3H   1s         0.011541  0.000000 -0.089954  0.002187  0.001266  0.000000
  3H   2s         4.047882  0.000000 -3.359132  5.674453  3.274485 -0.000000
  3H   3s         1.305655  0.000000 -1.123756  2.584040  1.491132 -0.000000
  3H   1pz        0.000000 -0.006710 -0.000000 -0.000000 -0.000000 -0.057160
  3H   1px       -0.010267 -0.000000  0.012002 -0.002917 -0.015108  0.000000
  3H   1py       -0.019756 -0.000000  0.020789 -0.018473 -0.002910 -0.000000
  3H   2pz       -0.000000  0.084780  0.000000  0.000000  0.000000  0.875254
  3H   2px        0.190848  0.000000 -0.318864  0.101738  0.156554 -0.000000
  3H   2py        0.361029  0.000000 -0.552294  0.274020  0.101662  0.000000
  3H   3pz        0.000000  0.876964  0.000000 -0.000000 -0.000000 -0.160395
  3H   3px        0.432753  0.000000 -0.557267  0.220443  1.790616 -0.000000
  3H   3py        0.219089  0.000000 -0.965360  2.044739  0.219571 -0.000000
  3H   1dz2      -0.016392 -0.000000  0.076114 -0.049757 -0.028715  0.000000
  3H   1dxz      -0.000000  0.015831  0.000000 -0.000000 -0.000000 -0.011138
  3H   1dyz      -0.000000  0.027420  0.000000 -0.000000 -0.000000  0.024933
  3H   1dx2y2    -0.008421 -0.000000  0.062735 -0.068434  0.007218  0.000000
  3H   1dxy       0.036563  0.000000 -0.108658  0.071835  0.068425 -0.000000
                     30        31        32        33        34        35   
                   1.93079   2.02511   2.05724   2.21609   2.21609   2.40458
                   0.00000   0.00000   0.00000   0.00000   0.00000   0.00000
                  --------  --------  --------  --------  --------  --------
  0N   1s         0.000000 -0.000000  0.000000 -0.000000  0.000000  0.047212
  0N   2s         0.000000 -0.000000  0.000000 -0.000000  0.000001  0.068700
  0N   1pz       -0.000000 -0.000000  0.179629  0.000000 -0.000000 -0.000000
  0N   1px       -0.000000 -0.000000 -0.000000 -0.000025  0.030047  0.000001
  0N   1py       -0.000000 -0.000001 -0.000000  0.030047  0.000025  0.000000
  0N   3s        -0.000000  0.000000 -0.000000  0.000000 -0.000007 -0.475056
  0N   2pz        0.000002 -0.000000  0.233914  0.000000 -0.000000  0.000000
  0N   2px       -0.000000 -0.000000  0.000000 -0.000028  0.033808  0.000012
  0N   2py       -0.000000  0.000001 -0.000000  0.033812  0.000028 -0.000000
  0N   4s        -0.000000 -0.000000  0.000000 -0.000000  0.000008  5.867121
  0N   3pz       -0.000001  0.000000 -0.329097  0.000000 -0.000000  0.000000
  0N   3px       -0.000000 -0.000000 -0.000000  0.001068 -1.275960  0.000014
  0N   3py       -0.000000 -0.000005 -0.000000 -1.275961 -0.001068 -0.000000
  0N   1dz2      -0.000000  0.000000  0.000000 -0.000000 -0.000000  0.006484
  0N   1dxz      -0.007711 -0.000000 -0.000000 -0.000000  0.000000 -0.000000
  0N   1dyz      -0.000006 -0.000000 -0.000000  0.000000  0.000000  0.000000
  0N   1dx2y2    -0.000000  0.000000 -0.000000  0.000005 -0.006245 -0.000000
  0N   1dxy       0.000000 -0.000000  0.000000  0.006245  0.000005 -0.000000
  0N   2dz2      -0.000000  0.000000 -0.000000 -0.000000 -0.000000 -0.745742
  0N   2dxz      -0.229560 -0.000000 -0.000000 -0.000000  0.000000  0.000000
  0N   2dyz      -0.000181 -0.000000 -0.000000  0.000000  0.000000  0.000000
  0N   2dx2y2    -0.000000  0.000000  0.000000  0.000342 -0.408230  0.000005
  0N   2dxy       0.000000 -0.000001 -0.000000  0.408228  0.000342  0.000000
  0N   3dz2       0.000000  0.000000  0.000000  0.000000 -0.000005  0.111383
  0N   3dxz       0.632062  0.000000  0.000001  0.000000 -0.000000  0.000000
  0N   3dyz       0.000499  0.000000  0.000000 -0.000000 -0.000000  0.000000
  0N   3dx2y2    -0.000000 -0.000000  0.000000 -0.001488  1.778750 -0.000001
  0N   3dxy       0.000000  0.000009  0.000000 -1.778741 -0.001488  0.000000
  0N   1f0       -0.000001 -0.000000  0.024889 -0.000000  0.000000 -0.000000
  0N   1f+1       0.000000 -0.000000 -0.000000 -0.000006  0.007343 -0.000001
  0N   1f-1       0.000000 -0.000000 -0.000000  0.007343  0.000006  0.000000
  0N   1f+2       0.030181  0.000000  0.000000  0.000000 -0.000000  0.000000
  0N   1f-2      -0.000024  0.000000 -0.000000  0.000000  0.000000 -0.000000
  0N   1f+3       0.000000  0.000000 -0.000000 -0.000000  0.000000 -0.123698
  0N   1f-3       0.000000 -0.057408 -0.000000  0.000001  0.000000 -0.000000
  1H   1s        -0.000000  0.000000  0.000000  0.000156 -0.186326  0.434094
  1H   2s         0.000000  0.000000 -0.000000 -0.000042  0.050153 -1.767391
  1H   3s         0.000000  0.000000 -0.000000 -0.000927  1.108157 -0.470521
  1H   1pz        0.066033 -0.000000  0.047211  0.000000 -0.000000 -0.000000
  1H   1px       -0.000000  0.000000 -0.000000  0.000009 -0.011003  0.013889
  1H   1py       -0.000000  0.047272  0.000000 -0.057989 -0.000049  0.000000
  1H   2pz       -1.011116  0.000000 -0.726271 -0.000000  0.000000  0.000000
  1H   2px        0.000000  0.000000  0.000000 -0.000220  0.262818 -0.142530
  1H   2py        0.000000 -0.783681 -0.000000  0.990579  0.000829 -0.000000
  1H   3pz        0.185286 -0.000000  0.370595 -0.000000  0.000000 -0.000000
  1H   3px       -0.000000 -0.000000  0.000000  0.000952 -1.137589  0.971070
  1H   3py       -0.000000  0.671194  0.000000  0.498155  0.000417  0.000000
  1H   1dz2      -0.000000 -0.000000  0.000000  0.000039 -0.046371  0.076278
  1H   1dxz       0.018511  0.000000 -0.058393 -0.000000  0.000000 -0.000000
  1H   1dyz       0.000035  0.000000 -0.000000 -0.000000 -0.000000  0.000000
  1H   1dx2y2     0.000000 -0.000000 -0.000000 -0.000116  0.138383 -0.203224
  1H   1dxy      -0.000000  0.004891 -0.000000  0.004071  0.000003 -0.000000
  2H   1s         0.000000  0.000001  0.000000 -0.161441  0.093028  0.434095
  2H   2s        -0.000000  0.000006 -0.000000  0.043455 -0.025047 -1.767357
  2H   3s        -0.000000  0.000004 -0.000000  0.960158 -0.553274 -0.470514
  2H   1pz       -0.032971  0.000000  0.047211 -0.000000  0.000000 -0.000000
  2H   1px       -0.000000 -0.040939  0.000000 -0.020307 -0.046260 -0.006945
  2H   1py       -0.000000 -0.023636 -0.000000 -0.022733 -0.020365  0.012029
  2H   2pz        0.504869 -0.000000 -0.726267  0.000000 -0.000000  0.000000
  2H   2px        0.000000  0.678687 -0.000000  0.314448  0.808905  0.071271
  2H   2py        0.000000  0.391841  0.000000  0.444501  0.315502 -0.123452
  2H   3pz       -0.092517 -0.000000  0.370594  0.000000 -0.000000 -0.000000
  2H   3px       -0.000000 -0.581276 -0.000000  0.708219  0.089811 -0.485535
  2H   3py        0.000000 -0.335602  0.000000 -0.729248  0.707687  0.840966
  2H   1dz2       0.000000 -0.000000  0.000000 -0.040177  0.023152  0.076277
  2H   1dxz       0.037760 -0.000000  0.029197 -0.000000  0.000000  0.000000
  2H   1dyz       0.011128 -0.000000 -0.050570  0.000000 -0.000000 -0.000000
  2H   1dx2y2     0.000000  0.004236  0.000000 -0.061711  0.031491  0.101610
  2H   1dxy       0.000000 -0.002445  0.000000 -0.102820  0.061598  0.175995
  3H   1s         0.000000 -0.000001  0.000000  0.161285  0.093298  0.434095
  3H   2s        -0.000000 -0.000006 -0.000000 -0.043413 -0.025120 -1.767357
  3H   3s        -0.000000 -0.000004 -0.000000 -0.959231 -0.554880 -0.470514
  3H   1pz       -0.033062 -0.000000  0.047211  0.000000  0.000000 -0.000000
  3H   1px       -0.000000  0.040939  0.000000  0.020384 -0.046226 -0.006945
  3H   1py        0.000000 -0.023636  0.000000 -0.022767  0.020326 -0.012029
  3H   2pz        0.506251  0.000000 -0.726267 -0.000000 -0.000000  0.000000
  3H   2px        0.000000 -0.678687 -0.000000 -0.315802  0.808378  0.071271
  3H   2py       -0.000000  0.391841 -0.000000  0.445029 -0.314757  0.123452
  3H   3pz       -0.092770  0.000000  0.370594 -0.000000 -0.000000 -0.000000
  3H   3px       -0.000000  0.581276 -0.000000 -0.708369  0.088626 -0.485535
  3H   3py       -0.000000 -0.335602 -0.000000 -0.728062 -0.708906 -0.840966
  3H   1dz2       0.000000  0.000000  0.000000  0.040139  0.023219  0.076277
  3H   1dxz       0.037742  0.000000  0.029197  0.000000  0.000000  0.000000
  3H   1dyz      -0.011089 -0.000000  0.050570  0.000000  0.000000  0.000000
  3H   1dx2y2     0.000000 -0.004236  0.000000  0.061658  0.031594  0.101610
  3H   1dxy      -0.000000 -0.002445 -0.000000 -0.102717 -0.061770 -0.175995
                     36        37        38        39        40        41   
                   2.49507   2.49507   2.87597   2.87597   2.91432   3.02987
                   0.00000   0.00000   0.00000   0.00000   0.00000   0.00000
                  --------  --------  --------  --------  --------  --------
  0N   1s        -0.000000 -0.000000 -0.000000 -0.000000  0.008897 -0.000000
  0N   2s        -0.000000  0.000000 -0.000000 -0.000000  0.063627 -0.000001
  0N   1pz        0.000000  0.000000  0.000000 -0.000001 -0.000000  0.000000
  0N   1px       -0.000339  0.272748 -0.000000 -0.000000 -0.000002  0.064284
  0N   1py        0.272747  0.000339  0.000000 -0.000000  0.000000  0.000027
  0N   3s         0.000000 -0.000005  0.000000  0.000000 -0.319299  0.000021
  0N   2pz       -0.000000 -0.000000 -0.000000  0.000001 -0.000000  0.000000
  0N   2px        0.000683 -0.549504  0.000000  0.000000 -0.000022  2.130906
  0N   2py       -0.549473 -0.000683 -0.000000  0.000000 -0.000000  0.000887
  0N   4s         0.000000 -0.000081  0.000000  0.000000 -7.176216 -0.000017
  0N   3pz        0.000000 -0.000000 -0.000000  0.000001 -0.000000  0.000000
  0N   3px        0.003100 -2.493101  0.000000  0.000000 -0.000038  6.023417
  0N   3py       -2.493045 -0.003100 -0.000000  0.000000 -0.000000  0.002508
  0N   1dz2      -0.000000 -0.000000  0.000000  0.000000 -0.023265 -0.000000
  0N   1dxz      -0.000000  0.000000 -0.000001 -0.012929  0.000000 -0.000000
  0N   1dyz       0.000000  0.000000  0.012929 -0.000001  0.000000 -0.000000
  0N   1dx2y2    -0.000005  0.003744  0.000000  0.000000  0.000000 -0.051468
  0N   1dxy      -0.003744 -0.000005  0.000000 -0.000000 -0.000000  0.000021
  0N   2dz2       0.000000  0.000005  0.000000  0.000000 -0.210123 -0.000003
  0N   2dxz       0.000000 -0.000000 -0.000088 -0.837084 -0.000000  0.000000
  0N   2dyz      -0.000000 -0.000000  0.837086 -0.000088  0.000000  0.000000
  0N   2dx2y2     0.000782 -0.629334  0.000000  0.000000 -0.000013  1.146077
  0N   2dxy       0.629323  0.000782  0.000000 -0.000000  0.000000 -0.000477
  0N   3dz2      -0.000000  0.000005 -0.000000 -0.000000  1.109810  0.000007
  0N   3dxz      -0.000000  0.000000  0.000099  0.941436  0.000000  0.000000
  0N   3dyz       0.000000  0.000000 -0.941434  0.000099 -0.000000  0.000000
  0N   3dx2y2     0.001086 -0.873192 -0.000000 -0.000000 -0.000012  1.306219
  0N   3dxy       0.873185  0.001086 -0.000000  0.000000  0.000000 -0.000544
  0N   1f0        0.000000  0.000000  0.000000 -0.000001  0.000000 -0.000000
  0N   1f+1      -0.000128  0.103037  0.000000  0.000000  0.000002 -0.247085
  0N   1f-1       0.103034  0.000128 -0.000000  0.000000  0.000000 -0.000103
  0N   1f+2      -0.000000  0.000000  0.000021  0.196313  0.000000  0.000000
  0N   1f-2      -0.000000 -0.000000  0.196312 -0.000021  0.000000 -0.000000
  0N   1f+3      -0.000000  0.000002 -0.000000 -0.000000  0.522710  0.000004
  0N   1f-3       0.000001  0.000000  0.000000 -0.000000  0.000000 -0.000000
  1H   1s         0.000652 -0.524321  0.000000  0.000000 -0.613487  0.814980
  1H   2s        -0.003969  3.192520 -0.000000 -0.000000  3.208816 -7.276915
  1H   3s        -0.001503  1.208755  0.000000  0.000000  0.207422 -1.651918
  1H   1pz        0.000000 -0.000000 -0.000003 -0.024968 -0.000000 -0.000000
  1H   1px        0.000006 -0.004864  0.000000  0.000000  0.003179 -0.098583
  1H   1py        0.040610  0.000050  0.000000 -0.000000 -0.000000  0.000002
  1H   2pz        0.000000 -0.000000  0.000033  0.312375 -0.000000  0.000000
  1H   2px       -0.000002  0.001506  0.000000  0.000000 -0.605860  2.127311
  1H   2py       -0.649428 -0.000807 -0.000000  0.000000 -0.000000 -0.000051
  1H   3pz        0.000000 -0.000000 -0.000084 -0.799488 -0.000000  0.000000
  1H   3px        0.001673 -1.345634  0.000000  0.000000 -0.616481  1.488649
  1H   3py        0.053601  0.000067  0.000000 -0.000000  0.000000 -0.000094
  1H   1dz2       0.000307 -0.246780  0.000000  0.000000 -0.220009  0.284258
  1H   1dxz      -0.000000  0.000000  0.000034  0.324715  0.000000 -0.000000
  1H   1dyz      -0.000000 -0.000000  0.171923 -0.000018  0.000000  0.000000
  1H   1dx2y2    -0.000343  0.276091 -0.000000 -0.000000  0.050815 -0.072436
  1H   1dxy      -0.184108 -0.000229 -0.000000  0.000000 -0.000000  0.000024
  2H   1s        -0.454396  0.261592 -0.000000 -0.000000 -0.613486 -0.407207
  2H   2s         2.766703 -1.592778  0.000000  0.000000  3.208729  3.635846
  2H   3s         1.047544 -0.603069 -0.000000 -0.000000  0.207410  0.825362
  2H   1pz       -0.000000  0.000000  0.021624  0.012482 -0.000000  0.000000
  2H   1px        0.019654  0.029266  0.000000 -0.000000 -0.001589 -0.020447
  2H   1py        0.006480  0.019699  0.000000 -0.000000  0.002752  0.045071
  2H   2pz       -0.000000  0.000000 -0.270542 -0.156159 -0.000000 -0.000000
  2H   2px       -0.281266 -0.487037 -0.000000  0.000000  0.302915  0.439826
  2H   2py       -0.160855 -0.282068 -0.000000  0.000000 -0.524661 -0.973380
  2H   3pz       -0.000000  0.000000  0.692416  0.399671 -0.000000 -0.000000
  2H   3px        0.606247 -0.295449  0.000000 -0.000000  0.308239  0.202998
  2H   3py       -0.996562  0.604639 -0.000000 -0.000000 -0.533879 -0.741659
  2H   1dz2      -0.213866  0.123122 -0.000000 -0.000000 -0.220007 -0.142030
  2H   1dxz      -0.000000 -0.000000  0.215045 -0.047786 -0.000000  0.000000
  2H   1dyz       0.000000 -0.000000 -0.200577 -0.215030  0.000000  0.000000
  2H   1dx2y2    -0.040083  0.207053  0.000000 -0.000000 -0.025406 -0.061716
  2H   1dxy      -0.253140  0.039513 -0.000000  0.000000 -0.044007 -0.006159
  3H   1s         0.453744  0.262721  0.000000 -0.000000 -0.613485 -0.407795
  3H   2s        -2.762733 -1.599653 -0.000000  0.000000  3.208729  3.641094
  3H   3s        -1.046041 -0.605672  0.000000 -0.000000  0.207410  0.826553
  3H   1pz        0.000000  0.000000 -0.021621  0.012486 -0.000000  0.000000
  3H   1px       -0.019727  0.029217 -0.000000 -0.000000 -0.001589 -0.020485
  3H   1py        0.006529 -0.019682  0.000000  0.000000 -0.002752 -0.045131
  3H   2pz        0.000000  0.000000  0.270509 -0.156216 -0.000000 -0.000000
  3H   2px        0.282476 -0.486336  0.000000  0.000000  0.302915  0.440637
  3H   2py       -0.161556  0.281667 -0.000000 -0.000000  0.524661  0.974683
  3H   3pz        0.000000  0.000000 -0.692332  0.399817 -0.000000 -0.000000
  3H   3px       -0.605510 -0.296956 -0.000000 -0.000000  0.308239  0.203616
  3H   3py       -0.995055 -0.607115 -0.000000  0.000000  0.533879  0.742542
  3H   1dz2       0.213560  0.123654  0.000000 -0.000000 -0.220007 -0.142235
  3H   1dxz       0.000000 -0.000000 -0.215056 -0.047740 -0.000000  0.000000
  3H   1dyz       0.000000  0.000000 -0.200532  0.215072 -0.000000 -0.000000
  3H   1dx2y2     0.039569  0.207152 -0.000000 -0.000000 -0.025406 -0.061721
  3H   1dxy      -0.253040 -0.040142 -0.000000 -0.000000  0.044007  0.006216
                     42        43        44        45        46        47   
                   3.02987   3.24005   3.33907   3.33907   3.37745   3.41610
                   0.00000   0.00000   0.00000   0.00000   0.00000   0.00000
                  --------  --------  --------  --------  --------  --------
  0N   1s         0.000000  0.048997 -0.000000  0.000000  0.000000 -0.000000
  0N   2s         0.000000  0.123120 -0.000000 -0.000000  0.000000 -0.000000
  0N   1pz       -0.000000 -0.000000  0.000000  0.000000 -0.000000  0.000001
  0N   1px       -0.000027  0.000005  0.355909 -0.000189 -0.000000 -0.000000
  0N   1py        0.064287 -0.000000  0.000189  0.355906  0.000000 -0.000000
  0N   3s        -0.000000 -0.471079 -0.000012  0.000000 -0.000000  0.000000
  0N   2pz        0.000000 -0.000000 -0.000000 -0.000000  0.000000 -0.000001
  0N   2px       -0.000887 -0.000030 -1.741782  0.000925 -0.000000  0.000000
  0N   2py        2.130850 -0.000000 -0.000925 -1.741766 -0.000000  0.000000
  0N   4s        -0.000000 -8.394922  0.000028  0.000000 -0.000000  0.000000
  0N   3pz       -0.000000 -0.000000  0.000000  0.000000  0.000000  0.000004
  0N   3px       -0.002508 -0.000046 -4.653071  0.002471 -0.000000  0.000000
  0N   3py        6.023359 -0.000000 -0.002471 -4.653094 -0.000000  0.000000
  0N   1dz2      -0.000000 -0.025874  0.000000 -0.000000 -0.000000  0.000000
  0N   1dxz       0.000000  0.000000  0.000000 -0.000000 -0.000000  0.015784
  0N   1dyz      -0.000000  0.000000  0.000000  0.000000 -0.000000  0.000035
  0N   1dx2y2     0.000021  0.000001  0.057544 -0.000031 -0.000000 -0.000000
  0N   1dxy       0.051467 -0.000000 -0.000031 -0.057544 -0.000000  0.000000
  0N   2dz2      -0.000000  0.699566 -0.000003 -0.000000  0.000000 -0.000000
  0N   2dxz      -0.000000 -0.000000 -0.000000  0.000000  0.000000 -0.046290
  0N   2dyz       0.000000 -0.000000 -0.000000 -0.000000  0.000000 -0.000104
  0N   2dx2y2    -0.000477 -0.000004 -0.259597  0.000138 -0.000000 -0.000000
  0N   2dxy      -1.146071  0.000000  0.000138  0.259600  0.000000  0.000000
  0N   3dz2       0.000000  0.489144  0.000002 -0.000000  0.000000  0.000000
  0N   3dxz      -0.000000 -0.000000 -0.000000  0.000000 -0.000000  0.478732
  0N   3dyz       0.000000 -0.000000 -0.000000 -0.000000 -0.000006  0.001076
  0N   3dx2y2    -0.000544 -0.000042 -2.699693  0.001433 -0.000000 -0.000000
  0N   3dxy      -1.306208 -0.000000  0.001433  2.699710  0.000000  0.000000
  0N   1f0       -0.000000  0.000000  0.000000  0.000000 -0.000000  0.000001
  0N   1f+1       0.000103  0.000005  0.434094 -0.000230  0.000000  0.000000
  0N   1f-1      -0.247079  0.000000  0.000230  0.434096  0.000000  0.000000
  0N   1f+2      -0.000000 -0.000000 -0.000000  0.000000 -0.000000  0.199116
  0N   1f-2      -0.000000  0.000000  0.000000  0.000000  0.000003 -0.000447
  0N   1f+3       0.000000  0.244213 -0.000001 -0.000000  0.000000 -0.000000
  0N   1f-3      -0.000003 -0.000000  0.000000  0.000001  0.000000 -0.000000
  1H   1s        -0.000339 -0.366593 -0.850424  0.000452 -0.000000  0.000000
  1H   2s         0.003031  3.251293  6.710776 -0.003563  0.000000 -0.000000
[...]
                            *     ORCA property calculations      *
                            ***************************************

                                    ---------------------
                                    Active property flags
                                    ---------------------
   (+) Dipole Moment


------------------------------------------------------------------------------
                       ORCA ELECTRIC PROPERTIES CALCULATION
------------------------------------------------------------------------------

Dipole Moment Calculation                       ... on
Quadrupole Moment Calculation                   ... off
Polarizability Calculation                      ... off
GBWName                                         ... NH3‡.gbw
Electron density file                           ... NH3‡.scfp
The origin for moment calculation is the CENTER OF MASS  = ( 0.000000, -0.000000  0.000000)

-------------
DIPOLE MOMENT
-------------
                                X             Y             Z
Electronic contribution:      0.00000      -0.00000       0.00000
Nuclear contribution   :     -0.00000       0.00000      -0.00000
                        -----------------------------------------
Total Dipole Moment    :      0.00000       0.00000      -0.00000
                        -----------------------------------------
Magnitude (a.u.)       :      0.00000
Magnitude (Debye)      :      0.00000



--------------------
Rotational spectrum 
--------------------
 
Rotational constants in cm-1:    11.278536    11.278536     5.639268 
Rotational constants in MHz : 338121.995286 338121.993488 169060.997193 

 Dipole components along the rotational axes: 
x,y,z [a.u.] :    -0.000000     0.000000    -0.000000 
x,y,z [Debye]:    -0.000000     0.000000    -0.000000 

 

                         *** MP2 UNRELAXED DENSITY ***

------------------------------------------------------------------------------
                       ORCA ELECTRIC PROPERTIES CALCULATION
------------------------------------------------------------------------------

Dipole Moment Calculation                       ... on
Quadrupole Moment Calculation                   ... off
Polarizability Calculation                      ... off
GBWName                                         ... NH3‡.gbw
Electron density file                           ... NH3‡.pmp2ur
The origin for moment calculation is the CENTER OF MASS  = ( 0.000000, -0.000000  0.000000)

-------------
DIPOLE MOMENT
-------------
                                X             Y             Z
Electronic contribution:      0.00000      -0.00000       0.00000
Nuclear contribution   :     -0.00000       0.00000      -0.00000
                        -----------------------------------------
Total Dipole Moment    :      0.00000      -0.00000      -0.00000
                        -----------------------------------------
Magnitude (a.u.)       :      0.00000
Magnitude (Debye)      :      0.00000



--------------------
Rotational spectrum 
--------------------
 
Rotational constants in cm-1:    11.278536    11.278536     5.639268 
Rotational constants in MHz : 338121.995286 338121.993488 169060.997193 

 Dipole components along the rotational axes: 
x,y,z [a.u.] :    -0.000000     0.000000    -0.000000 
x,y,z [Debye]:    -0.000000     0.000000    -0.000000 

 

                           *** MP2 RELAXED DENSITY ***

------------------------------------------------------------------------------
                       ORCA ELECTRIC PROPERTIES CALCULATION
------------------------------------------------------------------------------

Dipole Moment Calculation                       ... on
Quadrupole Moment Calculation                   ... off
Polarizability Calculation                      ... off
GBWName                                         ... NH3‡.gbw
Electron density file                           ... NH3‡.pmp2re
The origin for moment calculation is the CENTER OF MASS  = ( 0.000000, -0.000000  0.000000)

-------------
DIPOLE MOMENT
-------------
                                X             Y             Z
Electronic contribution:      0.00000      -0.00000       0.00000
Nuclear contribution   :     -0.00000       0.00000      -0.00000
                        -----------------------------------------
Total Dipole Moment    :      0.00000      -0.00000      -0.00000
                        -----------------------------------------
Magnitude (a.u.)       :      0.00000
Magnitude (Debye)      :      0.00000



--------------------
Rotational spectrum 
--------------------
 
Rotational constants in cm-1:    11.278536    11.278536     5.639268 
Rotational constants in MHz : 338121.995286 338121.993488 169060.997193 

 Dipole components along the rotational axes: 
x,y,z [a.u.] :    -0.000000     0.000000    -0.000000 
x,y,z [Debye]:    -0.000000     0.000000    -0.000000 

 
------------------------------------------------------------------------------
                         ORCA MP2 H E S S I A N CALCULATION
------------------------------------------------------------------------------

Calculating analytic MP2 second derivatives ... (>NH3‡.last_mp2) done

-----------------------
VIBRATIONAL FREQUENCIES
-----------------------

Scaling factor for frequencies =  1.000000000  (already applied!)

   0:         0.00 cm**-1
   1:         0.00 cm**-1
   2:         0.00 cm**-1
   3:         0.00 cm**-1
   4:         0.00 cm**-1
   5:         0.00 cm**-1
   6:      -857.86 cm**-1 ***imaginary mode***
   7:      1587.72 cm**-1
   8:      1587.75 cm**-1
   9:      3684.73 cm**-1
  10:      3906.03 cm**-1
  11:      3906.04 cm**-1


------------
NORMAL MODES
------------

These modes are the Cartesian displacements weighted by the diagonal matrix
M(i,i)=1/sqrt(m[i]) where m[i] is the mass of the displaced atom
Thus, these vectors are normalized but *not* orthogonal

                  0          1          2          3          4          5    
      0       0.000000   0.000000   0.000000   0.000000   0.000000   0.000000
      1       0.000000   0.000000   0.000000   0.000000   0.000000   0.000000
      2       0.000000   0.000000   0.000000   0.000000   0.000000   0.000000
      3       0.000000   0.000000   0.000000   0.000000   0.000000   0.000000
      4       0.000000   0.000000   0.000000   0.000000   0.000000   0.000000
      5       0.000000   0.000000   0.000000   0.000000   0.000000   0.000000
      6       0.000000   0.000000   0.000000   0.000000   0.000000   0.000000
      7       0.000000   0.000000   0.000000   0.000000   0.000000   0.000000
      8       0.000000   0.000000   0.000000   0.000000   0.000000   0.000000
      9       0.000000   0.000000   0.000000   0.000000   0.000000   0.000000
     10       0.000000   0.000000   0.000000   0.000000   0.000000   0.000000
     11       0.000000   0.000000   0.000000   0.000000   0.000000   0.000000
                  6          7          8          9         10         11    
      0      -0.000000  -0.000051   0.080635   0.000001   0.000093   0.086187
      1       0.000000   0.080634   0.000051   0.000000  -0.086188   0.000093
      2      -0.123688   0.000000  -0.000000   0.000000  -0.000000   0.000000
      3       0.000000  -0.000041   0.064303   0.577337  -0.000876  -0.813331
      4      -0.000000  -0.811293  -0.000515  -0.000000  -0.014885   0.000016
      5       0.572917  -0.000000   0.000000  -0.000000   0.000000   0.000000
      6       0.000000  -0.378771  -0.592637  -0.288676  -0.358831  -0.191769
      7       0.000000  -0.154350  -0.379240   0.500007   0.606656   0.357966
      8       0.572917   0.000000   0.000000  -0.000000  -0.000000  -0.000000
      9       0.000000   0.379524  -0.592155  -0.288676   0.358417  -0.192541
     10      -0.000000  -0.154831   0.379044  -0.500007   0.605884  -0.359273
     11       0.572917  -0.000000   0.000000  -0.000000   0.000000  -0.000000


-----------
IR SPECTRUM
-----------

 Mode    freq (cm**-1)   T**2         TX         TY         TZ
-------------------------------------------------------------------
   7:      1587.72   24.187895  (  0.003125  -4.918118  -0.000000)
   8:      1587.75   24.208907  ( -4.920254  -0.003124   0.000001)
   9:      3684.73    0.000000  ( -0.000017   0.000000   0.000000)
  10:      3906.03   48.517426  ( -0.007506   6.965441   0.000000)
  11:      3906.04   48.519378  ( -6.965581  -0.007506  -0.000000)

The first frequency considered to be a vibration is 7
The total number of vibrations considered is 5


--------------------------
THERMOCHEMISTRY AT 298.15K
--------------------------

Temperature         ... 298.15 K
Pressure            ... 1.00 atm
Total Mass          ... 17.03 AMU

Throughout the following assumptions are being made:
  (1) The electronic state is orbitally nondegenerate
  (2) There are no thermally accessible electronically excited states
  (3) Hindered rotations indicated by low frequency modes are not
      treated as such but are treated as vibrations and this may
      cause some error
  (4) All equations used are the standard statistical mechanics
      equations for an ideal gas
  (5) All vibrations are strictly harmonic

freq.    1587.72  E(vib)   ...       0.00 
freq.    1587.75  E(vib)   ...       0.00 
freq.    3684.73  E(vib)   ...       0.00 
freq.    3906.03  E(vib)   ...       0.00 
freq.    3906.04  E(vib)   ...       0.00 

------------
INNER ENERGY
------------

The inner energy is: U= E(el) + E(ZPE) + E(vib) + E(rot) + E(trans)
    E(el)   - is the total energy from the electronic structure calculation
              = E(kin-el) + E(nuc-el) + E(el-el) + E(nuc-nuc)
    E(ZPE)  - the the zero temperature vibrational energy from the frequency calculation
    E(vib)  - the the finite temperature correction to E(ZPE) due to population
              of excited vibrational states
    E(rot)  - is the rotational thermal energy
    E(trans)- is the translational thermal energy

Summary of contributions to the inner energy U:
Electronic energy                ...    -56.46744474 Eh
Zero point energy                ...      0.03342592 Eh      20.98 kcal/mol
Thermal vibrational correction   ...      0.00000681 Eh       0.00 kcal/mol
Thermal rotational correction    ...      0.00141627 Eh       0.89 kcal/mol
Thermal translational correction ...      0.00141627 Eh       0.89 kcal/mol
-----------------------------------------------------------------------
Total thermal energy                    -56.43117947 Eh


Summary of corrections to the electronic energy:
(perhaps to be used in another calculation)
Total thermal correction                  0.00283935 Eh       1.78 kcal/mol
Non-thermal (ZPE) correction              0.03342592 Eh      20.98 kcal/mol
-----------------------------------------------------------------------
Total correction                          0.03626527 Eh      22.76 kcal/mol


--------
ENTHALPY
--------

The enthalpy is H = U + kB*T
                kB is Boltzmann's constant
Total free energy                 ...    -56.43117947 Eh 
Thermal Enthalpy correction       ...      0.00094421 Eh       0.59 kcal/mol
-----------------------------------------------------------------------
Total Enthalpy                    ...    -56.43023526 Eh


Note: Rotational entropy computed according to Herzberg 
Infrared and Raman Spectra, Chapter V,1, Van Nostrand Reinhold, 1945 
Point Group:  D3h, Symmetry Number:   6  
Rotational constants in cm-1:    11.278536    11.278536     5.639268 

Vibrational entropy computed according to the QRRHO of S. Grimme
Chem.Eur.J. 2012 18 9955


-------
ENTROPY
-------

The entropy contributions are T*S = T*(S(el)+S(vib)+S(rot)+S(trans))
     S(el)   - electronic entropy
     S(vib)  - vibrational entropy
     S(rot)  - rotational entropy
     S(trans)- translational entropy
The entropies will be listed as mutliplied by the temperature to get
units of energy

Electronic entropy                ...      0.00000000 Eh      0.00 kcal/mol
Vibrational entropy               ...      0.00000770 Eh      0.00 kcal/mol
Rotational entropy                ...      0.00471481 Eh      2.96 kcal/mol
Translational entropy             ...      0.01636425 Eh     10.27 kcal/mol
-----------------------------------------------------------------------
Final entropy term                ...      0.02108676 Eh     13.23 kcal/mol

In case the symmetry of your molecule has not been determined correctly
or in case you have a reason to use a different symmetry number we print 
out the resulting rotational entropy values for sn=1,12 :
 --------------------------------------------------------
|  sn= 1 | S(rot)=       0.00640655 Eh      4.02 kcal/mol|
|  sn= 2 | S(rot)=       0.00575210 Eh      3.61 kcal/mol|
|  sn= 3 | S(rot)=       0.00536926 Eh      3.37 kcal/mol|
|  sn= 4 | S(rot)=       0.00509764 Eh      3.20 kcal/mol|
|  sn= 5 | S(rot)=       0.00488695 Eh      3.07 kcal/mol|
|  sn= 6 | S(rot)=       0.00471481 Eh      2.96 kcal/mol|
|  sn= 7 | S(rot)=       0.00456926 Eh      2.87 kcal/mol|
|  sn= 8 | S(rot)=       0.00444318 Eh      2.79 kcal/mol|
|  sn= 9 | S(rot)=       0.00433197 Eh      2.72 kcal/mol|
|  sn=10 | S(rot)=       0.00423250 Eh      2.66 kcal/mol|
|  sn=11 | S(rot)=       0.00414251 Eh      2.60 kcal/mol|
|  sn=12 | S(rot)=       0.00406035 Eh      2.55 kcal/mol|
 --------------------------------------------------------


-------------------
GIBBS FREE ENERGY
-------------------

The Gibbs free energy is G = H - T*S

Total enthalpy                    ...    -56.43023526 Eh 
Total entropy correction          ...     -0.02108676 Eh    -13.23 kcal/mol
-----------------------------------------------------------------------
Final Gibbs free energy         ...    -56.45132202 Eh

For completeness - the Gibbs free energy minus the electronic energy
G-E(el)                           ...      0.01612272 Eh     10.12 kcal/mol




------------------------------------------------------------------------------- 
                    Intrinsic Reaction Coordinate Calculation                  
------------------------------------------------------------------------------- 

System:
Nr. of atoms                        .... 4
Algorithm: SD (steepest descent step) plus correction
Settings:
Max. no of cycles        MaxIter    .... 1000
Direction                           .... Forward and backward
Initial displacement Hessian type   .... Read
Hessian Filename                    .... NH3‡.hess
Following Hessian mode              .... 0
Initial displacement type           .... Energy
  Initial displacement energy change.... 0.250 mEh
Coordinate system following type    .... Cartesian
Length of steepest descent step     .... 0.150 bohr
Do parabolic fit 
  if SD step is uphill              .... YES
Do Correction to SD step            .... YES
Scaling for length of correction
  compared to SD step               .... 0.333
Do parabolic fit to SD correction   .... YES
Only interpolate for parabolic fit  .... YES
Do update to length of
  SD step and correction            .... YES
Convergence Tolerances:
  Max. Gradient            TolMAXG  ....  1.0000e-03 Eh/bohr
  RMS Gradient             TolRMSG  ....  2.0000e-04 Eh/bohr
Storing full IRC trajectory in      .... NH3‡_IRC_Full_trj.xyz
Storing forward trajectory in       .... NH3‡_IRC_F_trj.xyz
Storing backward trajectory in      .... NH3‡_IRC_B_trj.xyz


 ...good, the file NH3‡.hess exists
Reading the hessian file           ...... done
Determining length of initial displacement:
  Requested energy change (quadratic behavior): 0.250 mEh
  Resulting scaling factor for initial displacement along normalized TS mode: 0.1220

         *************************************************************
         *                          FORWARD IRC                      *
         *************************************************************

Iteration    E(Eh)      dE(kcal/mol)  max(|G|)   RMS(G) 
Convergence thresholds                0.001000  0.000200            
    0       -56.467691   -0.154394    0.005697  0.001944
    1       -56.470522   -1.930851    0.015558  0.008593
    2       -56.473068   -3.528666    0.015703  0.005580
    3       -56.475410   -4.998268    0.006738  0.003825
    4       -56.475909   -5.311668    0.004365  0.002405
    5       -56.476182   -5.482579    0.001280  0.000475
    6       -56.476188   -5.486518    0.001865  0.000777
    7       -56.476191   -5.488367    0.000905  0.000413
    8       -56.476192   -5.489030    0.000503  0.000239
    9       -56.476193   -5.489426    0.000368  0.000160

                      ***********************HURRAY********************
                      ***            THE IRC HAS CONVERGED          ***
                      *************************************************


         *************************************************************
         *                          BACKWARD IRC                     *
         *************************************************************

Iteration    E(Eh)      dE(kcal/mol)  max(|G|)   RMS(G) 
Convergence thresholds                0.001000  0.000200            
    0       -56.467691   -0.154394    0.005697  0.001944
    1       -56.470522   -1.930853    0.015558  0.008593
    2       -56.473068   -3.528668    0.015703  0.005580
    3       -56.475410   -4.998269    0.006737  0.003825
    4       -56.475909   -5.311669    0.004358  0.002405
    5       -56.476182   -5.482590    0.001279  0.000471
    6       -56.476188   -5.486530    0.001744  0.000778
    7       -56.476191   -5.488425    0.000871  0.000424
    8       -56.476192   -5.489112    0.000538  0.000244
    9       -56.476193   -5.489483    0.000379  0.000158

                      ***********************HURRAY********************
                      ***            THE IRC HAS CONVERGED          ***
                      *************************************************


---------------------------------------------------------------
                       IRC PATH SUMMARY              
---------------------------------------------------------------
All gradients are in Eh/Bohr.

Step        E(Eh)      dE(kcal/mol)  max(|G|)   RMS(G) 
   1       -56.476193   -5.489483    0.000379  0.000158
   2       -56.476192   -5.489112    0.000538  0.000244
   3       -56.476191   -5.488425    0.000871  0.000424
   4       -56.476188   -5.486530    0.001744  0.000778
   5       -56.476182   -5.482590    0.001279  0.000471
   6       -56.475909   -5.311669    0.004358  0.002405
   7       -56.475410   -4.998269    0.006737  0.003825
   8       -56.473068   -3.528668    0.015703  0.005580
   9       -56.470522   -1.930853    0.015558  0.008593
  10       -56.467691   -0.154394    0.005697  0.001944
  11       -56.467445    0.000000    0.000010  0.000005 <= TS
  12       -56.467691   -0.154394    0.005697  0.001944
  13       -56.470522   -1.930851    0.015558  0.008593
  14       -56.473068   -3.528666    0.015703  0.005580
  15       -56.475410   -4.998268    0.006738  0.003825
  16       -56.475909   -5.311668    0.004365  0.002405
  17       -56.476182   -5.482579    0.001280  0.000475
  18       -56.476188   -5.486518    0.001865  0.000777
  19       -56.476191   -5.488367    0.000905  0.000413
  20       -56.476192   -5.489030    0.000503  0.000239
  21       -56.476193   -5.489426    0.000368  0.000160

Timings for individual modules:

Sum of individual times         ...      642.674 sec (=  10.711 min)
GTO integral calculation        ...       71.835 sec (=   1.197 min)  11.2 %
SCF iterations                  ...      248.136 sec (=   4.136 min)  38.6 %
MP2 module                      ...      293.971 sec (=   4.900 min)  45.7 %
Geometry relaxation             ...        0.116 sec (=   0.002 min)   0.0 %
Analytical frequency calculation...       28.616 sec (=   0.477 min)   4.5 %
                             ****ORCA TERMINATED NORMALLY****
TOTAL RUN TIME: 0 days 0 hours 11 minutes 15 seconds 262 msec
