
                                 *****************
                                 * O   R   C   A *
                                 *****************

           --- An Ab Initio, DFT and Semiempirical electronic structure package ---

                  #######################################################
                  #                        -***-                        #
                  #          Department of theory and spectroscopy      #
                  #               Directorship: Frank Neese             #
                  #        Max Planck Institute fuer Kohlenforschung    #
                  #                Kaiser Wilhelm Platz 1               #
                  #                 D-45470 Muelheim/Ruhr               #
                  #                      Germany                        #
                  #                                                     #
                  #                  All rights reserved                #
                  #                        -***-                        #
                  #######################################################


                         Program Version 4.2.1 -  RELEASE  -


 With contributions from (in alphabetic order):
   Daniel Aravena         : Magnetic Suceptibility
   Michael Atanasov       : Ab Initio Ligand Field Theory (pilot matlab implementation)
   Alexander A. Auer      : GIAO ZORA, VPT2
   Ute Becker             : Parallelization
   Giovanni Bistoni       : ED, misc. LED, open-shell LED, HFLD
   Martin Brehm           : Molecular dynamics
   Dmytro Bykov           : SCF Hessian
   Vijay G. Chilkuri      : MRCI spin determinant printing, contributions to CSF-ICE
   Dipayan Datta          : RHF DLPNO-CCSD density
   Achintya Kumar Dutta   : EOM-CC, STEOM-CC
   Dmitry Ganyushin       : Spin-Orbit,Spin-Spin,Magnetic field MRCI
   Miquel Garcia          : C-PCM Hessian, Gaussian charge scheme
   Yang Guo               : DLPNO-NEVPT2, CIM, IAO-localization
   Andreas Hansen         : Spin unrestricted coupled pair/coupled cluster methods
   Benjamin Helmich-Paris : CASSCF linear response (MC-RPA)
   Lee Huntington         : MR-EOM, pCC
   Robert Izsak           : Overlap fitted RIJCOSX, COSX-SCS-MP3, EOM
   Christian Kollmar      : KDIIS, OOCD, Brueckner-CCSD(T), CCSD density
   Simone Kossmann        : Meta GGA functionals, TD-DFT gradient, OOMP2, MP2 Hessian
   Martin Krupicka        : AUTO-CI
   Lucas Lang             : DCDCAS
   Dagmar Lenk            : GEPOL surface, SMD
   Dimitrios Liakos       : Extrapolation schemes; Compound Job, initial MDCI parallelization
   Dimitrios Manganas     : Further ROCIS development; embedding schemes
   Dimitrios Pantazis     : SARC Basis sets
   Taras Petrenko         : DFT Hessian,TD-DFT gradient, ASA, ECA, R-Raman, ABS, FL, XAS/XES, NRVS
   Peter Pinski           : DLPNO-MP2, DLPNO-MP2 Gradient
   Christoph Reimann      : Effective Core Potentials
   Marius Retegan         : Local ZFS, SOC
   Christoph Riplinger    : Optimizer, TS searches, QM/MM, DLPNO-CCSD(T), (RO)-DLPNO pert. Triples
   Tobias Risthaus        : Range-separated hybrids, TD-DFT gradient, RPA, STAB
   Michael Roemelt        : Original ROCIS implementation
   Masaaki Saitow         : Open-shell DLPNO-CCSD energy and density
   Barbara Sandhoefer     : DKH picture change effects
   Avijit Sen             : IP-ROCIS
   Kantharuban Sivalingam : CASSCF convergence, NEVPT2, FIC-MRCI
   Bernardo de Souza      : ESD, SOC TD-DFT
   Georgi Stoychev        : AutoAux, RI-MP2 NMR
   Willem Van den Heuvel  : Paramagnetic NMR
   Boris Wezisla          : Elementary symmetry handling
   Frank Wennmohs         : Technical directorship


 We gratefully acknowledge several colleagues who have allowed us to
 interface, adapt or use parts of their codes:
   Stefan Grimme, W. Hujo, H. Kruse,             : VdW corrections, initial TS optimization,
                  C. Bannwarth                     DFT functionals, gCP, sTDA/sTD-DF
   Ed Valeev, F. Pavosevic, A. Kumar             : LibInt (2-el integral package), F12 methods
   Garnet Chan, S. Sharma, J. Yang, R. Olivares  : DMRG
   Ulf Ekstrom                                   : XCFun DFT Library
   Mihaly Kallay                                 : mrcc  (arbitrary order and MRCC methods)
   Andreas Klamt, Michael Diedenhofen            : otool_cosmo (COSMO solvation model)
   Jiri Pittner, Ondrej Demel                    : Mk-CCSD
   Frank Weinhold                                : gennbo (NPA and NBO analysis)
   Christopher J. Cramer and Donald G. Truhlar   : smd solvation model
   Lars Goerigk                                  : TD-DFT with DH, B97 family of functionals
   V. Asgeirsson, H. Jonsson                     : NEB implementation
   FAccTs GmbH                                   : IRC, NEB, NEB-TS, Multilevel, MM, QM/MM, CI optimization
   S Lehtola, MJT Oliveira, MAL Marques          : LibXC Library


 Your calculation uses the libint2 library for the computation of 2-el integrals
 For citations please refer to: http://libint.valeyev.net

 Your ORCA version has been built with support for libXC version: 4.2.3
 For citations please refer to: https://tddft.org/programs/libxc/

 This ORCA versions uses:
   CBLAS   interface :  Fast vector & matrix operations
   LAPACKE interface :  Fast linear algebra routines
   SCALAPACK package :  Parallel linear algebra routines


----- Orbital basis set information -----
Your calculation utilizes the basis: 6-311G(3df,3pd)
   H, Li - Ne  : R. Krishnan, J. S. Binkley, R. Seeger and J. A. Pople, J. Chem. Phys. 72, 650 (1980).
   Na - Ar     : A. D. McLean and G. S. Chandler J. Chem. Phys. 72, 5639, (1980).
   K  - Ca     : J.-P. Blaudeau, M. P. McGrath, L. A. Curtiss and L. Radom, J. Chem. Phys. 107, 5016 (1997).
   Ga - Kr     : L. A. Curtiss, M. P. McGrath, J.-P. Blandeau, N. E. Davis, R. C. Binning and L. Radom, J. Chem. Phys. 103, 6104 (1995).
   Pol./Diff.
   H, Li - Cl  : T. Clark, J. Chandrasekhar and P. v. R. Schleyer, J. Comp. Chem. 4, 294 (1983).
   H - Ne      : M. J. Frisch, J. A. Pople and J. S. Binkley, J. Chem. Phys. 80, 3265 (1984).

================================================================================
                                        WARNINGS
                       Please study these warnings very carefully!
================================================================================


WARNING: Geometry Optimization
  ===> : Switching off AutoStart
         For restart on a previous wavefunction, please use MOREAD

WARNING: Post HF methods need fully converged wavefunctions
  ===> : Setting SCFConvForced true
         You can overwrite this default with %scf ConvForced false 


INFO   : the flag for use of LIBINT has been found!

================================================================================
                                       INPUT FILE
================================================================================
NAME = CH3·.inp
|  1> ! UHF MP2 6-311G(3df,3pd) Opt Freq NoFrozenCore TightOpt TightSCF Grid4 FinalGrid5 PrintBasis PrintMOs NBO
|  2> %maxcore 3000
|  3> 
|  4> *xyz 0 2
|  5> C        0.000000000      0.000000000      0.000000000
|  6> H        1.071911000      0.000000000      0.000000000
|  7> H       -0.535955000      0.928302000      0.000000000
|  8> H       -0.535955000     -0.928302000      0.000000000
|  9> *
| 10> 
| 11> %pal
| 12>  nprocs 12
| 13> end
| 14> 
| 15>                          ****END OF INPUT****
================================================================================

                       *****************************
                       * Geometry Optimization Run *
                       *****************************

Geometry optimization settings:
Update method            Update   .... BFGS
Choice of coordinates    CoordSys .... Z-matrix Internals
Initial Hessian          InHess   .... Almoef's Model

Convergence Tolerances:
Energy Change            TolE     ....  1.0000e-06 Eh
Max. Gradient            TolMAXG  ....  1.0000e-04 Eh/bohr
RMS Gradient             TolRMSG  ....  3.0000e-05 Eh/bohr
Max. Displacement        TolMAXD  ....  1.0000e-03 bohr
RMS Displacement         TolRMSD  ....  6.0000e-04 bohr
Strict Convergence                ....  False
------------------------------------------------------------------------------
                        ORCA OPTIMIZATION COORDINATE SETUP
------------------------------------------------------------------------------

The optimization will be done in new redundant internal coordinates
Making redundant internal coordinates   ...  (new redundants) done
Evaluating the initial hessian          ...  (Almloef) done
Evaluating the coordinates              ...  done
Calculating the B-matrix                .... done
Calculating the G-matrix                .... done
Diagonalizing the G-matrix              .... done
The first mode is                       ....    1
The number of degrees of freedom        ....    6

    -----------------------------------------------------------------
                    Redundant Internal Coordinates


    -----------------------------------------------------------------
         Definition                    Initial Value    Approx d2E/dq
    -----------------------------------------------------------------
      1. B(H   1,C   0)                  1.0719         0.384842   
      2. B(H   2,C   0)                  1.0719         0.384843   
      3. B(H   3,C   0)                  1.0719         0.384843   
      4. A(H   1,C   0,H   3)          120.0000         0.297003   
      5. A(H   2,C   0,H   3)          120.0000         0.297003   
      6. A(H   1,C   0,H   2)          120.0000         0.297003   
      7. I(H   1,H   3,H   2,C   0)      0.0000         0.023978   
    -----------------------------------------------------------------

Number of atoms                         .... 4
Number of degrees of freedom            .... 7

         *************************************************************
         *                GEOMETRY OPTIMIZATION CYCLE   1            *
         *************************************************************
---------------------------------
CARTESIAN COORDINATES (ANGSTROEM)
---------------------------------
  C      0.000000    0.000000    0.000000
  H      1.071911    0.000000    0.000000
  H     -0.535955    0.928302    0.000000
  H     -0.535955   -0.928302    0.000000

----------------------------
CARTESIAN COORDINATES (A.U.)
----------------------------
  NO LB      ZA    FRAG     MASS         X           Y           Z
   0 C     6.0000    0    12.011    0.000000    0.000000    0.000000
   1 H     1.0000    0     1.008    2.025618    0.000000    0.000000
   2 H     1.0000    0     1.008   -1.012808    1.754237    0.000000
   3 H     1.0000    0     1.008   -1.012808   -1.754237    0.000000

--------------------------------
INTERNAL COORDINATES (ANGSTROEM)
--------------------------------
 C      0   0   0     0.000000000000     0.00000000     0.00000000
 H      1   0   0     1.071911000000     0.00000000     0.00000000
 H      1   2   0     1.071910614384   119.99998104     0.00000000
 H      1   2   3     1.071910614384   119.99998104   180.00000000

---------------------------
INTERNAL COORDINATES (A.U.)
---------------------------
 C      0   0   0     0.000000000000     0.00000000     0.00000000
 H      1   0   0     2.025618229938     0.00000000     0.00000000
 H      1   2   0     2.025617501229   119.99998104     0.00000000
 H      1   2   3     2.025617501229   119.99998104   180.00000000

---------------------
BASIS SET INFORMATION
---------------------
There are 2 groups of distinct atoms

 Group   1 Type C   : 11s5p3d1f contracted to 4s3p3d1f pattern {6311/311/111/1}
 Group   2 Type H   : 5s3p1d contracted to 3s3p1d pattern {311/111/1}

Atom   0C    basis set group =>   1
Atom   1H    basis set group =>   2
Atom   2H    basis set group =>   2
Atom   3H    basis set group =>   2

-------------------------
BASIS SET IN INPUT FORMAT
-------------------------

 # Basis set for element : H 
 NewGTO H 
 S 3 
   1      33.8650000000      0.0254938145
   2       5.0947900000      0.1903731086
   3       1.1587900000      0.8521614860
 S 1 
   1       0.3258400000      1.0000000000
 S 1 
   1       0.1027410000      1.0000000000
 P 1 
   1       3.0000000000      1.0000000000
 P 1 
   1       0.7500000000      1.0000000000
 P 1 
   1       0.1875000000      1.0000000000
 D 1 
   1       1.0000000000      1.0000000000
  end;

 # Basis set for element : C 
 NewGTO C 
 S 6 
   1    4563.2400000000      0.0019666502
   2     682.0240000000      0.0152306019
   3     154.9730000000      0.0761269097
   4      44.4553000000      0.2608010331
   5      13.0290000000      0.6164620782
   6       1.8277300000      0.2210060280
 S 3 
   1      20.9642000000      0.1146600807
   2       4.8033100000      0.9199996477
   3       1.4593300000     -0.0030306821
 P 3 
   1      20.9642000000      0.0402486927
   2       4.8033100000      0.2375939567
   3       1.4593300000      0.8158538515
 S 1 
   1       0.4834560000      1.0000000000
 P 1 
   1       0.4834560000      1.0000000000
 S 1 
   1       0.1455850000      1.0000000000
 P 1 
   1       0.1455850000      1.0000000000
 D 1 
   1       2.5040000000      1.0000000000
 D 1 
   1       0.6260000000      1.0000000000
 D 1 
   1       0.1565000000      1.0000000000
 F 1 
   1       0.8000000000      1.0000000000
  end;



           ************************************************************
           *        Program running with 12 parallel MPI-processes    *
           *              working on a common directory               *
           ************************************************************
------------------------------------------------------------------------------
                           ORCA GTO INTEGRAL CALCULATION
------------------------------------------------------------------------------

                         BASIS SET STATISTICS AND STARTUP INFO

 # of primitive gaussian shells          ...   47
 # of primitive gaussian functions       ...  105
 # of contracted shells                  ...   32
 # of contracted basis functions         ...   86
 Highest angular momentum                ...    3
 Maximum contraction depth               ...    6
 Integral package used                   ... LIBINT
 Integral threshhold            Thresh   ...  2.500e-11
 Primitive cut-off              TCut     ...  2.500e-12


------------------------------ INTEGRAL EVALUATION ----------------------------


 * One electron integrals 
 Pre-screening matrix                    ... done
 Shell pair data                         ... done (   0.002 sec)



           ************************************************************
           *        Program running with 12 parallel MPI-processes    *
           *              working on a common directory               *
           ************************************************************
-------------------------------------------------------------------------------
                                 ORCA SCF
-------------------------------------------------------------------------------

------------
SCF SETTINGS
------------
Hamiltonian:
 Ab initio Hamiltonian  Method          .... Hartree-Fock(GTOs)


General Settings:
 Integral files         IntName         .... CH3·
 Hartree-Fock type      HFTyp           .... UHF
 Total Charge           Charge          ....    0
 Multiplicity           Mult            ....    2
 Number of Electrons    NEL             ....    9
 Basis Dimension        Dim             ....   86
 Nuclear Repulsion      ENuc            ....      9.7412509664 Eh

Convergence Acceleration:
 DIIS                   CNVDIIS         .... on
   Start iteration      DIISMaxIt       ....    12
   Startup error        DIISStart       ....  0.200000
   # of expansion vecs  DIISMaxEq       ....     5
   Bias factor          DIISBfac        ....   1.050
   Max. coefficient     DIISMaxC        ....  10.000
 Newton-Raphson         CNVNR           .... off
 SOSCF                  CNVSOSCF        .... off
 Level Shifting         CNVShift        .... on
   Level shift para.    LevelShift      ....    0.2500
   Turn off err/grad.   ShiftErr        ....    0.0010
 Zerner damping         CNVZerner       .... off
 Static damping         CNVDamp         .... on
   Fraction old density DampFac         ....    0.7000
   Max. Damping (<1)    DampMax         ....    0.9800
   Min. Damping (>=0)   DampMin         ....    0.0000
   Turn off err/grad.   DampErr         ....    0.1000
 Fernandez-Rico         CNVRico         .... off

SCF Procedure:
 Maximum # iterations   MaxIter         ....   125
 SCF integral mode      SCFMode         .... Direct
   Integral package                     .... LIBINT
 Reset frequency        DirectResetFreq ....    20
 Integral Threshold     Thresh          ....  2.500e-11 Eh
 Primitive CutOff       TCut            ....  2.500e-12 Eh

Convergence Tolerance:
 Convergence Check Mode ConvCheckMode   .... Total+1el-Energy
 Convergence forced     ConvForced      .... 1
 Energy Change          TolE            ....  1.000e-08 Eh
 1-El. energy change                    ....  1.000e-05 Eh
 DIIS Error             TolErr          ....  5.000e-07


Diagonalization of the overlap matrix:
Smallest eigenvalue                        ... 1.530e-03
Time for diagonalization                   ...    0.002 sec
Threshold for overlap eigenvalues          ... 1.000e-08
Number of eigenvalues below threshold      ... 0
Time for construction of square roots      ...    0.011 sec
Total time needed                          ...    0.013 sec

-------------------
DFT GRID GENERATION
-------------------

General Integration Accuracy     IntAcc      ...  4.670
Radial Grid Type                 RadialGrid  ... Gauss-Chebyshev
Angular Grid (max. acc.)         AngularGrid ... Lebedev-302
Angular grid pruning method      GridPruning ... 3 (G Style)
Weight generation scheme         WeightScheme... Becke
Basis function cutoff            BFCut       ...    1.0000e-11
Integration weight cutoff        WCut        ...    1.0000e-14
Grids for H and He will be reduced by one unit

# of grid points (after initial pruning)     ...  16394 (   0.0 sec)
# of grid points (after weights+screening)   ...  16145 (   0.0 sec)
nearest neighbour list constructed           ...    0.0 sec
Grid point re-assignment to atoms done       ...    0.0 sec
Grid point division into batches done        ...    0.1 sec
Reduced shell lists constructed in    0.1 sec

Total number of grid points                  ...    16145
Total number of batches                      ...      253
Average number of points per batch           ...       63
Average number of grid points per atom       ...     4036
Average number of shells per batch           ...    30.26 (94.57%)
Average number of basis functions per batch  ...    81.04 (94.24%)
Average number of large shells per batch     ...    28.96 (95.69%)
Average number of large basis fcns per batch ...    78.00 (96.24%)
Maximum spatial batch extension              ...   2.89,  2.57, 19.60 au
Average spatial batch extension              ...   0.12,  0.13,  0.26 au

Time for grid setup =    0.113 sec

------------------------------
INITIAL GUESS: MODEL POTENTIAL
------------------------------
Loading Hartree-Fock densities                     ... done
Calculating cut-offs                               ... done
Setting up the integral package                    ... done
Initializing the effective Hamiltonian             ... done
Starting the Coulomb interaction                   ... done (   0.0 sec)
Reading the grid                                   ... done
Mapping shells                                     ... done
Starting the XC term evaluation                    ... done (   0.0 sec)
Transforming the Hamiltonian                       ... done (   0.0 sec)
Diagonalizing the Hamiltonian                      ... done (   0.0 sec)
Back transforming the eigenvectors                 ... done (   0.0 sec)
Now organizing SCF variables                       ... done
                      ------------------
                      INITIAL GUESS DONE (   0.3 sec)
                      ------------------
--------------
SCF ITERATIONS
--------------
ITER       Energy         Delta-E        Max-DP      RMS-DP      [F,P]     Damp
               ***  Starting incremental Fock matrix formation  ***
  0    -39.5137048946   0.000000000000 0.02981975  0.00050005  0.2356612 0.7000
  1    -39.5344705841  -0.020765689517 0.02131632  0.00038380  0.1577496 0.7000
                               ***Turning on DIIS***
  2    -39.5477329644  -0.013262380314 0.04425966  0.00085384  0.0986819 0.0000
  3    -39.5167908727   0.030942091655 0.01478737  0.00025482  0.0257541 0.0000
  4    -39.5710186034  -0.054227730615 0.00371906  0.00009272  0.0042632 0.0000
  5    -39.5760761287  -0.005057525307 0.00237667  0.00006429  0.0023936 0.0000
  6    -39.5765594196  -0.000483290931 0.00138541  0.00003732  0.0012500 0.0000
  7    -39.5763555190   0.000203900610 0.00093260  0.00002611  0.0005688 0.0000
  8    -39.5762805869   0.000074932049 0.00032639  0.00000932  0.0001424 0.0000
  9    -39.5762578094   0.000022777506 0.00012296  0.00000350  0.0000344 0.0000
 10    -39.5762507996   0.000007009852 0.00005799  0.00000154  0.0000087 0.0000
 11    -39.5762521086  -0.000001309049 0.00002313  0.00000060  0.0000021 0.0000
                            ***DIIS convergence achieved***

               *****************************************************
               *                     SUCCESS                       *
               *           SCF CONVERGED AFTER  12 CYCLES          *
               *****************************************************


----------------
TOTAL SCF ENERGY
----------------

Total Energy       :          -39.57625206 Eh           -1076.92457 eV

Components:
Nuclear Repulsion  :            9.74125097 Eh             265.07291 eV
Electronic Energy  :          -49.31750303 Eh           -1341.99748 eV
One Electron Energy:          -71.71463271 Eh           -1951.45437 eV
Two Electron Energy:           22.39712968 Eh             609.45688 eV

Virial components:
Potential Energy   :          -79.15068245 Eh           -2153.79957 eV
Kinetic Energy     :           39.57443038 Eh            1076.87500 eV
Virial Ratio       :            2.00004603


---------------
SCF CONVERGENCE
---------------

  Last Energy change         ...    4.5548e-08  Tolerance :   1.0000e-08
  Last MAX-Density change    ...    1.0789e-05  Tolerance :   1.0000e-07
  Last RMS-Density change    ...    2.7398e-07  Tolerance :   5.0000e-09
  Last DIIS Error            ...    7.0023e-07  Tolerance :   5.0000e-07

             **** THE GBW FILE WAS UPDATED (CH3·.gbw) ****
             **** DENSITY FILE WAS UPDATED (CH3·.scfp) ****
             **** ENERGY FILE WAS UPDATED (CH3·.en.tmp) ****
----------------------
UHF SPIN CONTAMINATION
----------------------

Expectation value of <S**2>     :     0.761704
Ideal value S*(S+1) for S=0.5   :     0.750000
Deviation                       :     0.011704

             **** THE GBW FILE WAS UPDATED (CH3·.gbw) ****
             **** DENSITY FILE WAS UPDATED (CH3·.scfp) ****
----------------
ORBITAL ENERGIES
----------------
                 SPIN UP ORBITALS
  NO   OCC          E(Eh)            E(eV) 
   0   1.0000     -11.228055      -305.5309 
   1   1.0000      -0.948596       -25.8126 
   2   1.0000      -0.581300       -15.8180 
   3   1.0000      -0.581300       -15.8180 
   4   1.0000      -0.384893       -10.4735 
   5   0.0000       0.139070         3.7843 
   6   0.0000       0.188233         5.1221 
   7   0.0000       0.188233         5.1221 
   8   0.0000       0.349664         9.5148 
   9   0.0000       0.351174         9.5559 
  10   0.0000       0.351175         9.5559 
  11   0.0000       0.426359        11.6018 
  12   0.0000       0.426359        11.6018 
  13   0.0000       0.558955        15.2100 
  14   0.0000       0.587927        15.9983 
  15   0.0000       0.623235        16.9591 
  16   0.0000       0.623235        16.9591 
  17   0.0000       0.627897        17.0859 
  18   0.0000       0.693441        18.8695 
  19   0.0000       0.693441        18.8695 
  20   0.0000       0.701842        19.0981 
  21   0.0000       0.795593        21.6492 
  22   0.0000       0.795593        21.6492 
  23   0.0000       0.842030        22.9128 
  24   0.0000       0.912417        24.8281 
  25   0.0000       0.912417        24.8281 
  26   0.0000       0.959879        26.1196 
  27   0.0000       1.010419        27.4949 
  28   0.0000       1.010419        27.4949 
  29   0.0000       1.629264        44.3345 
  30   0.0000       1.629264        44.3345 
  31   0.0000       1.803517        49.0762 
  32   0.0000       1.803517        49.0762 
  33   0.0000       1.962162        53.3931 
  34   0.0000       1.993772        54.2533 
  35   0.0000       2.115838        57.5749 
  36   0.0000       2.350120        63.9500 
  37   0.0000       2.350121        63.9500 
  38   0.0000       2.411127        65.6101 
  39   0.0000       2.411127        65.6101 
  40   0.0000       2.679644        72.9168 
  41   0.0000       2.722338        74.0786 
  42   0.0000       2.722338        74.0786 
  43   0.0000       2.886174        78.5368 
  44   0.0000       2.964138        80.6583 
  45   0.0000       2.964138        80.6583 
  46   0.0000       3.055319        83.1395 
  47   0.0000       3.122501        84.9676 
  48   0.0000       3.122502        84.9676 
  49   0.0000       3.175614        86.4128 
  50   0.0000       3.175614        86.4129 
  51   0.0000       3.328862        90.5829 
  52   0.0000       3.503526        95.3358 
  53   0.0000       3.645407        99.1966 
  54   0.0000       3.697431       100.6122 
  55   0.0000       3.853055       104.8470 
  56   0.0000       3.853056       104.8470 
  57   0.0000       4.111143       111.8699 
  58   0.0000       4.111143       111.8699 
  59   0.0000       4.532550       123.3370 
  60   0.0000       4.677476       127.2806 
  61   0.0000       4.677477       127.2806 
  62   0.0000       4.922525       133.9487 
  63   0.0000       5.050465       137.4301 
  64   0.0000       5.050466       137.4302 
  65   0.0000       5.065233       137.8320 
  66   0.0000       5.098242       138.7302 
  67   0.0000       5.098242       138.7302 
  68   0.0000       5.272881       143.4824 
  69   0.0000       5.272882       143.4824 
  70   0.0000       6.015731       163.6964 
  71   0.0000       7.637967       207.8396 
  72   0.0000       7.637967       207.8397 
  73   0.0000       7.796436       212.1518 
  74   0.0000       8.176138       222.4840 
  75   0.0000       8.176139       222.4840 
  76   0.0000       8.673866       236.0279 
  77   0.0000       8.821230       240.0379 
  78   0.0000       8.821230       240.0379 
  79   0.0000       8.862414       241.1586 
  80   0.0000       8.944742       243.3988 
  81   0.0000       8.944742       243.3988 
  82   0.0000       9.823802       267.3192 
  83   0.0000       9.823802       267.3192 
  84   0.0000      10.218255       278.0529 
  85   0.0000      27.197070       740.0699 

                 SPIN DOWN ORBITALS
  NO   OCC          E(Eh)            E(eV) 
   0   1.0000     -11.204816      -304.8986 
   1   1.0000      -0.857484       -23.3333 
   2   1.0000      -0.566965       -15.4279 
   3   1.0000      -0.566965       -15.4279 
   4   0.0000       0.134043         3.6475 
   5   0.0000       0.148478         4.0403 
   6   0.0000       0.191439         5.2093 
   7   0.0000       0.191439         5.2093 
   8   0.0000       0.352760         9.5991 
   9   0.0000       0.352760         9.5991 
  10   0.0000       0.390389        10.6230 
  11   0.0000       0.456096        12.4110 
  12   0.0000       0.456096        12.4110 
  13   0.0000       0.604714        16.4551 
  14   0.0000       0.626726        17.0541 
  15   0.0000       0.629794        17.1376 
  16   0.0000       0.629795        17.1376 
  17   0.0000       0.660272        17.9669 
  18   0.0000       0.700636        19.0653 
  19   0.0000       0.700636        19.0653 
  20   0.0000       0.745710        20.2918 
  21   0.0000       0.805226        21.9113 
  22   0.0000       0.805226        21.9113 
  23   0.0000       0.855012        23.2661 
  24   0.0000       0.917949        24.9787 
  25   0.0000       0.917949        24.9787 
  26   0.0000       0.993614        27.0376 
  27   0.0000       1.017704        27.6931 
  28   0.0000       1.017704        27.6931 
  29   0.0000       1.682008        45.7698 
  30   0.0000       1.682008        45.7698 
  31   0.0000       1.809637        49.2427 
  32   0.0000       1.809637        49.2427 
  33   0.0000       1.990015        54.1511 
  34   0.0000       2.033016        55.3212 
  35   0.0000       2.134623        58.0860 
  36   0.0000       2.350907        63.9714 
  37   0.0000       2.350907        63.9714 
  38   0.0000       2.439556        66.3837 
  39   0.0000       2.439556        66.3837 
  40   0.0000       2.679673        72.9176 
  41   0.0000       2.723657        74.1145 
  42   0.0000       2.723657        74.1145 
  43   0.0000       2.897431        78.8431 
  44   0.0000       2.977090        81.0107 
  45   0.0000       2.977091        81.0108 
  46   0.0000       3.141877        85.4948 
  47   0.0000       3.146980        85.6337 
  48   0.0000       3.146980        85.6337 
  49   0.0000       3.193120        86.8892 
  50   0.0000       3.193120        86.8892 
  51   0.0000       3.332087        90.6707 
  52   0.0000       3.537724        96.2664 
  53   0.0000       3.655107        99.4605 
  54   0.0000       3.698691       100.6465 
  55   0.0000       3.869070       105.2827 
  56   0.0000       3.869070       105.2828 
  57   0.0000       4.122155       112.1695 
  58   0.0000       4.122155       112.1695 
  59   0.0000       4.546710       123.7223 
  60   0.0000       4.682901       127.4282 
  61   0.0000       4.682902       127.4282 
  62   0.0000       4.935692       134.3070 
  63   0.0000       5.053457       137.5115 
  64   0.0000       5.053458       137.5116 
  65   0.0000       5.073610       138.0599 
  66   0.0000       5.116954       139.2394 
  67   0.0000       5.116955       139.2394 
  68   0.0000       5.275506       143.5538 
  69   0.0000       5.275506       143.5538 
  70   0.0000       6.021768       163.8606 
  71   0.0000       7.683657       209.0829 
  72   0.0000       7.683657       209.0829 
  73   0.0000       7.845169       213.4779 
  74   0.0000       8.186098       222.7550 
  75   0.0000       8.186098       222.7551 
  76   0.0000       8.669276       235.9030 
  77   0.0000       8.818984       239.9768 
  78   0.0000       8.818985       239.9768 
  79   0.0000       8.859939       241.0912 
  80   0.0000       8.940515       243.2838 
  81   0.0000       8.940515       243.2838 
  82   0.0000       9.823087       267.2998 
  83   0.0000       9.823088       267.2998 
  84   0.0000      10.218880       278.0699 
  85   0.0000      27.210551       740.4367 
------------------
MOLECULAR ORBITALS
------------------
                      0         1         2         3         4         5   
                 -11.22805  -0.94860  -0.58130  -0.58130  -0.38489   0.13907
                   1.00000   1.00000   1.00000   1.00000   1.00000   0.00000
                  --------  --------  --------  --------  --------  --------
  0C   1s        -0.562972 -0.108275 -0.000000 -0.000000  0.000000 -0.043325
  0C   2s        -0.465938 -0.179115 -0.000000 -0.000000  0.000000 -0.084415
  0C   1pz       -0.000000  0.000000  0.000000 -0.000000 -0.259506 -0.000000
  0C   1px        0.000000 -0.000000  0.000000  0.200270  0.000000  0.000000
  0C   1py       -0.000000  0.000000  0.200270 -0.000000 -0.000000  0.000000
  0C   3s        -0.008844  0.455316  0.000000  0.000000 -0.000000  0.133469
  0C   2pz       -0.000000 -0.000000  0.000000 -0.000000 -0.426232  0.000000
  0C   2px        0.000000 -0.000000  0.000000  0.290464 -0.000000 -0.000000
  0C   2py       -0.000000 -0.000000  0.290464 -0.000000  0.000000  0.000000
  0C   4s        -0.007850  0.273936  0.000000  0.000000  0.000000  5.316748
  0C   3pz       -0.000000  0.000000  0.000000 -0.000000 -0.464854  0.000000
  0C   3px       -0.000000  0.000000  0.000000  0.168213 -0.000000  0.000000
  0C   3py       -0.000000  0.000000  0.168213 -0.000000  0.000000  0.000000
  0C   1dz2      -0.000673 -0.001131  0.000000  0.000000  0.000000  0.006456
  0C   1dxz       0.000000 -0.000000  0.000000 -0.000000  0.000000 -0.000000
  0C   1dyz      -0.000000  0.000000  0.000000 -0.000000 -0.000000  0.000000
  0C   1dx2y2     0.000000 -0.000000  0.000000  0.005521  0.000000  0.000000
  0C   1dxy      -0.000000 -0.000000 -0.005521  0.000000  0.000000  0.000000
  0C   2dz2       0.001407  0.006868 -0.000000  0.000000 -0.000000 -0.096681
  0C   2dxz      -0.000000 -0.000000 -0.000000  0.000000  0.000000 -0.000000
  0C   2dyz       0.000000  0.000000 -0.000000  0.000000 -0.000000  0.000000
  0C   2dx2y2     0.000000  0.000000  0.000000  0.020146 -0.000000 -0.000000
  0C   2dxy       0.000000  0.000000 -0.020146  0.000000 -0.000000 -0.000000
  0C   3dz2       0.000452  0.009590 -0.000000 -0.000000 -0.000000 -0.245439
  0C   3dxz      -0.000000 -0.000000 -0.000000  0.000000 -0.000000  0.000000
  0C   3dyz       0.000000  0.000000  0.000000 -0.000000 -0.000000  0.000000
  0C   3dx2y2     0.000000 -0.000000  0.000000  0.013098  0.000000 -0.000000
  0C   3dxy      -0.000000  0.000000 -0.013098  0.000000 -0.000000 -0.000000
  0C   1f0        0.000000  0.000000  0.000000  0.000000 -0.003232 -0.000000
  0C   1f+1       0.000000 -0.000000  0.000000  0.001814  0.000000  0.000000
  0C   1f-1       0.000000  0.000000  0.001814 -0.000000 -0.000000 -0.000000
  0C   1f+2      -0.000000 -0.000000 -0.000000  0.000000  0.000000 -0.000000
  0C   1f-2       0.000000 -0.000000  0.000000 -0.000000  0.000000 -0.000000
  0C   1f+3       0.001155 -0.003185 -0.000000  0.000000 -0.000000 -0.053782
  0C   1f-3       0.000000  0.000000  0.000000 -0.000000 -0.000000 -0.000000
  1H   1s        -0.000151  0.086440  0.000000  0.162643 -0.000000  0.009467
  1H   2s         0.003192  0.120631  0.000000  0.262534  0.000000 -0.481602
  1H   3s         0.001042  0.015050  0.000000  0.123025  0.000000 -1.712875
  1H   1pz       -0.000000 -0.000000 -0.000000 -0.000000 -0.002448  0.000000
  1H   1px        0.000121 -0.002361 -0.000000 -0.004014  0.000000 -0.003588
  1H   1py        0.000000 -0.000000  0.001217 -0.000000  0.000000  0.000000
  1H   2pz        0.000000  0.000000 -0.000000 -0.000000 -0.016558  0.000000
  1H   2px       -0.001443 -0.018445 -0.000000 -0.022613 -0.000000  0.057250
  1H   2py        0.000000 -0.000000  0.009841 -0.000000 -0.000000  0.000000
  1H   3pz        0.000000 -0.000000  0.000000  0.000000 -0.014233 -0.000000
  1H   3px       -0.000882 -0.011961 -0.000000 -0.033348 -0.000000  0.478619
  1H   3py        0.000000 -0.000000  0.004452 -0.000000  0.000000 -0.000000
  1H   1dz2      -0.000243 -0.001214 -0.000000 -0.002280 -0.000000  0.010720
  1H   1dxz      -0.000000 -0.000000 -0.000000  0.000000  0.003787  0.000000
  1H   1dyz       0.000000 -0.000000  0.000000  0.000000 -0.000000  0.000000
  1H   1dx2y2     0.000440  0.002892  0.000000  0.005229  0.000000 -0.017043
  1H   1dxy      -0.000000  0.000000 -0.002494  0.000000  0.000000  0.000000
  2H   1s        -0.000151  0.086440  0.140853 -0.081322  0.000000  0.009467
  2H   2s         0.003192  0.120631  0.227361 -0.131267 -0.000000 -0.481603
  2H   3s         0.001042  0.015050  0.106543 -0.061512 -0.000000 -1.712877
  2H   1pz        0.000000 -0.000000  0.000000  0.000000 -0.002448  0.000000
  2H   1px       -0.000061  0.001181  0.002265 -0.000091 -0.000000  0.001794
  2H   1py        0.000105 -0.002045 -0.002707  0.002265 -0.000000 -0.003107
  2H   2pz        0.000000  0.000000  0.000000 -0.000000 -0.016558 -0.000000
  2H   2px        0.000722  0.009223  0.014053  0.001728 -0.000000 -0.028625
  2H   2py       -0.001250 -0.015974 -0.014499  0.014053  0.000000  0.049580
  2H   3pz       -0.000000 -0.000000 -0.000000  0.000000 -0.014233 -0.000000
  2H   3px        0.000441  0.005980  0.016368 -0.004998 -0.000000 -0.239310
  2H   3py       -0.000764 -0.010359 -0.023898  0.016368  0.000000  0.414497
  2H   1dz2      -0.000243 -0.001214 -0.001975  0.001140  0.000000  0.010720
  2H   1dxz      -0.000000 -0.000000 -0.000000  0.000000 -0.001893 -0.000000
  2H   1dyz      -0.000000  0.000000 -0.000000 -0.000000  0.003280  0.000000
  2H   1dx2y2    -0.000220 -0.001446 -0.001184  0.003178  0.000000  0.008521
  2H   1dxy      -0.000381 -0.002505 -0.004546  0.001184  0.000000  0.014760
  3H   1s        -0.000151  0.086440 -0.140853 -0.081322 -0.000000  0.009467
  3H   2s         0.003192  0.120631 -0.227361 -0.131267  0.000000 -0.481603
  3H   3s         0.001042  0.015050 -0.106543 -0.061512  0.000000 -1.712877
  3H   1pz       -0.000000  0.000000  0.000000 -0.000000 -0.002448  0.000000
  3H   1px       -0.000061  0.001181 -0.002265 -0.000091  0.000000  0.001794
  3H   1py       -0.000105  0.002045 -0.002707 -0.002265 -0.000000  0.003107
  3H   2pz       -0.000000  0.000000  0.000000  0.000000 -0.016558 -0.000000
  3H   2px        0.000722  0.009223 -0.014053  0.001728  0.000000 -0.028625
  3H   2py        0.001250  0.015974 -0.014499 -0.014053  0.000000 -0.049580
  3H   3pz        0.000000 -0.000000 -0.000000 -0.000000 -0.014233 -0.000000
  3H   3px        0.000441  0.005980 -0.016368 -0.004998  0.000000 -0.239310
  3H   3py        0.000764  0.010359 -0.023898 -0.016368 -0.000000 -0.414497
  3H   1dz2      -0.000243 -0.001214  0.001975  0.001140 -0.000000  0.010720
  3H   1dxz       0.000000  0.000000 -0.000000  0.000000 -0.001893 -0.000000
  3H   1dyz       0.000000 -0.000000  0.000000  0.000000 -0.003280 -0.000000
  3H   1dx2y2    -0.000220 -0.001446  0.001184  0.003178 -0.000000  0.008521
  3H   1dxy       0.000381  0.002505 -0.004546 -0.001184 -0.000000 -0.014760
                      6         7         8         9        10        11   
                   0.18823   0.18823   0.34966   0.35117   0.35117   0.42636
                   0.00000   0.00000   0.00000   0.00000   0.00000   0.00000
                  --------  --------  --------  --------  --------  --------
  0C   1s        -0.000000  0.000000  0.028807 -0.000000  0.000000 -0.000000
  0C   2s        -0.000000 -0.000000  0.041422 -0.000000  0.000000 -0.000000
  0C   1pz        0.000000 -0.000000 -0.000000  0.000000  0.000000  0.000000
  0C   1px        0.000000 -0.078290  0.000001  0.086969  0.000000 -0.000000
  0C   1py       -0.078290 -0.000000 -0.000000 -0.000000  0.086969 -0.000000
  0C   3s        -0.000000  0.000000 -0.116530  0.000002 -0.000000  0.000000
  0C   2pz        0.000000 -0.000000  0.000000 -0.000000  0.000000  0.000000
  0C   2px        0.000000 -0.413223 -0.000003 -0.236711 -0.000000  0.000000
  0C   2py       -0.413224 -0.000000  0.000000  0.000000 -0.236711 -0.000000
  0C   4s        -0.000000  0.000002  3.995954 -0.000044  0.000000  0.000000
  0C   3pz       -0.000000  0.000000  0.000000  0.000000 -0.000000  0.000000
  0C   3px        0.000002 -3.091689 -0.000011 -1.166694 -0.000000  0.000000
  0C   3py       -3.091690 -0.000002  0.000000  0.000000 -1.166694  0.000000
  0C   1dz2       0.000000 -0.000000 -0.008930  0.000000 -0.000000 -0.000000
  0C   1dxz       0.000000  0.000000  0.000000  0.000000  0.000000 -0.000000
  0C   1dyz       0.000000 -0.000000  0.000000  0.000000 -0.000000 -0.014429
  0C   1dx2y2    -0.000000  0.005578 -0.000000 -0.007058 -0.000000 -0.000000
  0C   1dxy      -0.005578 -0.000000 -0.000000 -0.000000  0.007058  0.000000
  0C   2dz2       0.000000 -0.000000 -0.096223  0.000001 -0.000000  0.000000
  0C   2dxz      -0.000000 -0.000000 -0.000000 -0.000000  0.000000 -0.000000
  0C   2dyz       0.000000  0.000000  0.000000  0.000000  0.000000 -0.003137
  0C   2dx2y2     0.000000 -0.154291 -0.000002 -0.153801 -0.000000  0.000000
  0C   2dxy       0.154291  0.000000 -0.000000 -0.000000  0.153801 -0.000000
  0C   3dz2       0.000000  0.000000 -0.825030  0.000009 -0.000000  0.000000
  0C   3dxz       0.000000 -0.000000 -0.000000 -0.000000  0.000000 -0.000000
  0C   3dyz      -0.000000 -0.000000  0.000000 -0.000000 -0.000000 -0.660503
  0C   3dx2y2     0.000000 -0.633858 -0.000008 -0.662637 -0.000000  0.000000
  0C   3dxy       0.633857  0.000000 -0.000000 -0.000000  0.662636  0.000000
  0C   1f0        0.000000 -0.000000 -0.000000 -0.000000  0.000000  0.000000
  0C   1f+1      -0.000000  0.037487  0.000000  0.032795  0.000000 -0.000000
  0C   1f-1       0.037487  0.000000 -0.000000 -0.000000  0.032795 -0.000000
  0C   1f+2       0.000000 -0.000000  0.000000 -0.000000 -0.000000 -0.000000
  0C   1f-2       0.000000 -0.000000 -0.000000 -0.000000  0.000000  0.007094
  0C   1f+3       0.000000  0.000000 -0.037846  0.000000 -0.000000  0.000000
  0C   1f-3      -0.000000 -0.000000 -0.000000  0.000000 -0.000000  0.000000
  1H   1s         0.000000 -0.052672  0.097346 -0.099157 -0.000000  0.000000
  1H   2s        -0.000001  0.919124 -0.364313  0.521017  0.000000 -0.000000
  1H   3s        -0.000003  4.307628 -1.013400  1.317076  0.000000 -0.000000
  1H   1pz       -0.000000  0.000000  0.000000  0.000000 -0.000000 -0.000000
  1H   1px       -0.000000  0.006476  0.002420  0.002103  0.000000 -0.000000
  1H   1py       -0.000868 -0.000000 -0.000000 -0.000000  0.010718 -0.000000
  1H   2pz        0.000000 -0.000000  0.000000  0.000000  0.000000  0.000000
  1H   2px        0.000000 -0.103770  0.035393 -0.118177 -0.000000  0.000000
  1H   2py       -0.005020 -0.000000  0.000000  0.000000 -0.024753  0.000000
  1H   3pz       -0.000000  0.000000 -0.000000  0.000000  0.000000 -0.000000
  1H   3px        0.000001 -0.936510  0.672579 -0.663777 -0.000000  0.000000
  1H   3py       -0.012859 -0.000000 -0.000000 -0.000000  0.357544 -0.000000
  1H   1dz2       0.000000 -0.020657  0.009969 -0.019788 -0.000000  0.000000
  1H   1dxz       0.000000 -0.000000  0.000000 -0.000000 -0.000000  0.000000
  1H   1dyz       0.000000  0.000000 -0.000000 -0.000000 -0.000000  0.000180
  1H   1dx2y2    -0.000000  0.040710 -0.011784  0.038116  0.000000 -0.000000
  1H   1dxy       0.005830  0.000000  0.000000  0.000000 -0.004084  0.000000
  2H   1s        -0.045615  0.026336  0.097347  0.049577 -0.085872  0.000000
  2H   2s         0.795986 -0.459562 -0.364322 -0.260503  0.451211  0.000000
  2H   3s         3.730517 -2.153812 -1.013421 -0.658521  1.140610 -0.000000
  2H   1pz        0.000000  0.000000 -0.000000 -0.000000 -0.000000 -0.010973
  2H   1px       -0.003180  0.000968 -0.001210  0.008565  0.003731 -0.000000
  2H   1py        0.004640 -0.003180  0.002096  0.003731  0.004257  0.000000
  2H   2pz       -0.000000 -0.000000  0.000000  0.000000  0.000000  0.031437
  2H   2px        0.042760 -0.029707 -0.017698 -0.048108  0.040454  0.000000
  2H   2py       -0.079082  0.042760  0.030653  0.040453 -0.094821 -0.000000
  2H   3pz        0.000000 -0.000000 -0.000000 -0.000000  0.000000 -0.326118
  2H   3px        0.399953 -0.243771 -0.336292  0.102219  0.442241 -0.000000
  2H   3py       -0.705598  0.399952  0.582482  0.442235 -0.408441  0.000000
  2H   1dz2      -0.017890  0.010329  0.009969  0.009894 -0.017137 -0.000000
  2H   1dxz       0.000000 -0.000000 -0.000000 -0.000000 -0.000000 -0.002435
  2H   1dyz      -0.000000  0.000000  0.000000  0.000000 -0.000000  0.004396
  2H   1dx2y2    -0.020153  0.005805  0.005892  0.012592 -0.014736 -0.000000
  2H   1dxy      -0.029075  0.020152  0.010206  0.014736 -0.029608 -0.000000
  3H   1s         0.045615  0.026336  0.097347  0.049577  0.085872 -0.000000
  3H   2s        -0.795985 -0.459563 -0.364322 -0.260503 -0.451211  0.000000
  3H   3s        -3.730514 -2.153817 -1.013421 -0.658521 -1.140610  0.000000
  3H   1pz       -0.000000 -0.000000 -0.000000 -0.000000  0.000000  0.010973
  3H   1px        0.003180  0.000968 -0.001210  0.008565 -0.003731 -0.000000
  3H   1py        0.004640  0.003180 -0.002096 -0.003731  0.004257 -0.000000
  3H   2pz        0.000000  0.000000 -0.000000  0.000000 -0.000000 -0.031437
  3H   2px       -0.042760 -0.029707 -0.017698 -0.048108 -0.040454  0.000000
  3H   2py       -0.079082 -0.042760 -0.030653 -0.040453 -0.094821  0.000000
  3H   3pz        0.000000 -0.000000  0.000000 -0.000000  0.000000  0.326118
  3H   3px       -0.399952 -0.243772 -0.336292  0.102219 -0.442241  0.000000
  3H   3py       -0.705597 -0.399953 -0.582482 -0.442235 -0.408441  0.000000
  3H   1dz2       0.017890  0.010329  0.009969  0.009894  0.017137 -0.000000
  3H   1dxz       0.000000 -0.000000 -0.000000 -0.000000 -0.000000  0.002435
  3H   1dyz      -0.000000 -0.000000  0.000000 -0.000000 -0.000000  0.004396
  3H   1dx2y2     0.020153  0.005805  0.005892  0.012592  0.014736 -0.000000
  3H   1dxy      -0.029075 -0.020153 -0.010206 -0.014736 -0.029608  0.000000
                     12        13        14        15        16        17   
                   0.42636   0.55896   0.58793   0.62324   0.62324   0.62790
                   0.00000   0.00000   0.00000   0.00000   0.00000   0.00000
                  --------  --------  --------  --------  --------  --------
  0C   1s         0.000000 -0.000000  0.047466  0.000000  0.000000 -0.000000
  0C   2s         0.000000 -0.000000  0.075516  0.000000  0.000000 -0.000000
  0C   1pz        0.000000 -0.206051 -0.000000  0.000000 -0.000000  0.000000
  0C   1px       -0.000000  0.000000 -0.000000 -0.000000  0.206843  0.000000
  0C   1py        0.000000 -0.000000 -0.000000  0.206843  0.000000 -0.000001
  0C   3s        -0.000000  0.000000 -0.281190 -0.000000  0.000000  0.000000
  0C   2pz        0.000000 -0.797364 -0.000000  0.000000 -0.000000 -0.000000
  0C   2px       -0.000000 -0.000000 -0.000000  0.000000 -0.063864 -0.000000
  0C   2py       -0.000000 -0.000000 -0.000000 -0.063866 -0.000000  0.000000
  0C   4s         0.000000 -0.000000  7.511332 -0.000000  0.000006 -0.000000
  0C   3pz        0.000000 -0.001164 -0.000000 -0.000000  0.000000  0.000000
  0C   3px       -0.000000 -0.000000  0.000003  0.000002 -3.509561 -0.000000
  0C   3py       -0.000000  0.000000  0.000000 -3.509565 -0.000002  0.000017
  0C   1dz2       0.000000 -0.000000  0.015548  0.000000 -0.000000 -0.000000
  0C   1dxz      -0.014429 -0.000000  0.000000  0.000000 -0.000000  0.000000
  0C   1dyz       0.000000  0.000000 -0.000000 -0.000000 -0.000000  0.000000
  0C   1dx2y2     0.000000  0.000000 -0.000000 -0.000000  0.014551  0.000000
  0C   1dxy      -0.000000  0.000000 -0.000000 -0.014551 -0.000000  0.000000
  0C   2dz2      -0.000000  0.000000 -0.130774  0.000000 -0.000000 -0.000000
  0C   2dxz      -0.003137  0.000000 -0.000000 -0.000000  0.000000 -0.000000
  0C   2dyz       0.000000 -0.000000  0.000000  0.000000 -0.000000  0.000000
  0C   2dx2y2    -0.000000 -0.000000 -0.000000  0.000000 -0.232956 -0.000000
  0C   2dxy       0.000000 -0.000000  0.000000  0.232956  0.000000 -0.000001
  0C   3dz2       0.000000 -0.000000  0.711189  0.000000  0.000000 -0.000000
  0C   3dxz      -0.660503 -0.000001  0.000000  0.000000 -0.000000 -0.000000
  0C   3dyz       0.000000  0.000000  0.000000 -0.000000 -0.000000  0.000000
  0C   3dx2y2     0.000000 -0.000000 -0.000000  0.000000 -0.801767 -0.000000
  0C   3dxy      -0.000000  0.000000  0.000000  0.801769  0.000000 -0.000004
  0C   1f0        0.000000 -0.008894 -0.000000  0.000000 -0.000000 -0.000000
  0C   1f+1       0.000000  0.000000 -0.000000 -0.000000  0.049371  0.000000
  0C   1f-1       0.000000 -0.000000  0.000000  0.049371  0.000000 -0.000000
  0C   1f+2      -0.007094 -0.000000 -0.000000  0.000000 -0.000000 -0.000000
  0C   1f-2      -0.000000  0.000000 -0.000000 -0.000000 -0.000000  0.000000
  0C   1f+3      -0.000000  0.000000 -0.036158  0.000000 -0.000000 -0.000000
  0C   1f-3       0.000000 -0.000000 -0.000000 -0.000000  0.000000 -0.032276
  1H   1s        -0.000000 -0.000000  0.031723  0.000000 -0.049437 -0.000000
  1H   2s        -0.000000  0.000000 -0.363082 -0.000001  1.374088  0.000000
  1H   3s        -0.000000  0.000000 -1.891359 -0.000002  4.710934  0.000000
  1H   1pz       -0.012671  0.010059  0.000000 -0.000000  0.000000 -0.000000
  1H   1px        0.000000  0.000000  0.004873  0.000000 -0.004524 -0.000000
  1H   1py        0.000000  0.000000  0.000000 -0.010403 -0.000000  0.016391
  1H   2pz        0.036301 -0.068947 -0.000000  0.000000 -0.000000  0.000000
  1H   2px       -0.000000 -0.000000  0.048450  0.000000 -0.167405 -0.000000
  1H   2py       -0.000000 -0.000000 -0.000000  0.056339  0.000000 -0.090284
  1H   3pz       -0.376569  0.530441 -0.000000 -0.000000  0.000000 -0.000000
  1H   3px        0.000000 -0.000000  1.373765  0.000001 -2.283455 -0.000000
  1H   3py        0.000000 -0.000000 -0.000000 -0.722441 -0.000000  1.089551
  1H   1dz2       0.000000 -0.000000  0.013433  0.000000 -0.036694 -0.000000
  1H   1dxz       0.005802 -0.004936  0.000000  0.000000 -0.000000 -0.000000
  1H   1dyz      -0.000000 -0.000000 -0.000000  0.000000 -0.000000 -0.000000
  1H   1dx2y2    -0.000000  0.000000 -0.027610 -0.000000  0.067792  0.000000
  1H   1dxy      -0.000000  0.000000  0.000000  0.012348  0.000000  0.002659
  2H   1s        -0.000000 -0.000000  0.031723 -0.042813  0.024718  0.000000
  2H   2s         0.000000 -0.000000 -0.363082  1.189999 -0.687045 -0.000006
  2H   3s         0.000000 -0.000000 -1.891356  4.079792 -2.355467 -0.000020
  2H   1pz        0.006335  0.010059 -0.000000  0.000000 -0.000000 -0.000000
  2H   1px        0.000000 -0.000000 -0.002437 -0.002546 -0.008933 -0.014195
  2H   1py        0.000000 -0.000000  0.004220 -0.005994 -0.002546 -0.008195
  2H   2pz       -0.018150 -0.068947 -0.000000 -0.000000  0.000000  0.000000
  2H   2px        0.000000  0.000000 -0.024225  0.096885  0.000404  0.078188
  2H   2py       -0.000000  0.000000  0.041959 -0.111469  0.096884  0.045142
  2H   3pz        0.188284  0.530440 -0.000000  0.000000 -0.000000 -0.000000
  2H   3px        0.000000 -0.000000 -0.686882  0.675932 -1.112698 -0.943579
  2H   3py       -0.000000 -0.000000  1.189715 -1.893207  0.675937 -0.544764
  2H   1dz2      -0.000000  0.000000  0.013433 -0.031778  0.018347  0.000000
  2H   1dxz       0.001585  0.002468 -0.000000  0.000000 -0.000000 -0.000000
  2H   1dyz      -0.002435 -0.004274  0.000000 -0.000000  0.000000  0.000000
  2H   1dx2y2    -0.000000 -0.000000  0.013805 -0.034701  0.007687  0.002303
  2H   1dxy      -0.000000  0.000000  0.023911 -0.047757  0.034701 -0.001329
  3H   1s         0.000000 -0.000000  0.031723  0.042813  0.024718 -0.000000
  3H   2s        -0.000000  0.000000 -0.363082 -1.189999 -0.687046  0.000006
  3H   3s        -0.000000  0.000000 -1.891356 -4.079790 -2.355471  0.000020
  3H   1pz        0.006335  0.010059  0.000000  0.000000 -0.000000 -0.000000
  3H   1px        0.000000  0.000000 -0.002437  0.002546 -0.008933  0.014195
  3H   1py        0.000000  0.000000 -0.004220 -0.005994  0.002546 -0.008195
  3H   2pz       -0.018150 -0.068947 -0.000000 -0.000000  0.000000  0.000000
  3H   2px       -0.000000 -0.000000 -0.024225 -0.096885  0.000404 -0.078188
  3H   2py       -0.000000  0.000000 -0.041959 -0.111469 -0.096884  0.045142
  3H   3pz        0.188284  0.530440  0.000000  0.000000 -0.000000 -0.000000
  3H   3px       -0.000000  0.000000 -0.686882 -0.675931 -1.112699  0.943579
  3H   3py       -0.000000  0.000000 -1.189715 -1.893206 -0.675939 -0.544764
  3H   1dz2       0.000000 -0.000000  0.013433  0.031778  0.018347 -0.000000
  3H   1dxz       0.001585  0.002468  0.000000  0.000000 -0.000000 -0.000000
  3H   1dyz       0.002435  0.004274  0.000000  0.000000 -0.000000  0.000000
  3H   1dx2y2     0.000000 -0.000000  0.013805  0.034701  0.007687 -0.002303
  3H   1dxy      -0.000000  0.000000 -0.023911 -0.047757 -0.034701 -0.001329
                     18        19        20        21        22        23   
                   0.69344   0.69344   0.70184   0.79559   0.79559   0.84203
                   0.00000   0.00000   0.00000   0.00000   0.00000   0.00000
                  --------  --------  --------  --------  --------  --------
  0C   1s        -0.000000  0.000000 -0.000000  0.000000  0.000000 -0.050740
  0C   2s        -0.000000  0.000000 -0.000000  0.000000  0.000000 -0.062542
  0C   1pz        0.000000 -0.000000  0.061778 -0.000000  0.000000 -0.000000
  0C   1px        0.000000 -0.000000  0.000000  0.000000  0.095163  0.000000
  0C   1py       -0.000000 -0.000000 -0.000000 -0.095163  0.000000 -0.000000
  0C   3s         0.000000 -0.000000  0.000000 -0.000000 -0.000001  0.948209
  0C   2pz        0.000001  0.000000  0.434623 -0.000000  0.000000 -0.000000
  0C   2px        0.000000 -0.000000  0.000000 -0.000000 -0.231689  0.000001
  0C   2py       -0.000000 -0.000000 -0.000000  0.231691 -0.000000  0.000000
  0C   4s        -0.000000  0.000000 -0.000000  0.000000  0.000024-10.222673
  0C   3pz       -0.000014 -0.000000 -3.457777  0.000000 -0.000000  0.000000
  0C   3px        0.000000  0.000000 -0.000000 -0.000003 -6.007729 -0.000007
  0C   3py        0.000000  0.000000  0.000000  6.007728 -0.000003 -0.000000
  0C   1dz2      -0.000000 -0.000000 -0.000000  0.000000  0.000000 -0.021715
  0C   1dxz       0.008324  0.000000 -0.000000 -0.000000  0.000000 -0.000000
  0C   1dyz       0.000000 -0.008324 -0.000000 -0.000000  0.000000  0.000000
  0C   1dx2y2    -0.000000  0.000000 -0.000000  0.000000  0.021950  0.000000
  0C   1dxy      -0.000000  0.000000  0.000000  0.021950 -0.000000  0.000000
  0C   2dz2       0.000000  0.000000  0.000000 -0.000000 -0.000001  0.335686
  0C   2dxz      -0.036037 -0.000000  0.000000  0.000000 -0.000000  0.000000
  0C   2dyz      -0.000000  0.036037  0.000000 -0.000000 -0.000000 -0.000000
  0C   2dx2y2     0.000000 -0.000000 -0.000000 -0.000000 -0.335602 -0.000001
  0C   2dxy       0.000000 -0.000000  0.000000 -0.335602  0.000000 -0.000000
  0C   3dz2       0.000000  0.000000  0.000000 -0.000000 -0.000002  1.199692
  0C   3dxz       2.273481  0.000000 -0.000009  0.000000  0.000000 -0.000000
  0C   3dyz       0.000000 -2.273484 -0.000000 -0.000000  0.000000  0.000000
  0C   3dx2y2    -0.000000 -0.000000 -0.000000  0.000000  0.049261 -0.000015
  0C   3dxy       0.000000  0.000000  0.000000  0.049260 -0.000000 -0.000000
  0C   1f0        0.000000  0.000000  0.007708 -0.000000 -0.000000  0.000000
  0C   1f+1      -0.000000  0.000000  0.000000  0.000000  0.091028  0.000000
  0C   1f-1       0.000000  0.000000  0.000000 -0.091029  0.000000 -0.000000
  0C   1f+2       0.003819  0.000000 -0.000000  0.000000 -0.000000  0.000000
  0C   1f-2      -0.000000  0.003819  0.000000  0.000000  0.000000  0.000000
  0C   1f+3       0.000000  0.000000  0.000000 -0.000000 -0.000000  0.228967
  0C   1f-3       0.000000  0.000000 -0.000000  0.000000 -0.000000  0.000000
  1H   1s        -0.000000  0.000000 -0.000000  0.000000  0.017447  0.042838
  1H   2s        -0.000000  0.000000  0.000000  0.000001  2.647617  2.363295
  1H   3s         0.000000 -0.000000  0.000000  0.000001  2.116426  1.656011
  1H   1pz       -0.015494 -0.000000  0.010300 -0.000000  0.000000 -0.000000
  1H   1px       -0.000000  0.000000 -0.000000  0.000000  0.019091  0.012965
  1H   1py        0.000000 -0.000000 -0.000000 -0.010180  0.000000  0.000000
  1H   2pz        0.093694  0.000000 -0.049202 -0.000000  0.000000  0.000000
  1H   2px        0.000000 -0.000000 -0.000000 -0.000000 -0.370624 -0.348411
  1H   2py       -0.000000  0.000000  0.000000  0.083755 -0.000000 -0.000000
  1H   3pz       -2.358447 -0.000000  1.432071 -0.000000 -0.000000 -0.000000
  1H   3px       -0.000000  0.000000 -0.000000 -0.000000 -0.135529 -0.644112
  1H   3py       -0.000000 -0.000000 -0.000000 -1.817417  0.000001  0.000000
  1H   1dz2       0.000000 -0.000000  0.000000 -0.000000 -0.039376 -0.038982
  1H   1dxz       0.013345  0.000000 -0.011446  0.000000 -0.000000 -0.000000
  1H   1dyz      -0.000000  0.007353  0.000000  0.000000  0.000000 -0.000000
  1H   1dx2y2    -0.000000  0.000000 -0.000000  0.000000  0.061147  0.066823
  1H   1dxy       0.000000 -0.000000  0.000000  0.001565 -0.000000 -0.000000
  2H   1s         0.000000  0.000000  0.000000 -0.015110 -0.008724  0.042838
  2H   2s         0.000000  0.000000  0.000000 -2.292911 -1.323814  2.363280
  2H   3s        -0.000000 -0.000000 -0.000000 -1.832883 -1.058219  1.656009
  2H   1pz        0.007747  0.013418  0.010300 -0.000000  0.000000 -0.000000
  2H   1px       -0.000000  0.000000 -0.000000  0.003859  0.012408 -0.006483
  2H   1py        0.000000  0.000000  0.000000 -0.016863 -0.003859  0.011228
  2H   2pz       -0.046847 -0.081141 -0.049201  0.000000 -0.000000  0.000000
  2H   2px        0.000000 -0.000000  0.000000 -0.124218 -0.155473  0.174205
  2H   2py       -0.000000 -0.000000 -0.000000  0.298908  0.124218 -0.301732
  2H   3pz        1.179232  2.042482  1.432058 -0.000000  0.000000 -0.000000
  2H   3px       -0.000000 -0.000000 -0.000000 -0.845650  1.329182  0.322054
  2H   3py        0.000000  0.000000 -0.000000 -0.352707  0.845653 -0.557828
  2H   1dz2      -0.000000  0.000000  0.000000  0.034100  0.019688 -0.038982
  2H   1dxz      -0.002178  0.008962  0.005723  0.000000 -0.000000  0.000000
  2H   1dyz      -0.008962 -0.008170 -0.009913 -0.000000  0.000000 -0.000000
  2H   1dx2y2    -0.000000 -0.000000 -0.000000  0.025800  0.016461 -0.033412
  2H   1dxy      -0.000000  0.000000  0.000000  0.046252  0.025800 -0.057871
  3H   1s         0.000000  0.000000  0.000000  0.015110 -0.008724  0.042838
  3H   2s        -0.000000 -0.000000 -0.000000  2.292909 -1.323817  2.363280
  3H   3s         0.000000  0.000000  0.000000  1.832882 -1.058221  1.656009
  3H   1pz        0.007747 -0.013418  0.010300 -0.000000  0.000000 -0.000000
  3H   1px       -0.000000  0.000000 -0.000000 -0.003859  0.012408 -0.006483
  3H   1py        0.000000  0.000000  0.000000 -0.016863  0.003859 -0.011228
  3H   2pz       -0.046847  0.081141 -0.049201  0.000000 -0.000000  0.000000
  3H   2px        0.000000  0.000000  0.000000  0.124218 -0.155473  0.174205
  3H   2py       -0.000000 -0.000000 -0.000000  0.298908 -0.124219  0.301732
  3H   3pz        1.179232 -2.042482  1.432058 -0.000000  0.000000 -0.000000
  3H   3px       -0.000000  0.000000  0.000000  0.845651  1.329181  0.322054
  3H   3py        0.000000  0.000000  0.000000 -0.352707 -0.845653  0.557828
  3H   1dz2      -0.000000 -0.000000 -0.000000 -0.034100  0.019688 -0.038982
  3H   1dxz      -0.002178 -0.008962  0.005723 -0.000000 -0.000000 -0.000000
  3H   1dyz       0.008962 -0.008170  0.009913 -0.000000 -0.000000 -0.000000
  3H   1dx2y2     0.000000  0.000000  0.000000 -0.025800  0.016461 -0.033412
  3H   1dxy      -0.000000  0.000000  0.000000  0.046252 -0.025800  0.057871
                     24        25        26        27        28        29   
                   0.91242   0.91242   0.95988   1.01042   1.01042   1.62926
                   0.00000   0.00000   0.00000   0.00000   0.00000   0.00000
                  --------  --------  --------  --------  --------  --------
  0C   1s        -0.000000  0.000000 -0.091002  0.000000 -0.000000 -0.000000
  0C   2s        -0.000000  0.000000 -0.176425  0.000000 -0.000000 -0.000000
  0C   1pz       -0.000000  0.000000 -0.000000  0.000000  0.000000  0.000000
  0C   1px        0.081434 -0.000000 -0.000000  0.134463  0.000000 -0.000000
  0C   1py       -0.000000 -0.081434 -0.000000 -0.000000  0.134463 -0.000000
  0C   3s        -0.000001 -0.000000  1.153854 -0.000002 -0.000000  0.000000
  0C   2pz       -0.000000  0.000000 -0.000000 -0.000000  0.000000 -0.000000
  0C   2px        0.081702 -0.000000  0.000000  1.862601  0.000001  0.000000
  0C   2py       -0.000000 -0.081702 -0.000000 -0.000001  1.862604  0.000000
  0C   4s         0.000044 -0.000000  5.405791 -0.000001  0.000000  0.000000
  0C   3pz        0.000000 -0.000000  0.000000  0.000000 -0.000000  0.000000
  0C   3px        2.583096 -0.000006 -0.000006  2.581355  0.000001  0.000000
  0C   3py       -0.000006 -2.583097 -0.000000 -0.000001  2.581355  0.000000
  0C   1dz2       0.000000 -0.000000  0.002494  0.000000  0.000000  0.000000
  0C   1dxz      -0.000000  0.000000 -0.000000 -0.000000  0.000000 -0.000000
  0C   1dyz      -0.000000 -0.000000  0.000000  0.000000 -0.000000  0.000465
  0C   1dx2y2     0.001563 -0.000000  0.000000 -0.021252 -0.000000 -0.000000
  0C   1dxy       0.000000  0.001563 -0.000000 -0.000000  0.021252  0.000000
  0C   2dz2      -0.000001  0.000000  0.242364  0.000000  0.000000 -0.000000
  0C   2dxz       0.000000 -0.000000 -0.000000  0.000000 -0.000000 -0.000000
  0C   2dyz      -0.000000  0.000000  0.000000  0.000000  0.000000  0.758176
  0C   2dx2y2    -0.187550  0.000000  0.000001  0.326667  0.000000  0.000000
  0C   2dxy      -0.000000 -0.187549 -0.000000  0.000000 -0.326667 -0.000000
  0C   3dz2      -0.000007  0.000000 -0.329280  0.000001 -0.000000  0.000000
  0C   3dxz      -0.000000  0.000000 -0.000000 -0.000000  0.000000  0.000000
  0C   3dyz       0.000000 -0.000000 -0.000000 -0.000000 -0.000000 -0.319989
  0C   3dx2y2    -5.857067  0.000014  0.000018  2.866001  0.000001 -0.000000
  0C   3dxy      -0.000014 -5.857070 -0.000000  0.000001 -2.866004 -0.000000
  0C   1f0        0.000000  0.000000 -0.000000 -0.000000  0.000000  0.000000
  0C   1f+1       0.056662 -0.000000 -0.000000 -0.100968 -0.000000 -0.000000
  0C   1f-1      -0.000000 -0.056661 -0.000000  0.000000 -0.100969 -0.000000
  0C   1f+2       0.000000 -0.000000 -0.000000  0.000000 -0.000000  0.000000
  0C   1f-2       0.000000 -0.000000 -0.000000  0.000000 -0.000000  0.012104
  0C   1f+3      -0.000001  0.000000  0.085600 -0.000000 -0.000000 -0.000000
  0C   1f-3       0.000000  0.000000  0.000000 -0.000000  0.000000 -0.000000
  1H   1s        -0.056513  0.000000 -0.070075 -0.077785 -0.000000  0.000000
  1H   2s         1.972350 -0.000005 -1.089792 -3.903567 -0.000001 -0.000000
  1H   3s        -1.082985  0.000003 -1.057313 -3.136717 -0.000001 -0.000000
  1H   1pz       -0.000000 -0.000000  0.000000  0.000000  0.000000  0.000000
  1H   1px        0.017263 -0.000000  0.009996 -0.021323 -0.000000 -0.000000
  1H   1py        0.000000  0.010883  0.000000  0.000000 -0.005377  0.000000
  1H   2pz       -0.000000  0.000000 -0.000000 -0.000000  0.000000 -0.000000
  1H   2px       -0.247468  0.000001 -0.195420  0.417071  0.000000  0.000000
  1H   2py       -0.000000 -0.088494 -0.000000 -0.000000  0.104689  0.000000
  1H   3pz       -0.000000  0.000000  0.000000  0.000000 -0.000000  0.000000
  1H   3px        2.165573 -0.000005  1.234453  1.745301  0.000000  0.000000
  1H   3py        0.000010  4.301429  0.000000 -0.000000  1.412120  0.000000
  1H   1dz2       0.001930 -0.000000  0.000882  0.079390  0.000000  0.000000
  1H   1dxz      -0.000000 -0.000000  0.000000  0.000000 -0.000000 -0.000000
  1H   1dyz       0.000000 -0.000000  0.000000  0.000000 -0.000000  0.018634
  1H   1dx2y2     0.009217 -0.000000  0.011912 -0.149535 -0.000000 -0.000000
  1H   1dxy      -0.000000 -0.031097 -0.000000  0.000000 -0.018395 -0.000000
  2H   1s         0.028256  0.048942 -0.070075  0.038892 -0.067363  0.000000
  2H   2s        -0.986198 -1.708112 -1.089782  1.951787 -3.380592 -0.000000
  2H   3s         0.541485  0.937887 -1.057315  1.568359 -2.716476  0.000000
  2H   1pz       -0.000000  0.000000 -0.000000 -0.000000  0.000000 -0.031053
  2H   1px       -0.003846  0.012188 -0.004998 -0.009364  0.006905 -0.000000
  2H   1py       -0.012188 -0.010227  0.008657  0.006905 -0.017337  0.000000
  2H   2pz        0.000000 -0.000000 -0.000000  0.000000 -0.000000  0.464779
  2H   2px        0.004503 -0.145476  0.097710  0.182785 -0.135266  0.000000
  2H   2py        0.145478  0.163478 -0.169240 -0.135266  0.338977 -0.000000
  2H   3pz       -0.000000  0.000000 -0.000000  0.000000  0.000000 -0.314191
  2H   3px       -2.684676  2.800302 -0.617220  1.495413 -0.144269  0.000000
  2H   3py       -2.800290 -0.548813  1.069080 -0.144273  1.662005 -0.000000
  2H   1dz2      -0.000965 -0.001672  0.000882 -0.039695  0.068754  0.000000
  2H   1dxz      -0.000000  0.000000 -0.000000  0.000000 -0.000000  0.000734
  2H   1dyz      -0.000000  0.000000  0.000000 -0.000000  0.000000  0.017362
  2H   1dx2y2    -0.021018  0.017457 -0.005956 -0.023588  0.072716  0.000000
  2H   1dxy       0.017457 -0.000861 -0.010316 -0.072716  0.107553  0.000000
  3H   1s         0.028256 -0.048942 -0.070075  0.038892  0.067364 -0.000000
  3H   2s        -0.986190  1.708117 -1.089782  1.951785  3.380593  0.000000
  3H   3s         0.541481 -0.937889 -1.057315  1.568358  2.716477  0.000000
  3H   1pz       -0.000000  0.000000 -0.000000 -0.000000  0.000000  0.031053
  3H   1px       -0.003846 -0.012188 -0.004998 -0.009364 -0.006905 -0.000000
  3H   1py        0.012188 -0.010227 -0.008657 -0.006905 -0.017337 -0.000000
  3H   2pz        0.000000  0.000000 -0.000000  0.000000 -0.000000 -0.464779
  3H   2px        0.004503  0.145476  0.097710  0.182785  0.135266  0.000000
  3H   2py       -0.145477  0.163479  0.169240  0.135266  0.338977  0.000000
  3H   3pz       -0.000000  0.000000 -0.000000 -0.000000  0.000000  0.314191
  3H   3px       -2.684689 -2.800289 -0.617220  1.495413  0.144270 -0.000000
  3H   3py        2.800288 -0.548827 -1.069080  0.144272  1.662005  0.000000
  3H   1dz2      -0.000965  0.001672  0.000882 -0.039695 -0.068754 -0.000000
  3H   1dxz       0.000000 -0.000000 -0.000000  0.000000 -0.000000 -0.000734
  3H   1dyz      -0.000000 -0.000000  0.000000  0.000000  0.000000  0.017362
  3H   1dx2y2    -0.021018 -0.017457 -0.005956 -0.023588 -0.072716 -0.000000
  3H   1dxy      -0.017457 -0.000861  0.010316  0.072716  0.107553  0.000000
                     30        31        32        33        34        35   
                   1.62926   1.80352   1.80352   1.96216   1.99377   2.11584
                   0.00000   0.00000   0.00000   0.00000   0.00000   0.00000
                  --------  --------  --------  --------  --------  --------
  0C   1s        -0.000000  0.000000 -0.000000 -0.016724 -0.000000 -0.000000
  0C   2s        -0.000000  0.000000 -0.000000 -0.065710 -0.000000  0.000000
  0C   1pz        0.000000 -0.000000 -0.000000 -0.000000  0.000000 -0.313268
  0C   1px       -0.000000  0.000000 -0.162812  0.000000  0.000000  0.000000
  0C   1py        0.000000 -0.162812 -0.000000  0.000000 -0.000000  0.000000
  0C   3s         0.000000 -0.000000  0.000001  0.494808  0.000000 -0.000000
  0C   2pz       -0.000000  0.000000  0.000000  0.000000 -0.000000 -0.048496
  0C   2px        0.000000  0.000000 -0.952591 -0.000002 -0.000000  0.000000
  0C   2py       -0.000000 -0.952593 -0.000000 -0.000000 -0.000000 -0.000000
  0C   4s        -0.000000 -0.000000  0.000002  6.620958  0.000000 -0.000000
  0C   3pz        0.000000  0.000000 -0.000000  0.000000 -0.000000  1.000369
  0C   3px        0.000000  0.000000 -2.912897 -0.000001 -0.000000  0.000000
  0C   3py        0.000000 -2.912900 -0.000000 -0.000000 -0.000002 -0.000000
  0C   1dz2       0.000000  0.000000 -0.000000  0.005182  0.000000 -0.000000
  0C   1dxz      -0.000465 -0.000000  0.000000  0.000000  0.000000 -0.000000
  0C   1dyz      -0.000000  0.000000 -0.000000 -0.000000  0.000000  0.000000
  0C   1dx2y2    -0.000000 -0.000000  0.006884  0.000000  0.000000 -0.000000
  0C   1dxy      -0.000000 -0.006884 -0.000000 -0.000000 -0.000000 -0.000000
  0C   2dz2      -0.000000 -0.000000  0.000000 -1.247580 -0.000000  0.000000
  0C   2dxz      -0.758176 -0.000000 -0.000000 -0.000000  0.000000 -0.000000
  0C   2dyz      -0.000000  0.000000  0.000000 -0.000000  0.000000  0.000000
  0C   2dx2y2     0.000000  0.000000 -1.043379 -0.000001 -0.000000  0.000000
  0C   2dxy      -0.000000  1.043379  0.000000  0.000000  0.000001  0.000000
  0C   3dz2       0.000000  0.000000 -0.000000  0.136940  0.000000  0.000000
  0C   3dxz       0.319989 -0.000000  0.000000  0.000000 -0.000000  0.000000
  0C   3dyz       0.000000  0.000000 -0.000000 -0.000000  0.000000  0.000000
  0C   3dx2y2     0.000000  0.000000 -0.482524 -0.000002  0.000000 -0.000000
  0C   3dxy      -0.000000  0.482521  0.000000 -0.000000  0.000000  0.000000
  0C   1f0        0.000000 -0.000000 -0.000000 -0.000000  0.000000 -0.100699
  0C   1f+1      -0.000000 -0.000000  0.039853  0.000000  0.000000 -0.000000
  0C   1f-1       0.000000  0.039853  0.000000  0.000000 -0.000000  0.000000
  0C   1f+2       0.012104 -0.000000 -0.000000  0.000000 -0.000000  0.000000
  0C   1f-2      -0.000000 -0.000000 -0.000000 -0.000000  0.000000  0.000000
  0C   1f+3      -0.000000  0.000000 -0.000000 -0.036720  0.000000  0.000000
  0C   1f-3       0.000000 -0.000000 -0.000000 -0.000000  0.016702  0.000000
  1H   1s         0.000000  0.000000 -0.088591  0.060007 -0.000000  0.000000
  1H   2s        -0.000000 -0.000000  2.619482 -1.509668 -0.000000  0.000000
  1H   3s        -0.000000 -0.000000  2.674799 -1.185637 -0.000000  0.000000
  1H   1pz        0.035857  0.000000  0.000000  0.000000  0.000000 -0.044561
  1H   1px       -0.000000 -0.000000  0.008811  0.000963  0.000000  0.000000
  1H   1py        0.000000 -0.034454 -0.000000  0.000000 -0.049318 -0.000000
  1H   2pz       -0.536681 -0.000000  0.000000  0.000000 -0.000000  0.715141
  1H   2px        0.000000  0.000000 -0.160139  0.004981 -0.000000  0.000000
  1H   2py       -0.000000  0.535710  0.000000 -0.000000  0.764068  0.000000
  1H   3pz        0.362796  0.000000 -0.000000 -0.000000  0.000000 -0.686265
  1H   3px        0.000000  0.000000 -1.597002  1.017151  0.000000  0.000000
  1H   3py        0.000000 -0.390829 -0.000000  0.000000 -0.637138 -0.000000
  1H   1dz2       0.000000  0.000000 -0.101270  0.005188 -0.000000 -0.000000
  1H   1dxz      -0.016938 -0.000000 -0.000000  0.000000 -0.000000  0.060769
  1H   1dyz      -0.000000 -0.000000  0.000000  0.000000  0.000000  0.000000
  1H   1dx2y2    -0.000000 -0.000000  0.125362 -0.121382 -0.000000  0.000000
  1H   1dxy      -0.000000  0.046392  0.000000  0.000000 -0.013629 -0.000000
  2H   1s         0.000000 -0.076722  0.044296  0.060008 -0.000000 -0.000000
  2H   2s        -0.000000  2.268540 -1.309742 -1.509674  0.000001  0.000000
  2H   3s        -0.000000  2.316445 -1.337400 -1.185640  0.000002  0.000000
  2H   1pz       -0.017929 -0.000000  0.000000 -0.000000  0.000000 -0.044561
  2H   1px        0.000000 -0.018734 -0.023638 -0.000481  0.042710  0.000000
  2H   1py        0.000000 -0.002006 -0.018734  0.000834  0.024659  0.000000
  2H   2pz        0.268340  0.000000 -0.000000 -0.000000 -0.000000  0.715141
  2H   2px       -0.000000  0.301313  0.361748 -0.002491 -0.661702 -0.000000
  2H   2py       -0.000000  0.013822  0.301312  0.004315 -0.382034 -0.000000
  2H   3pz       -0.181398 -0.000000  0.000000  0.000000  0.000000 -0.686265
  2H   3px        0.000000  0.522288 -0.692373 -0.508576  0.551777  0.000000
  2H   3py        0.000000 -1.295459  0.522288  0.880879  0.318567 -0.000000
  2H   1dz2       0.000000 -0.087703  0.050635  0.005188 -0.000000 -0.000000
  2H   1dxz      -0.018210 -0.000000 -0.000000 -0.000000  0.000000 -0.030385
  2H   1dyz      -0.000734  0.000000  0.000000  0.000000 -0.000000  0.052628
  2H   1dx2y2     0.000000 -0.074372 -0.003454  0.060691 -0.011803 -0.000000
  2H   1dxy       0.000000 -0.082423  0.074372  0.105120  0.006815 -0.000000
  3H   1s         0.000000  0.076722  0.044296  0.060008  0.000000  0.000000
  3H   2s         0.000000 -2.268540 -1.309742 -1.509674 -0.000001 -0.000000
  3H   3s         0.000000 -2.316445 -1.337400 -1.185640 -0.000002 -0.000000
  3H   1pz       -0.017929 -0.000000  0.000000  0.000000  0.000000 -0.044561
  3H   1px       -0.000000  0.018734 -0.023638 -0.000481 -0.042710 -0.000000
  3H   1py        0.000000 -0.002006  0.018734 -0.000834  0.024659  0.000000
  3H   2pz        0.268340  0.000000 -0.000000 -0.000000 -0.000000  0.715141
  3H   2px        0.000000 -0.301313  0.361748 -0.002491  0.661702  0.000000
  3H   2py       -0.000000  0.013823 -0.301312 -0.004315 -0.382034 -0.000000
  3H   3pz       -0.181398 -0.000000  0.000000  0.000000  0.000000 -0.686265
  3H   3px        0.000000 -0.522287 -0.692374 -0.508576 -0.551777 -0.000000
  3H   3py        0.000000 -1.295459 -0.522288 -0.880879  0.318567  0.000000
  3H   1dz2      -0.000000  0.087703  0.050635  0.005188  0.000000  0.000000
  3H   1dxz      -0.018210  0.000000 -0.000000  0.000000  0.000000 -0.030385
  3H   1dyz       0.000734  0.000000 -0.000000  0.000000  0.000000 -0.052628
  3H   1dx2y2    -0.000000  0.074372 -0.003453  0.060691  0.011803  0.000000
  3H   1dxy       0.000000 -0.082423 -0.074372 -0.105120  0.006815 -0.000000
                     36        37        38        39        40        41   
                   2.35012   2.35012   2.41113   2.41113   2.67964   2.72234
                   0.00000   0.00000   0.00000   0.00000   0.00000   0.00000
                  --------  --------  --------  --------  --------  --------
  0C   1s        -0.000000  0.000000  0.000000 -0.000000  0.021157 -0.000000
  0C   2s        -0.000000  0.000000  0.000000 -0.000000  0.143939 -0.000000
  0C   1pz       -0.000000 -0.000000  0.000000 -0.000000  0.000000  0.000000
  0C   1px        0.000000 -0.391037 -0.000000  0.000000  0.000002  0.000000
  0C   1py       -0.391037 -0.000000  0.000000  0.000000  0.000000 -0.267999
  0C   3s         0.000000 -0.000006 -0.000000  0.000000 -1.204749  0.000000
  0C   2pz        0.000000 -0.000000 -0.000000  0.000000 -0.000000 -0.000000
  0C   2px       -0.000001  3.342775  0.000000 -0.000000  0.000005  0.000005
  0C   2py        3.342786  0.000001 -0.000000 -0.000000  0.000000 -2.555218
  0C   4s         0.000000 -0.000017 -0.000000  0.000000 -9.168444  0.000000
  0C   3pz        0.000000  0.000000  0.000000  0.000000  0.000000  0.000000
  0C   3px       -0.000002  5.103477  0.000000 -0.000000 -0.000001  0.000004
  0C   3py        5.103483  0.000002 -0.000000 -0.000000  0.000000 -2.410672
  0C   1dz2      -0.000000  0.000000 -0.000000  0.000000 -0.012438  0.000000
  0C   1dxz       0.000000 -0.000000 -0.001218 -0.000000  0.000000 -0.000000
  0C   1dyz      -0.000000  0.000000 -0.000000  0.001218  0.000000  0.000000
  0C   1dx2y2     0.000000 -0.043380 -0.000000 -0.000000 -0.000000 -0.000000
  0C   1dxy       0.043380  0.000000 -0.000000 -0.000000  0.000000 -0.075740
  0C   2dz2      -0.000000  0.000001  0.000000 -0.000000  0.525039 -0.000000
  0C   2dxz       0.000000  0.000000  0.818949  0.000000 -0.000000 -0.000000
  0C   2dyz      -0.000000 -0.000000  0.000000 -0.818949 -0.000000  0.000000
  0C   2dx2y2    -0.000001  2.102104  0.000000 -0.000000  0.000003  0.000002
  0C   2dxy      -2.102106 -0.000001  0.000000  0.000000 -0.000000  1.300360
  0C   3dz2      -0.000000  0.000001  0.000000 -0.000000  0.839712 -0.000000
  0C   3dxz      -0.000000 -0.000000 -0.866433 -0.000000  0.000000 -0.000000
  0C   3dyz       0.000000  0.000000 -0.000000  0.866434  0.000000 -0.000000
  0C   3dx2y2    -0.000000  0.626129 -0.000000  0.000000  0.000006  0.000003
  0C   3dxy      -0.626131 -0.000000  0.000000  0.000000 -0.000000  1.701404
  0C   1f0       -0.000000  0.000000  0.000000  0.000000 -0.000000 -0.000000
  0C   1f+1       0.000000 -0.467256 -0.000000  0.000000 -0.000000 -0.000001
  0C   1f-1      -0.467257 -0.000000  0.000000  0.000000 -0.000000  0.350562
  0C   1f+2      -0.000000  0.000000 -0.216241 -0.000000  0.000000  0.000000
  0C   1f-2       0.000000  0.000000  0.000000 -0.216241 -0.000000  0.000000
  0C   1f+3      -0.000000  0.000001  0.000000 -0.000000  0.842681 -0.000000
  0C   1f-3       0.000001  0.000000  0.000000 -0.000000 -0.000000 -0.000001
  1H   1s        -0.000000  0.614951 -0.000000 -0.000000 -0.584537  0.000001
  1H   2s         0.000002 -6.016570 -0.000000  0.000000  3.197778 -0.000008
  1H   3s         0.000001 -2.873525 -0.000000  0.000000  1.304690 -0.000002
  1H   1pz        0.000000 -0.000000  0.055504  0.000000 -0.000000 -0.000000
  1H   1px        0.000000 -0.072824 -0.000000 -0.000000  0.004914 -0.000000
  1H   1py       -0.047641 -0.000000  0.000000  0.000000  0.000000 -0.010491
  1H   2pz       -0.000000  0.000000 -0.899735 -0.000000  0.000000  0.000000
  1H   2px       -0.000001  1.563290  0.000000  0.000000 -0.461740  0.000004
  1H   2py        0.757830  0.000000 -0.000000 -0.000000 -0.000000  0.213387
  1H   3pz        0.000000  0.000000  1.057801  0.000000 -0.000000  0.000000
  1H   3px       -0.000001  1.856967  0.000000 -0.000000 -1.020595  0.000000
  1H   3py       -0.789581 -0.000000  0.000000  0.000000  0.000000 -0.649220
  1H   1dz2      -0.000000  0.306615 -0.000000 -0.000000 -0.175976  0.000000
  1H   1dxz      -0.000000  0.000000 -0.097835 -0.000000 -0.000000 -0.000000
  1H   1dyz      -0.000000 -0.000000  0.000000 -0.121733 -0.000000  0.000000
  1H   1dx2y2     0.000000 -0.433749 -0.000000  0.000000  0.137110 -0.000000
  1H   1dxy       0.026282  0.000000 -0.000000  0.000000 -0.000000  0.136587
  2H   1s         0.532564 -0.307476 -0.000000 -0.000000 -0.584537 -0.337454
  2H   2s        -5.210521  3.008293  0.000000  0.000000  3.197792  4.023698
  2H   3s        -2.488551  1.436765  0.000000  0.000000  1.304687  0.800642
  2H   1pz       -0.000000 -0.000000 -0.027752 -0.048068  0.000000  0.000000
  2H   1px        0.010904 -0.053937 -0.000000 -0.000000 -0.002457 -0.048716
  2H   1py       -0.066528  0.010904  0.000000  0.000000  0.004256  0.073887
  2H   2pz        0.000000  0.000000  0.449868  0.779194 -0.000000 -0.000000
  2H   2px       -0.348777  0.959197  0.000000  0.000000  0.230874  1.014432
  2H   2py        1.361931 -0.348776 -0.000000 -0.000000 -0.399888 -1.543661
  2H   3pz       -0.000000 -0.000000 -0.528901 -0.916084 -0.000000 -0.000000
  2H   3px       -1.145990 -0.127945  0.000000  0.000000  0.510298 -0.265921
  2H   3py        1.195333 -1.145991 -0.000000 -0.000000 -0.883856 -0.188631
  2H   1dz2       0.265537 -0.153308 -0.000000 -0.000000 -0.175976 -0.085355
  2H   1dxz       0.000000  0.000000  0.066841 -0.095076  0.000000  0.000000
  2H   1dyz       0.000000 -0.000000  0.095076  0.042943 -0.000000 -0.000000
  2H   1dx2y2     0.176439 -0.128149 -0.000000  0.000000 -0.068554 -0.063458
  2H   1dxy       0.331883 -0.176438 -0.000000 -0.000000 -0.118740  0.026673
  3H   1s        -0.532564 -0.307476  0.000000  0.000000 -0.584537  0.337453
  3H   2s         5.210518  3.008297 -0.000000 -0.000000  3.197792 -4.023689
  3H   3s         2.488550  1.436767 -0.000000 -0.000000  1.304687 -0.800640
  3H   1pz       -0.000000  0.000000 -0.027752  0.048068  0.000000 -0.000000
  3H   1px       -0.010904 -0.053937  0.000000  0.000000 -0.002457  0.048716
  3H   1py       -0.066528 -0.010904  0.000000  0.000000 -0.004256  0.073887
  3H   2pz        0.000000 -0.000000  0.449868 -0.779194 -0.000000  0.000000
  3H   2px        0.348776  0.959197 -0.000000 -0.000000  0.230874 -1.014430
  3H   2py        1.361930  0.348777 -0.000000 -0.000000  0.399888 -1.543658
  3H   3pz       -0.000000 -0.000000 -0.528901  0.916084  0.000000 -0.000000
  3H   3px        1.145990 -0.127944 -0.000000 -0.000000  0.510298  0.265923
  3H   3py        1.195332  1.145992 -0.000000 -0.000000  0.883856 -0.188632
  3H   1dz2      -0.265537 -0.153308  0.000000  0.000000 -0.175976  0.085355
  3H   1dxz       0.000000  0.000000  0.066841  0.095076 -0.000000  0.000000
  3H   1dyz      -0.000000  0.000000 -0.095076  0.042943 -0.000000 -0.000000
  3H   1dx2y2    -0.176439 -0.128149  0.000000  0.000000 -0.068554  0.063459
  3H   1dxy       0.331883  0.176438 -0.000000 -0.000000  0.118740  0.026674
                     42        43        44        45        46        47   
[...]
    6. BD*( 1) C  1- H  2       0.00592
    7. BD*( 1) C  1- H  3       0.00592
    8. BD*( 1) C  1- H  4       0.00592
    9. RY ( 1) C  1             0.00291
   10. RY ( 2) C  1             0.00291
   11. RY ( 3) C  1             0.00147
   12. RY ( 4) C  1             0.00121
   13. RY ( 5) C  1             0.00121
   14. RY ( 6) C  1             0.00072
   15. RY ( 7) C  1             0.00072
   16. RY ( 8) C  1             0.00031
   17. RY ( 9) C  1             0.00025
   18. RY (10) C  1             0.00022
   19. RY (11) C  1             0.00017
   20. RY (12) C  1             0.00014
   21. RY (13) C  1             0.00014
   22. RY (14) C  1             0.00014
   23. RY (15) C  1             0.00014
   24. RY (16) C  1             0.00014
   25. RY (17) C  1             0.00008
   26. RY (18) C  1             0.00008
   27. RY (19) C  1             0.00007
   28. RY (20) C  1             0.00005
   29. RY (21) C  1             0.00004
   30. RY (22) C  1             0.00004
   31. RY (23) C  1             0.00003
   32. RY (24) C  1             0.00003
   33. RY (25) C  1             0.00002
   34. RY (26) C  1             0.00001
   35. RY (27) C  1             0.00001
   36. RY (28) C  1             0.00001
   37. RY (29) C  1             0.00001
   38. RY (30) C  1             0.00001
   39. RY ( 1) H  2             0.00129
   40. RY ( 2) H  2             0.00061
   41. RY ( 3) H  2             0.00054
   42. RY ( 4) H  2             0.00031
   43. RY ( 5) H  2             0.00014
   44. RY ( 6) H  2             0.00008
   45. RY ( 7) H  2             0.00007
   46. RY ( 8) H  2             0.00004
   47. RY ( 9) H  2             0.00004
   48. RY (10) H  2             0.00004
   49. RY (11) H  2             0.00002
   50. RY (12) H  2             0.00001
   51. RY (13) H  2             0.00002
   52. RY (14) H  2             0.00001
   53. RY (15) H  2             0.00001
   54. RY (16) H  2             0.00001
   55. RY ( 1) H  3             0.00129
   56. RY ( 2) H  3             0.00061
   57. RY ( 3) H  3             0.00054
   58. RY ( 4) H  3             0.00031
   59. RY ( 5) H  3             0.00014
   60. RY ( 6) H  3             0.00008
   61. RY ( 7) H  3             0.00007
   62. RY ( 8) H  3             0.00004
   63. RY ( 9) H  3             0.00004
   64. RY (10) H  3             0.00004
   65. RY (11) H  3             0.00002
   66. RY (12) H  3             0.00002
   67. RY (13) H  3             0.00001
   68. RY (14) H  3             0.00001
   69. RY (15) H  3             0.00001
   70. RY (16) H  3             0.00001
   71. RY ( 1) H  4             0.00129
   72. RY ( 2) H  4             0.00061
   73. RY ( 3) H  4             0.00054
   74. RY ( 4) H  4             0.00031
   75. RY ( 5) H  4             0.00014
   76. RY ( 6) H  4             0.00008
   77. RY ( 7) H  4             0.00007
   78. RY ( 8) H  4             0.00004
   79. RY ( 9) H  4             0.00004
   80. RY (10) H  4             0.00004
   81. RY (11) H  4             0.00002
   82. RY (12) H  4             0.00002
   83. RY (13) H  4             0.00001
   84. RY (14) H  4             0.00001
   85. RY (15) H  4             0.00001
   86. RY (16) H  4             0.00001
          -------------------------------
                 Total Lewis    3.95573  ( 98.8933%)
           Valence non-Lewis    0.02128  (  0.5320%)
           Rydberg non-Lewis    0.02299  (  0.5748%)
          -------------------------------
               Total unit  1    4.00000  (100.0000%)
              Charge unit  1    0.50000

 $CHOOSE
  ALPHA
   LONE 1 1 END
   BOND S 1 2 S 1 3 S 1 4 END
  END
  BETA
   BOND S 1 2 S 1 3 S 1 4 END
  END
 $END

 NBO analysis completed in 0.18 CPU seconds (0 wall seconds)
 Maximum scratch memory used by NBO was 510233 words (3.89 MB)
Stopping NBO...Storing NBOs: CH3·.pmp2re.nbo

                                *** returned from   NBO  program ***


----------------------------------
MP2 DERIVATIVE INTEGRAL GENERATION
----------------------------------


Input Wavefunction Amplitudes       ... CH3·.mp2tbb.tmp
Input Correlated Electron Density   ... CH3·.pmp2re
Input Energy Weighted Density       ... CH3·.wmp2.tmp
Input SCF Electron Density          ... CH3·.scfp

One-Electron Terms    ...
                        ... One-Electron Terms done
Prescreening matrices              ... done

Batch handling in the gradient evaluation:
Memory available                      ... 3000.0 MB
Memory per occupied orbital in Q2     ...    0.5 MB
Memory per occupied orbital in Q3     ...    0.0 MB
Total memory requirement per |i>      ...    0.5 MB
Max. Number of orbitals possible      ...   5555
Number of orbitals treated per batch  ...      9
Number of batches to be done          ...      1
Batch   0: i=    0 ...     8

---------------------------------------
MP2 TOTAL ENERGY:      -39.756557687 Eh
---------------------------------------

-----------------------------------
NORM OF THE MP2 GRADIENT:  0.000000
-----------------------------------

-------------------------   --------------------
FINAL SINGLE POINT ENERGY       -39.756557686501
-------------------------   --------------------

                                *** OPTIMIZATION RUN DONE ***

                            ***************************************
                            *     ORCA property calculations      *
                            ***************************************

                                    ---------------------
                                    Active property flags
                                    ---------------------
   (+) Dipole Moment


------------------------------------------------------------------------------
                       ORCA ELECTRIC PROPERTIES CALCULATION
------------------------------------------------------------------------------

Dipole Moment Calculation                       ... on
Quadrupole Moment Calculation                   ... off
Polarizability Calculation                      ... off
GBWName                                         ... CH3·.gbw
Electron density file                           ... CH3·.scfp
The origin for moment calculation is the CENTER OF MASS  = ( 0.000000, -0.000000  0.000000)

-------------
DIPOLE MOMENT
-------------
                                X             Y             Z
Electronic contribution:     -0.00000      -0.00000       0.00000
Nuclear contribution   :      0.00000       0.00000      -0.00000
                        -----------------------------------------
Total Dipole Moment    :      0.00000      -0.00000      -0.00000
                        -----------------------------------------
Magnitude (a.u.)       :      0.00000
Magnitude (Debye)      :      0.00000



--------------------
Rotational spectrum 
--------------------
 
Rotational constants in cm-1:     9.676965     9.676962     4.838482 
Rotational constants in MHz : 290108.115811 290108.015968 145054.032945 

 Dipole components along the rotational axes: 
x,y,z [a.u.] :    -0.000000    -0.000000    -0.000000 
x,y,z [Debye]:    -0.000000    -0.000000    -0.000000 

 

                         *** MP2 UNRELAXED DENSITY ***

------------------------------------------------------------------------------
                       ORCA ELECTRIC PROPERTIES CALCULATION
------------------------------------------------------------------------------

Dipole Moment Calculation                       ... on
Quadrupole Moment Calculation                   ... off
Polarizability Calculation                      ... off
GBWName                                         ... CH3·.gbw
Electron density file                           ... CH3·.pmp2ur
The origin for moment calculation is the CENTER OF MASS  = ( 0.000000, -0.000000  0.000000)

-------------
DIPOLE MOMENT
-------------
                                X             Y             Z
Electronic contribution:     -0.00000      -0.00000       0.00000
Nuclear contribution   :      0.00000       0.00000      -0.00000
                        -----------------------------------------
Total Dipole Moment    :      0.00000      -0.00000      -0.00000
                        -----------------------------------------
Magnitude (a.u.)       :      0.00000
Magnitude (Debye)      :      0.00000



--------------------
Rotational spectrum 
--------------------
 
Rotational constants in cm-1:     9.676965     9.676962     4.838482 
Rotational constants in MHz : 290108.115811 290108.015968 145054.032945 

 Dipole components along the rotational axes: 
x,y,z [a.u.] :    -0.000000    -0.000000    -0.000000 
x,y,z [Debye]:    -0.000000    -0.000000    -0.000000 

 

                           *** MP2 RELAXED DENSITY ***

------------------------------------------------------------------------------
                       ORCA ELECTRIC PROPERTIES CALCULATION
------------------------------------------------------------------------------

Dipole Moment Calculation                       ... on
Quadrupole Moment Calculation                   ... off
Polarizability Calculation                      ... off
GBWName                                         ... CH3·.gbw
Electron density file                           ... CH3·.pmp2re
The origin for moment calculation is the CENTER OF MASS  = ( 0.000000, -0.000000  0.000000)

-------------
DIPOLE MOMENT
-------------
                                X             Y             Z
Electronic contribution:     -0.00000      -0.00000       0.00000
Nuclear contribution   :      0.00000       0.00000      -0.00000
                        -----------------------------------------
Total Dipole Moment    :      0.00000      -0.00000      -0.00000
                        -----------------------------------------
Magnitude (a.u.)       :      0.00000
Magnitude (Debye)      :      0.00000



--------------------
Rotational spectrum 
--------------------
 
Rotational constants in cm-1:     9.676965     9.676962     4.838482 
Rotational constants in MHz : 290108.115811 290108.015968 145054.032945 

 Dipole components along the rotational axes: 
x,y,z [a.u.] :    -0.000000    -0.000000    -0.000000 
x,y,z [Debye]:    -0.000000    -0.000000    -0.000000 

 
------------------------------------------------------------------------------
                         ORCA MP2 H E S S I A N CALCULATION
------------------------------------------------------------------------------

Calculating analytic MP2 second derivatives ... (>CH3·.last_mp2) done

-----------------------
VIBRATIONAL FREQUENCIES
-----------------------

Scaling factor for frequencies =  1.000000000  (already applied!)

   0:         0.00 cm**-1
   1:         0.00 cm**-1
   2:         0.00 cm**-1
   3:         0.00 cm**-1
   4:         0.00 cm**-1
   5:         0.00 cm**-1
   6:       469.72 cm**-1
   7:      1443.73 cm**-1
   8:      1443.77 cm**-1
   9:      3164.08 cm**-1
  10:      3361.31 cm**-1
  11:      3361.31 cm**-1


------------
NORMAL MODES
------------

These modes are the Cartesian displacements weighted by the diagonal matrix
M(i,i)=1/sqrt(m[i]) where m[i] is the mass of the displaced atom
Thus, these vectors are normalized but *not* orthogonal

                  0          1          2          3          4          5    
      0       0.000000   0.000000   0.000000   0.000000   0.000000   0.000000
      1       0.000000   0.000000   0.000000   0.000000   0.000000   0.000000
      2       0.000000   0.000000   0.000000   0.000000   0.000000   0.000000
      3       0.000000   0.000000   0.000000   0.000000   0.000000   0.000000
      4       0.000000   0.000000   0.000000   0.000000   0.000000   0.000000
      5       0.000000   0.000000   0.000000   0.000000   0.000000   0.000000
      6       0.000000   0.000000   0.000000   0.000000   0.000000   0.000000
      7       0.000000   0.000000   0.000000   0.000000   0.000000   0.000000
      8       0.000000   0.000000   0.000000   0.000000   0.000000   0.000000
      9       0.000000   0.000000   0.000000   0.000000   0.000000   0.000000
     10       0.000000   0.000000   0.000000   0.000000   0.000000   0.000000
     11       0.000000   0.000000   0.000000   0.000000   0.000000   0.000000
                  6          7          8          9         10         11    
      0       0.000000  -0.092263  -0.000012  -0.000001  -0.100431  -0.002406
      1       0.000000  -0.000012   0.092263  -0.000000   0.002406  -0.100432
      2       0.143847  -0.000000   0.000000  -0.000000   0.000000   0.000000
      3      -0.000000  -0.076488  -0.000010   0.577360   0.812001   0.019452
      4       0.000000   0.000110  -0.809407  -0.000000   0.000340  -0.014201
      5      -0.571346   0.000000  -0.000000   0.000000  -0.000000  -0.000000
      6       0.000000   0.587985  -0.383527  -0.288674   0.200922  -0.353151
      7       0.000000   0.383625  -0.144929   0.499995  -0.372271   0.596886
      8      -0.571346   0.000000  -0.000000   0.000000  -0.000000  -0.000000
      9      -0.000000   0.587881   0.383686  -0.288674   0.183782   0.362367
     10      -0.000000  -0.383586  -0.145033  -0.499995   0.343263   0.614027
     11      -0.571346   0.000000  -0.000000   0.000000  -0.000000  -0.000000


-----------
IR SPECTRUM
-----------

 Mode    freq (cm**-1)   T**2         TX         TY         TZ
-------------------------------------------------------------------
   6:       469.72   67.912741  ( -0.000000   0.000000  -8.240919)
   7:      1443.73    2.020902  (  1.421584   0.000192   0.000000)
   8:      1443.77    2.018872  (  0.000192  -1.420870  -0.000000)
   9:      3164.08    0.000000  (  0.000070   0.000001   0.000000)
  10:      3361.31    1.987375  ( -1.409339   0.033757  -0.000000)
  11:      3361.31    1.986830  ( -0.033762  -1.409145  -0.000000)

The first frequency considered to be a vibration is 6
The total number of vibrations considered is 6


--------------------------
THERMOCHEMISTRY AT 298.15K
--------------------------

Temperature         ... 298.15 K
Pressure            ... 1.00 atm
Total Mass          ... 15.03 AMU

Throughout the following assumptions are being made:
  (1) The electronic state is orbitally nondegenerate
      but the spin degeneracy is treated
  (2) There are no thermally accessible electronically excited states
  (3) Hindered rotations indicated by low frequency modes are not
      treated as such but are treated as vibrations and this may
      cause some error
  (4) All equations used are the standard statistical mechanics
      equations for an ideal gas
  (5) All vibrations are strictly harmonic

freq.     469.72  E(vib)   ...       0.16 
freq.    1443.73  E(vib)   ...       0.00 
freq.    1443.77  E(vib)   ...       0.00 
freq.    3164.08  E(vib)   ...       0.00 
freq.    3361.31  E(vib)   ...       0.00 
freq.    3361.31  E(vib)   ...       0.00 

------------
INNER ENERGY
------------

The inner energy is: U= E(el) + E(ZPE) + E(vib) + E(rot) + E(trans)
    E(el)   - is the total energy from the electronic structure calculation
              = E(kin-el) + E(nuc-el) + E(el-el) + E(nuc-nuc)
    E(ZPE)  - the the zero temperature vibrational energy from the frequency calculation
    E(vib)  - the the finite temperature correction to E(ZPE) due to population
              of excited vibrational states
    E(rot)  - is the rotational thermal energy
    E(trans)- is the translational thermal energy

Summary of contributions to the inner energy U:
Electronic energy                ...    -39.75655769 Eh
Zero point energy                ...      0.03017184 Eh      18.93 kcal/mol
Thermal vibrational correction   ...      0.00025993 Eh       0.16 kcal/mol
Thermal rotational correction    ...      0.00141627 Eh       0.89 kcal/mol
Thermal translational correction ...      0.00141627 Eh       0.89 kcal/mol
-----------------------------------------------------------------------
Total thermal energy                    -39.72329338 Eh


Summary of corrections to the electronic energy:
(perhaps to be used in another calculation)
Total thermal correction                  0.00309247 Eh       1.94 kcal/mol
Non-thermal (ZPE) correction              0.03017184 Eh      18.93 kcal/mol
-----------------------------------------------------------------------
Total correction                          0.03326431 Eh      20.87 kcal/mol


--------
ENTHALPY
--------

The enthalpy is H = U + kB*T
                kB is Boltzmann's constant
Total free energy                 ...    -39.72329338 Eh 
Thermal Enthalpy correction       ...      0.00094421 Eh       0.59 kcal/mol
-----------------------------------------------------------------------
Total Enthalpy                    ...    -39.72234917 Eh


Note: Rotational entropy computed according to Herzberg 
Infrared and Raman Spectra, Chapter V,1, Van Nostrand Reinhold, 1945 
Point Group:  D3h, Symmetry Number:   6  
Rotational constants in cm-1:     9.676965     9.676962     4.838482 

Vibrational entropy computed according to the QRRHO of S. Grimme
Chem.Eur.J. 2012 18 9955


-------
ENTROPY
-------

The entropy contributions are T*S = T*(S(el)+S(vib)+S(rot)+S(trans))
     S(el)   - electronic entropy
     S(vib)  - vibrational entropy
     S(rot)  - rotational entropy
     S(trans)- translational entropy
The entropies will be listed as mutliplied by the temperature to get
units of energy

Electronic entropy                ...      0.00065446 Eh      0.41 kcal/mol
Vibrational entropy               ...      0.00036559 Eh      0.23 kcal/mol
Rotational entropy                ...      0.00493171 Eh      3.09 kcal/mol
Translational entropy             ...      0.01618771 Eh     10.16 kcal/mol
-----------------------------------------------------------------------
Final entropy term                ...      0.02213947 Eh     13.89 kcal/mol

In case the symmetry of your molecule has not been determined correctly
or in case you have a reason to use a different symmetry number we print 
out the resulting rotational entropy values for sn=1,12 :
 --------------------------------------------------------
|  sn= 1 | S(rot)=       0.00662346 Eh      4.16 kcal/mol|
|  sn= 2 | S(rot)=       0.00596900 Eh      3.75 kcal/mol|
|  sn= 3 | S(rot)=       0.00558617 Eh      3.51 kcal/mol|
|  sn= 4 | S(rot)=       0.00531455 Eh      3.33 kcal/mol|
|  sn= 5 | S(rot)=       0.00510386 Eh      3.20 kcal/mol|
|  sn= 6 | S(rot)=       0.00493171 Eh      3.09 kcal/mol|
|  sn= 7 | S(rot)=       0.00478617 Eh      3.00 kcal/mol|
|  sn= 8 | S(rot)=       0.00466009 Eh      2.92 kcal/mol|
|  sn= 9 | S(rot)=       0.00454888 Eh      2.85 kcal/mol|
|  sn=10 | S(rot)=       0.00444940 Eh      2.79 kcal/mol|
|  sn=11 | S(rot)=       0.00435941 Eh      2.74 kcal/mol|
|  sn=12 | S(rot)=       0.00427726 Eh      2.68 kcal/mol|
 --------------------------------------------------------


-------------------
GIBBS FREE ENERGY
-------------------

The Gibbs free energy is G = H - T*S

Total enthalpy                    ...    -39.72234917 Eh 
Total entropy correction          ...     -0.02213947 Eh    -13.89 kcal/mol
-----------------------------------------------------------------------
Final Gibbs free energy         ...    -39.74448864 Eh

For completeness - the Gibbs free energy minus the electronic energy
G-E(el)                           ...      0.01206904 Eh      7.57 kcal/mol


Timings for individual modules:

Sum of individual times         ...       86.988 sec (=   1.450 min)
GTO integral calculation        ...        2.333 sec (=   0.039 min)   2.7 %
SCF iterations                  ...        9.812 sec (=   0.164 min)  11.3 %
MP2 module                      ...       16.927 sec (=   0.282 min)  19.5 %
Geometry relaxation             ...        0.057 sec (=   0.001 min)   0.1 %
Analytical frequency calculation...       57.859 sec (=   0.964 min)  66.5 %
                             ****ORCA TERMINATED NORMALLY****
TOTAL RUN TIME: 0 days 0 hours 1 minutes 27 seconds 718 msec
