
                                 *****************
                                 * O   R   C   A *
                                 *****************

           --- An Ab Initio, DFT and Semiempirical electronic structure package ---

                  #######################################################
                  #                        -***-                        #
                  #          Department of theory and spectroscopy      #
                  #               Directorship: Frank Neese             #
                  #        Max Planck Institute fuer Kohlenforschung    #
                  #                Kaiser Wilhelm Platz 1               #
                  #                 D-45470 Muelheim/Ruhr               #
                  #                      Germany                        #
                  #                                                     #
                  #                  All rights reserved                #
                  #                        -***-                        #
                  #######################################################


                         Program Version 4.2.1 -  RELEASE  -


 With contributions from (in alphabetic order):
   Daniel Aravena         : Magnetic Suceptibility
   Michael Atanasov       : Ab Initio Ligand Field Theory (pilot matlab implementation)
   Alexander A. Auer      : GIAO ZORA, VPT2
   Ute Becker             : Parallelization
   Giovanni Bistoni       : ED, misc. LED, open-shell LED, HFLD
   Martin Brehm           : Molecular dynamics
   Dmytro Bykov           : SCF Hessian
   Vijay G. Chilkuri      : MRCI spin determinant printing, contributions to CSF-ICE
   Dipayan Datta          : RHF DLPNO-CCSD density
   Achintya Kumar Dutta   : EOM-CC, STEOM-CC
   Dmitry Ganyushin       : Spin-Orbit,Spin-Spin,Magnetic field MRCI
   Miquel Garcia          : C-PCM Hessian, Gaussian charge scheme
   Yang Guo               : DLPNO-NEVPT2, CIM, IAO-localization
   Andreas Hansen         : Spin unrestricted coupled pair/coupled cluster methods
   Benjamin Helmich-Paris : CASSCF linear response (MC-RPA)
   Lee Huntington         : MR-EOM, pCC
   Robert Izsak           : Overlap fitted RIJCOSX, COSX-SCS-MP3, EOM
   Christian Kollmar      : KDIIS, OOCD, Brueckner-CCSD(T), CCSD density
   Simone Kossmann        : Meta GGA functionals, TD-DFT gradient, OOMP2, MP2 Hessian
   Martin Krupicka        : AUTO-CI
   Lucas Lang             : DCDCAS
   Dagmar Lenk            : GEPOL surface, SMD
   Dimitrios Liakos       : Extrapolation schemes; Compound Job, initial MDCI parallelization
   Dimitrios Manganas     : Further ROCIS development; embedding schemes
   Dimitrios Pantazis     : SARC Basis sets
   Taras Petrenko         : DFT Hessian,TD-DFT gradient, ASA, ECA, R-Raman, ABS, FL, XAS/XES, NRVS
   Peter Pinski           : DLPNO-MP2, DLPNO-MP2 Gradient
   Christoph Reimann      : Effective Core Potentials
   Marius Retegan         : Local ZFS, SOC
   Christoph Riplinger    : Optimizer, TS searches, QM/MM, DLPNO-CCSD(T), (RO)-DLPNO pert. Triples
   Tobias Risthaus        : Range-separated hybrids, TD-DFT gradient, RPA, STAB
   Michael Roemelt        : Original ROCIS implementation
   Masaaki Saitow         : Open-shell DLPNO-CCSD energy and density
   Barbara Sandhoefer     : DKH picture change effects
   Avijit Sen             : IP-ROCIS
   Kantharuban Sivalingam : CASSCF convergence, NEVPT2, FIC-MRCI
   Bernardo de Souza      : ESD, SOC TD-DFT
   Georgi Stoychev        : AutoAux, RI-MP2 NMR
   Willem Van den Heuvel  : Paramagnetic NMR
   Boris Wezisla          : Elementary symmetry handling
   Frank Wennmohs         : Technical directorship


 We gratefully acknowledge several colleagues who have allowed us to
 interface, adapt or use parts of their codes:
   Stefan Grimme, W. Hujo, H. Kruse,             : VdW corrections, initial TS optimization,
                  C. Bannwarth                     DFT functionals, gCP, sTDA/sTD-DF
   Ed Valeev, F. Pavosevic, A. Kumar             : LibInt (2-el integral package), F12 methods
   Garnet Chan, S. Sharma, J. Yang, R. Olivares  : DMRG
   Ulf Ekstrom                                   : XCFun DFT Library
   Mihaly Kallay                                 : mrcc  (arbitrary order and MRCC methods)
   Andreas Klamt, Michael Diedenhofen            : otool_cosmo (COSMO solvation model)
   Jiri Pittner, Ondrej Demel                    : Mk-CCSD
   Frank Weinhold                                : gennbo (NPA and NBO analysis)
   Christopher J. Cramer and Donald G. Truhlar   : smd solvation model
   Lars Goerigk                                  : TD-DFT with DH, B97 family of functionals
   V. Asgeirsson, H. Jonsson                     : NEB implementation
   FAccTs GmbH                                   : IRC, NEB, NEB-TS, Multilevel, MM, QM/MM, CI optimization
   S Lehtola, MJT Oliveira, MAL Marques          : LibXC Library


 Your calculation uses the libint2 library for the computation of 2-el integrals
 For citations please refer to: http://libint.valeyev.net

 Your ORCA version has been built with support for libXC version: 4.2.3
 For citations please refer to: https://tddft.org/programs/libxc/

 This ORCA versions uses:
   CBLAS   interface :  Fast vector & matrix operations
   LAPACKE interface :  Fast linear algebra routines
   SCALAPACK package :  Parallel linear algebra routines


----- Orbital basis set information -----
Your calculation utilizes the basis: 6-311G(3df,3pd)
   H, Li - Ne  : R. Krishnan, J. S. Binkley, R. Seeger and J. A. Pople, J. Chem. Phys. 72, 650 (1980).
   Na - Ar     : A. D. McLean and G. S. Chandler J. Chem. Phys. 72, 5639, (1980).
   K  - Ca     : J.-P. Blaudeau, M. P. McGrath, L. A. Curtiss and L. Radom, J. Chem. Phys. 107, 5016 (1997).
   Ga - Kr     : L. A. Curtiss, M. P. McGrath, J.-P. Blandeau, N. E. Davis, R. C. Binning and L. Radom, J. Chem. Phys. 103, 6104 (1995).
   Pol./Diff.
   H, Li - Cl  : T. Clark, J. Chandrasekhar and P. v. R. Schleyer, J. Comp. Chem. 4, 294 (1983).
   H - Ne      : M. J. Frisch, J. A. Pople and J. S. Binkley, J. Chem. Phys. 80, 3265 (1984).

================================================================================
                                        WARNINGS
                       Please study these warnings very carefully!
================================================================================


WARNING: Geometry Optimization
  ===> : Switching off AutoStart
         For restart on a previous wavefunction, please use MOREAD

WARNING: Post HF methods need fully converged wavefunctions
  ===> : Setting SCFConvForced true
         You can overwrite this default with %scf ConvForced false 


INFO   : the flag for use of LIBINT has been found!

================================================================================
                                       INPUT FILE
================================================================================
NAME = H3CHCl‡.inp
|  1> ! UHF MP2 6-311G(3df,3pd) OptTS Freq IRC NoFrozenCore TightOpt TightSCF Grid4 FinalGrid5 PrintBasis PrintMOs NBO
|  2> %maxcore 2000
|  3> 
|  4> *xyz 0 2
|  5> C        0.000084000      0.000009000      1.937284000
|  6> H       -1.056738000      0.000072000      2.154239000
|  7> H        0.528433000     -0.915241000      2.154332000
|  8> H       -0.000001000     -0.000097000      0.597378000
|  9> H        0.528527000      0.915228000      2.154201000
| 10> Cl      -0.000303000      0.000029000     -0.853145000
| 11> *
| 12> 
| 13> %pal
| 14>  nprocs 12
| 15> end
| 16> 
| 17> %geom
| 18>  inhess read
| 19>  inhessname "freq.hess"
| 20>  ts_mode
| 21>   {B 0 3}
| 22>  end
| 23>  ts_active_atoms
| 24>   {0 3 5}
| 25>  end
| 26>  modify_internal
| 27>   {B 0 3 A}
| 28>   {B 3 5 A}
| 29>  end
| 30> end
| 31> 
| 32> %irc
| 33>  maxiter 1000
| 34>  de_init_displ 0.25
| 35> end
| 36> 
| 37>                          ****END OF INPUT****
================================================================================

                       *****************************
                       * Geometry Optimization Run *
                       *****************************

Geometry optimization settings:
Update method            Update   .... Bofill
Choice of coordinates    CoordSys .... Z-matrix Internals
Initial Hessian          InHess   .... Read

Convergence Tolerances:
Energy Change            TolE     ....  1.0000e-06 Eh
Max. Gradient            TolMAXG  ....  1.0000e-04 Eh/bohr
RMS Gradient             TolRMSG  ....  3.0000e-05 Eh/bohr
Max. Displacement        TolMAXD  ....  1.0000e-03 bohr
RMS Displacement         TolRMSD  ....  6.0000e-04 bohr
Strict Convergence                ....  False
------------------------------------------------------------------------------
                        ORCA OPTIMIZATION COORDINATE SETUP
------------------------------------------------------------------------------

The optimization will be done in new redundant internal coordinates
Making redundant internal coordinates   ...  (new redundants) Bond   3,  0 is already included
Bond   5,  3 is already included
done
Following TS mode number                ...    internal coordinate number:  3
TS-active-atoms for coordinate setup... 0 3 5 
Evaluating the initial hessian          ... (Reading Exact Hessian)...  
InHessName: freq.hess	The file <freq.hess> is opened as a .hess file
done
done
Diagonalizing the Hessian               .... done
Dimension of the hessian                .... 14
Lowest eigenvalues of the non projected Hessian:
 -0.035903064  0.000000000  0.000000000  0.001547554  0.019552186
done
Evaluating the coordinates              ...  done
Calculating the B-matrix                .... done
Calculating the G-matrix                .... done
Diagonalizing the G-matrix              .... done
The first mode is                       ....    2
The number of degrees of freedom        ....   12

    -----------------------------------------------------------------
                    Redundant Internal Coordinates


    -----------------------------------------------------------------
         Definition                    Initial Value    d2E/dq (diagonal element)
    -----------------------------------------------------------------
      1. B(H   1,C   0)                  1.0789         0.373695   
      2. B(H   2,C   0)                  1.0789         0.373680   
      3. B(H   3,C   0)                  1.3399        -0.016322   
      4. B(H   4,C   0)                  1.0789         0.373685   
      5. B(Cl  5,C   0)                  2.7904         0.039041   
      6. B(Cl  5,H   3)                  1.4505         0.017272   
      7. A(H   1,C   0,H   2)          116.0602         0.083683   
      8. A(H   1,C   0,H   4)          116.0611         0.083684   
      9. A(H   1,C   0,H   3)          101.5974         0.064698   
     10. A(H   2,C   0,H   4)          116.0621         0.083673   
     11. A(H   3,C   0,H   4)          101.6048         0.064698   
     12. A(H   2,C   0,H   3)          101.6040         0.064701   
     13. L(C   0,H   3,Cl  5,H   1, 1) 179.9917         0.019777   
     14. L(C   0,H   3,Cl  5,H   1, 2) 179.9831         0.001560   
    -----------------------------------------------------------------

Number of atoms                         .... 6
Number of degrees of freedom            .... 14

         *************************************************************
         *                GEOMETRY OPTIMIZATION CYCLE   1            *
         *************************************************************
---------------------------------
CARTESIAN COORDINATES (ANGSTROEM)
---------------------------------
  C      0.000084    0.000009    1.937284
  H     -1.056738    0.000072    2.154239
  H      0.528433   -0.915241    2.154332
  H     -0.000001   -0.000097    0.597378
  H      0.528527    0.915228    2.154201
  Cl    -0.000303    0.000029   -0.853145

----------------------------
CARTESIAN COORDINATES (A.U.)
----------------------------
  NO LB      ZA    FRAG     MASS         X           Y           Z
   0 C     6.0000    0    12.011    0.000159    0.000017    3.660936
   1 H     1.0000    0     1.008   -1.996945    0.000136    4.070922
   2 H     1.0000    0     1.008    0.998594   -1.729555    4.071097
   3 H     1.0000    0     1.008   -0.000002   -0.000183    1.128881
   4 H     1.0000    0     1.008    0.998771    1.729530    4.070850
   5 Cl   17.0000    0    35.453   -0.000573    0.000055   -1.612210

--------------------------------
INTERNAL COORDINATES (ANGSTROEM)
--------------------------------
 C      0   0   0     0.000000000000     0.00000000     0.00000000
 H      1   0   0     1.078861536842     0.00000000     0.00000000
 H      1   2   0     1.078862856254   116.06023616     0.00000000
 H      1   2   3     1.339906006889   101.59743710   109.20437234
 H      1   2   3     1.078856249506   116.06108958   218.41004330
 Cl     4   1   2     1.450523036911   179.98738136    48.90260338

---------------------------
INTERNAL COORDINATES (A.U.)
---------------------------
 C      0   0   0     0.000000000000     0.00000000     0.00000000
 H      1   0   0     2.038752841054     0.00000000     0.00000000
 H      1   2   0     2.038755334381   116.06023616     0.00000000
 H      1   2   3     2.532055398216   101.59743710   109.20437234
 H      1   2   3     2.038742849436   116.06108958   218.41004330
 Cl     4   1   2     2.741091290705   179.98738136    48.90260338

---------------------
BASIS SET INFORMATION
---------------------
There are 3 groups of distinct atoms

 Group   1 Type C   : 11s5p3d1f contracted to 4s3p3d1f pattern {6311/311/111/1}
 Group   2 Type H   : 5s3p1d contracted to 3s3p1d pattern {311/111/1}
 Group   3 Type Cl  : 13s10p3d1f contracted to 6s5p3d1f pattern {631111/52111/111/1}

Atom   0C    basis set group =>   1
Atom   1H    basis set group =>   2
Atom   2H    basis set group =>   2
Atom   3H    basis set group =>   2
Atom   4H    basis set group =>   2
Atom   5Cl   basis set group =>   3

-------------------------
BASIS SET IN INPUT FORMAT
-------------------------

 # Basis set for element : H 
 NewGTO H 
 S 3 
   1      33.8650000000      0.0254938145
   2       5.0947900000      0.1903731086
   3       1.1587900000      0.8521614860
 S 1 
   1       0.3258400000      1.0000000000
 S 1 
   1       0.1027410000      1.0000000000
 P 1 
   1       3.0000000000      1.0000000000
 P 1 
   1       0.7500000000      1.0000000000
 P 1 
   1       0.1875000000      1.0000000000
 D 1 
   1       1.0000000000      1.0000000000
  end;

 # Basis set for element : C 
 NewGTO C 
 S 6 
   1    4563.2400000000      0.0019666502
   2     682.0240000000      0.0152306019
   3     154.9730000000      0.0761269097
   4      44.4553000000      0.2608010331
   5      13.0290000000      0.6164620782
   6       1.8277300000      0.2210060280
 S 3 
   1      20.9642000000      0.1146600807
   2       4.8033100000      0.9199996477
   3       1.4593300000     -0.0030306821
 P 3 
   1      20.9642000000      0.0402486927
   2       4.8033100000      0.2375939567
   3       1.4593300000      0.8158538515
 S 1 
   1       0.4834560000      1.0000000000
 P 1 
   1       0.4834560000      1.0000000000
 S 1 
   1       0.1455850000      1.0000000000
 P 1 
   1       0.1455850000      1.0000000000
 D 1 
   1       2.5040000000      1.0000000000
 D 1 
   1       0.6260000000      1.0000000000
 D 1 
   1       0.1565000000      1.0000000000
 F 1 
   1       0.8000000000      1.0000000000
  end;

 # Basis set for element : Cl
 NewGTO Cl
 S 6 
   1  105819.0000000000      0.0007380002
   2   15872.0000000000      0.0057180019
   3    3619.6500000000      0.0294950099
   4    1030.8000000000      0.1172860392
   5     339.9080000000      0.3629491212
   6     124.5380000000      0.5841491951
 S 3 
   1     124.5380000000      0.1341769734
   2      49.5135000000      0.6242498762
   3      20.8056000000      0.2917559421
 S 1 
   1       6.5834600000      1.0000000000
 S 1 
   1       2.5646800000      1.0000000000
 S 1 
   1       0.5597630000      1.0000000000
 S 1 
   1       0.1832730000      1.0000000000
 P 5 
   1     589.7760000000      0.0023909997
   2     139.8490000000      0.0185039976
   3      45.1413000000      0.0813769893
   4      16.8733000000      0.2215519708
   5       6.7411000000      0.7725688983
 P 2 
   1       6.7411000000     -1.5722438126
   2       2.7715200000      0.9923888817
 P 1 
   1       1.0238700000      1.0000000000
 P 1 
   1       0.3813680000      1.0000000000
 P 1 
   1       0.1094370000      1.0000000000
 D 1 
   1       3.0000000000      1.0000000000
 D 1 
   1       0.7500000000      1.0000000000
 D 1 
   1       0.1875000000      1.0000000000
 F 1 
   1       0.7000000000      1.0000000000
  end;



           ************************************************************
           *        Program running with 12 parallel MPI-processes    *
           *              working on a common directory               *
           ************************************************************
------------------------------------------------------------------------------
                           ORCA GTO INTEGRAL CALCULATION
------------------------------------------------------------------------------

                         BASIS SET STATISTICS AND STARTUP INFO

 # of primitive gaussian shells          ...   83
 # of primitive gaussian functions       ...  189
 # of contracted shells                  ...   54
 # of contracted basis functions         ...  146
 Highest angular momentum                ...    3
 Maximum contraction depth               ...    6
 Integral package used                   ... LIBINT
 Integral threshhold            Thresh   ...  2.500e-11
 Primitive cut-off              TCut     ...  2.500e-12


------------------------------ INTEGRAL EVALUATION ----------------------------


 * One electron integrals 
 Pre-screening matrix                    ... done
 Shell pair data                         ... done (   0.000 sec)



           ************************************************************
           *        Program running with 12 parallel MPI-processes    *
           *              working on a common directory               *
           ************************************************************
-------------------------------------------------------------------------------
                                 ORCA SCF
-------------------------------------------------------------------------------

------------
SCF SETTINGS
------------
Hamiltonian:
 Ab initio Hamiltonian  Method          .... Hartree-Fock(GTOs)


General Settings:
 Integral files         IntName         .... H3CHCl‡
 Hartree-Fock type      HFTyp           .... UHF
 Total Charge           Charge          ....    0
 Multiplicity           Mult            ....    2
 Number of Electrons    NEL             ....   27
 Basis Dimension        Dim             ....  146
 Nuclear Repulsion      ENuc            ....     46.9210599865 Eh

Convergence Acceleration:
 DIIS                   CNVDIIS         .... on
   Start iteration      DIISMaxIt       ....    12
   Startup error        DIISStart       ....  0.200000
   # of expansion vecs  DIISMaxEq       ....     5
   Bias factor          DIISBfac        ....   1.050
   Max. coefficient     DIISMaxC        ....  10.000
 Newton-Raphson         CNVNR           .... off
 SOSCF                  CNVSOSCF        .... off
 Level Shifting         CNVShift        .... on
   Level shift para.    LevelShift      ....    0.2500
   Turn off err/grad.   ShiftErr        ....    0.0010
 Zerner damping         CNVZerner       .... off
 Static damping         CNVDamp         .... on
   Fraction old density DampFac         ....    0.7000
   Max. Damping (<1)    DampMax         ....    0.9800
   Min. Damping (>=0)   DampMin         ....    0.0000
   Turn off err/grad.   DampErr         ....    0.1000
 Fernandez-Rico         CNVRico         .... off

SCF Procedure:
 Maximum # iterations   MaxIter         ....   125
 SCF integral mode      SCFMode         .... Direct
   Integral package                     .... LIBINT
 Reset frequency        DirectResetFreq ....    20
 Integral Threshold     Thresh          ....  2.500e-11 Eh
 Primitive CutOff       TCut            ....  2.500e-12 Eh

Convergence Tolerance:
 Convergence Check Mode ConvCheckMode   .... Total+1el-Energy
 Convergence forced     ConvForced      .... 1
 Energy Change          TolE            ....  1.000e-08 Eh
 1-El. energy change                    ....  1.000e-05 Eh
 DIIS Error             TolErr          ....  5.000e-07


Diagonalization of the overlap matrix:
Smallest eigenvalue                        ... 9.691e-04
Time for diagonalization                   ...    0.007 sec
Threshold for overlap eigenvalues          ... 1.000e-08
Number of eigenvalues below threshold      ... 0
Time for construction of square roots      ...    0.012 sec
Total time needed                          ...    0.022 sec

-------------------
DFT GRID GENERATION
-------------------

General Integration Accuracy     IntAcc      ...  4.670
Radial Grid Type                 RadialGrid  ... Gauss-Chebyshev
Angular Grid (max. acc.)         AngularGrid ... Lebedev-302
Angular grid pruning method      GridPruning ... 3 (G Style)
Weight generation scheme         WeightScheme... Becke
Basis function cutoff            BFCut       ...    1.0000e-11
Integration weight cutoff        WCut        ...    1.0000e-14
Grids for H and He will be reduced by one unit

# of grid points (after initial pruning)     ...  26526 (   0.0 sec)
# of grid points (after weights+screening)   ...  25705 (   0.0 sec)
nearest neighbour list constructed           ...    0.0 sec
Grid point re-assignment to atoms done       ...    0.0 sec
Grid point division into batches done        ...    0.1 sec
Reduced shell lists constructed in    0.1 sec

Total number of grid points                  ...    25705
Total number of batches                      ...      405
Average number of points per batch           ...       63
Average number of grid points per atom       ...     4284
Average number of shells per batch           ...    45.29 (83.86%)
Average number of basis functions per batch  ...   126.03 (86.32%)
Average number of large shells per batch     ...    42.66 (94.20%)
Average number of large basis fcns per batch ...   117.06 (92.88%)
Maximum spatial batch extension              ...   1.47,  1.65,  3.00 au
Average spatial batch extension              ...   0.08,  0.08,  0.08 au

Time for grid setup =    0.249 sec

------------------------------
INITIAL GUESS: MODEL POTENTIAL
------------------------------
Loading Hartree-Fock densities                     ... done
Calculating cut-offs                               ... done
Setting up the integral package                    ... done
Initializing the effective Hamiltonian             ... done
Starting the Coulomb interaction                   ... done (   0.0 sec)
Reading the grid                                   ... done
Mapping shells                                     ... done
Starting the XC term evaluation                    ... done (   0.0 sec)
Transforming the Hamiltonian                       ... done (   0.0 sec)
Diagonalizing the Hamiltonian                      ... done (   0.0 sec)
Back transforming the eigenvectors                 ... done (   0.0 sec)
Now organizing SCF variables                       ... done
                      ------------------
                      INITIAL GUESS DONE (   0.5 sec)
                      ------------------
--------------
SCF ITERATIONS
--------------
ITER       Energy         Delta-E        Max-DP      RMS-DP      [F,P]     Damp
               ***  Starting incremental Fock matrix formation  ***
  0   -499.5504042344   0.000000000000 0.02856871  0.00036991  0.6490020 0.7000
  1   -499.5837523328  -0.033348098415 0.01972052  0.00028554  0.4561633 0.7000
  2   -499.6053569047  -0.021604571891 0.01159059  0.00019495  0.3205780 0.7000
  3   -499.6197723516  -0.014415446917 0.00647338  0.00013345  0.2253439 0.7000
                               ***Turning on DIIS***
  4   -499.6298382929  -0.010065941293 0.00367266  0.00009568  0.1584273 0.7000
  5   -499.7085985726  -0.078760279690 0.00353021  0.00008034  0.1113937 0.7000
  6   -499.7036659027   0.004932669899 0.01099435  0.00023096  0.0781305 0.0000
  7   -499.6581257667   0.045540135985 0.00287819  0.00005749  0.0053338 0.0000
  8   -499.6534562047   0.004669561962 0.00275645  0.00005621  0.0036326 0.0000
  9   -499.6559816433  -0.002525438595 0.00145070  0.00003116  0.0020874 0.0000
 10   -499.6552643434   0.000717299913 0.00081372  0.00001776  0.0011218 0.0000
 11   -499.6558076744  -0.000543331008 0.00084023  0.00001642  0.0006326 0.0000
 12   -499.6560036010  -0.000195926572 0.00035440  0.00000586  0.0001621 0.0000
 13   -499.6560615549  -0.000057953867 0.00025675  0.00000338  0.0000717 0.0000
 14   -499.6561970026  -0.000135447787 0.00011821  0.00000156  0.0000233 0.0000
 15   -499.6562158198  -0.000018817200 0.00002235  0.00000051  0.0000102 0.0000
 16   -499.6562453909  -0.000029571054 0.00001390  0.00000026  0.0000037 0.0000
 17   -499.6562425222   0.000002868710 0.00000391  0.00000008  0.0000011 0.0000
                            ***DIIS convergence achieved***

               *****************************************************
               *                     SUCCESS                       *
               *           SCF CONVERGED AFTER  18 CYCLES          *
               *****************************************************


----------------
TOTAL SCF ENERGY
----------------

Total Energy       :         -499.65624449 Eh          -13596.33764 eV

Components:
Nuclear Repulsion  :           46.92105999 Eh            1276.78695 eV
Electronic Energy  :         -546.57730448 Eh          -14873.12459 eV
One Electron Energy:         -781.87000455 Eh          -21275.76446 eV
Two Electron Energy:          235.29270007 Eh            6402.63987 eV

Virial components:
Potential Energy   :         -999.36068620 Eh          -27193.98679 eV
Kinetic Energy     :          499.70444171 Eh           13597.64915 eV
Virial Ratio       :            1.99990355


---------------
SCF CONVERGENCE
---------------

  Last Energy change         ...   -1.9685e-06  Tolerance :   1.0000e-08
  Last MAX-Density change    ...    1.7788e-06  Tolerance :   1.0000e-07
  Last RMS-Density change    ...    3.3144e-08  Tolerance :   5.0000e-09
  Last DIIS Error            ...    2.8896e-07  Tolerance :   5.0000e-07

             **** THE GBW FILE WAS UPDATED (H3CHCl‡.gbw) ****
             **** DENSITY FILE WAS UPDATED (H3CHCl‡.scfp) ****
             **** ENERGY FILE WAS UPDATED (H3CHCl‡.en.tmp) ****
----------------------
UHF SPIN CONTAMINATION
----------------------

Expectation value of <S**2>     :     0.786267
Ideal value S*(S+1) for S=0.5   :     0.750000
Deviation                       :     0.036267

             **** THE GBW FILE WAS UPDATED (H3CHCl‡.gbw) ****
             **** DENSITY FILE WAS UPDATED (H3CHCl‡.scfp) ****
----------------
ORBITAL ENERGIES
----------------
                 SPIN UP ORBITALS
  NO   OCC          E(Eh)            E(eV) 
   0   1.0000    -104.822284     -2852.3594 
   1   1.0000     -11.278970      -306.9164 
   2   1.0000     -10.548334      -287.0348 
   3   1.0000      -8.025414      -218.3826 
   4   1.0000      -8.012132      -218.0212 
   5   1.0000      -8.012132      -218.0212 
   6   1.0000      -1.103203       -30.0197 
   7   1.0000      -1.001834       -27.2613 
   8   1.0000      -0.647761       -17.6265 
   9   1.0000      -0.618126       -16.8201 
  10   1.0000      -0.618121       -16.8199 
  11   1.0000      -0.454684       -12.3726 
  12   1.0000      -0.454684       -12.3726 
  13   1.0000      -0.419766       -11.4224 
  14   0.0000       0.123231         3.3533 
  15   0.0000       0.173185         4.7126 
  16   0.0000       0.173187         4.7127 
  17   0.0000       0.238825         6.4988 
  18   0.0000       0.259749         7.0681 
  19   0.0000       0.303316         8.2536 
  20   0.0000       0.303321         8.2538 
  21   0.0000       0.353368         9.6156 
  22   0.0000       0.353378         9.6159 
  23   0.0000       0.368511        10.0277 
  24   0.0000       0.415196        11.2980 
  25   0.0000       0.415197        11.2981 
  26   0.0000       0.418963        11.4006 
  27   0.0000       0.446369        12.1463 
  28   0.0000       0.446371        12.1464 
  29   0.0000       0.549297        14.9471 
  30   0.0000       0.549326        14.9479 
  31   0.0000       0.550107        14.9692 
  32   0.0000       0.605032        16.4637 
  33   0.0000       0.605034        16.4638 
  34   0.0000       0.607447        16.5295 
  35   0.0000       0.682702        18.5773 
  36   0.0000       0.687436        18.7061 
  37   0.0000       0.687463        18.7068 
  38   0.0000       0.776549        21.1310 
  39   0.0000       0.782065        21.2811 
  40   0.0000       0.782089        21.2817 
  41   0.0000       0.845640        23.0110 
  42   0.0000       0.871822        23.7235 
  43   0.0000       0.871832        23.7237 
  44   0.0000       0.910231        24.7686 
  45   0.0000       0.974511        26.5178 
  46   0.0000       0.974525        26.5182 
  47   0.0000       0.993934        27.0463 
  48   0.0000       1.040149        28.3039 
  49   0.0000       1.040197        28.3052 
  50   0.0000       1.313785        35.7499 
  51   0.0000       1.341611        36.5071 
  52   0.0000       1.415765        38.5249 
  53   0.0000       1.415782        38.5254 
  54   0.0000       1.430412        38.9235 
  55   0.0000       1.430425        38.9238 
  56   0.0000       1.432555        38.9818 
  57   0.0000       1.620590        44.0985 
  58   0.0000       1.620620        44.0993 
  59   0.0000       1.828146        49.7464 
  60   0.0000       1.828158        49.7467 
  61   0.0000       1.928617        52.4803 
  62   0.0000       1.970018        53.6069 
  63   0.0000       2.041236        55.5448 
  64   0.0000       2.041261        55.5455 
  65   0.0000       2.242471        61.0207 
  66   0.0000       2.275781        61.9271 
  67   0.0000       2.275788        61.9273 
  68   0.0000       2.368180        64.4414 
  69   0.0000       2.368185        64.4416 
  70   0.0000       2.413834        65.6838 
  71   0.0000       2.413968        65.6874 
  72   0.0000       2.444562        66.5199 
  73   0.0000       2.444572        66.5202 
  74   0.0000       2.510162        68.3050 
  75   0.0000       2.530133        68.8484 
  76   0.0000       2.530138        68.8486 
  77   0.0000       2.663015        72.4643 
  78   0.0000       2.663097        72.4665 
  79   0.0000       2.684405        73.0464 
  80   0.0000       2.823235        76.8241 
  81   0.0000       2.823274        76.8252 
  82   0.0000       2.843432        77.3737 
  83   0.0000       2.888360        78.5963 
  84   0.0000       2.888376        78.5967 
  85   0.0000       2.999985        81.6337 
  86   0.0000       3.196871        86.9913 
  87   0.0000       3.196922        86.9927 
  88   0.0000       3.228631        87.8555 
  89   0.0000       3.228659        87.8563 
  90   0.0000       3.228923        87.8635 
  91   0.0000       3.262617        88.7803 
  92   0.0000       3.344128        90.9983 
  93   0.0000       3.461307        94.1870 
  94   0.0000       3.461364        94.1885 
  95   0.0000       3.612640        98.3049 
  96   0.0000       3.705950       100.8440 
  97   0.0000       3.752206       102.1027 
  98   0.0000       3.752251       102.1039 
  99   0.0000       3.916900       106.5843 
 100   0.0000       4.150320       112.9360 
 101   0.0000       4.159964       113.1984 
 102   0.0000       4.159997       113.1993 
 103   0.0000       4.477069       121.8272 
 104   0.0000       4.577273       124.5539 
 105   0.0000       4.577325       124.5553 
 106   0.0000       4.699308       127.8747 
 107   0.0000       4.699325       127.8751 
 108   0.0000       4.959398       134.9521 
 109   0.0000       5.070158       137.9660 
 110   0.0000       5.070162       137.9661 
 111   0.0000       5.133621       139.6929 
 112   0.0000       5.133632       139.6932 
 113   0.0000       5.153283       140.2279 
 114   0.0000       5.451395       148.3400 
 115   0.0000       5.451418       148.3406 
 116   0.0000       5.586700       152.0218 
 117   0.0000       5.674141       154.4012 
 118   0.0000       5.674146       154.4014 
 119   0.0000       5.869316       159.7122 
 120   0.0000       5.869320       159.7123 
 121   0.0000       5.953528       162.0037 
 122   0.0000       6.895573       187.6381 
 123   0.0000       7.838723       213.3025 
 124   0.0000       7.838781       213.3041 
 125   0.0000       8.234621       224.0754 
 126   0.0000       8.234628       224.0756 
 127   0.0000       8.474317       230.5979 
 128   0.0000       8.655609       235.5311 
 129   0.0000       8.742049       237.8833 
 130   0.0000       8.742066       237.8837 
 131   0.0000       8.847432       240.7509 
 132   0.0000       8.847441       240.7511 
 133   0.0000       8.904559       242.3054 
 134   0.0000       9.026306       245.6183 
 135   0.0000       9.026338       245.6192 
 136   0.0000       9.811980       266.9976 
 137   0.0000      10.072351       274.0826 
 138   0.0000      10.072373       274.0832 
 139   0.0000      10.121706       275.4256 
 140   0.0000      10.773537       293.1629 
 141   0.0000      26.518390       721.6021 
 142   0.0000      26.518469       721.6042 
 143   0.0000      27.171899       739.3850 
 144   0.0000      28.900178       786.4138 
 145   0.0000     219.475230      5972.2246 

                 SPIN DOWN ORBITALS
  NO   OCC          E(Eh)            E(eV) 
   0   1.0000    -104.815973     -2852.1876 
   1   1.0000     -11.260716      -306.4197 
   2   1.0000     -10.541770      -286.8562 
   3   1.0000      -8.008486      -217.9220 
   4   1.0000      -8.008486      -217.9220 
   5   1.0000      -7.999622      -217.6808 
   6   1.0000      -1.049504       -28.5585 
   7   1.0000      -0.930597       -25.3228 
   8   1.0000      -0.606538       -16.5047 
   9   1.0000      -0.606533       -16.5046 
  10   1.0000      -0.551520       -15.0076 
  11   1.0000      -0.443709       -12.0739 
  12   1.0000      -0.443709       -12.0739 
  13   0.0000       0.016356         0.4451 
  14   0.0000       0.131824         3.5871 
  15   0.0000       0.176159         4.7935 
  16   0.0000       0.176162         4.7936 
  17   0.0000       0.249825         6.7981 
  18   0.0000       0.277647         7.5552 
  19   0.0000       0.307516         8.3679 
  20   0.0000       0.307522         8.3681 
  21   0.0000       0.360011         9.7964 
  22   0.0000       0.360021         9.7967 
  23   0.0000       0.393552        10.7091 
  24   0.0000       0.425214        11.5707 
  25   0.0000       0.425216        11.5707 
  26   0.0000       0.446620        12.1532 
  27   0.0000       0.446623        12.1532 
  28   0.0000       0.478458        13.0195 
  29   0.0000       0.563051        15.3214 
  30   0.0000       0.563080        15.3222 
  31   0.0000       0.572099        15.5676 
  32   0.0000       0.606566        16.5055 
  33   0.0000       0.610730        16.6188 
  34   0.0000       0.610734        16.6189 
  35   0.0000       0.686434        18.6788 
  36   0.0000       0.692886        18.8544 
  37   0.0000       0.692913        18.8551 
  38   0.0000       0.790102        21.4998 
  39   0.0000       0.790124        21.5004 
  40   0.0000       0.822455        22.3801 
  41   0.0000       0.861901        23.4535 
  42   0.0000       0.874015        23.7832 
  43   0.0000       0.874026        23.7835 
  44   0.0000       0.913178        24.8488 
  45   0.0000       0.983258        26.7558 
  46   0.0000       0.983273        26.7562 
  47   0.0000       1.015383        27.6300 
  48   0.0000       1.040560        28.3151 
  49   0.0000       1.040608        28.3164 
  50   0.0000       1.336563        36.3697 
  51   0.0000       1.368151        37.2293 
  52   0.0000       1.431210        38.9452 
  53   0.0000       1.431217        38.9454 
  54   0.0000       1.447103        39.3777 
  55   0.0000       1.447106        39.3778 
  56   0.0000       1.465311        39.8731 
  57   0.0000       1.650050        44.9001 
  58   0.0000       1.650080        44.9010 
  59   0.0000       1.837313        49.9958 
  60   0.0000       1.837323        49.9961 
  61   0.0000       1.967997        53.5519 
  62   0.0000       1.969225        53.5853 
  63   0.0000       2.046402        55.6854 
  64   0.0000       2.046428        55.6861 
  65   0.0000       2.255529        61.3761 
  66   0.0000       2.285133        62.1816 
  67   0.0000       2.285140        62.1818 
  68   0.0000       2.383688        64.8635 
  69   0.0000       2.383693        64.8636 
  70   0.0000       2.414632        65.7055 
  71   0.0000       2.414821        65.7106 
  72   0.0000       2.456096        66.8338 
  73   0.0000       2.456108        66.8341 
  74   0.0000       2.535992        69.0078 
  75   0.0000       2.535996        69.0080 
  76   0.0000       2.542708        69.1906 
  77   0.0000       2.680289        72.9344 
  78   0.0000       2.680371        72.9366 
  79   0.0000       2.687008        73.1172 
  80   0.0000       2.832136        77.0663 
  81   0.0000       2.832173        77.0674 
  82   0.0000       2.853812        77.6562 
  83   0.0000       2.893594        78.7387 
  84   0.0000       2.893610        78.7391 
  85   0.0000       3.024849        82.3103 
  86   0.0000       3.205445        87.2246 
  87   0.0000       3.205492        87.2259 
  88   0.0000       3.227670        87.8294 
  89   0.0000       3.239303        88.1459 
  90   0.0000       3.239339        88.1469 
  91   0.0000       3.264904        88.8426 
  92   0.0000       3.377028        91.8936 
  93   0.0000       3.461170        94.1832 
  94   0.0000       3.461228        94.1848 
  95   0.0000       3.630235        98.7837 
  96   0.0000       3.707163       100.8770 
  97   0.0000       3.761832       102.3646 
  98   0.0000       3.761876       102.3659 
  99   0.0000       3.927544       106.8739 
 100   0.0000       4.166667       113.3808 
 101   0.0000       4.166701       113.3817 
 102   0.0000       4.176431       113.6465 
 103   0.0000       4.488682       122.1432 
 104   0.0000       4.584595       124.7532 
 105   0.0000       4.584646       124.7545 
 106   0.0000       4.708270       128.1185 
 107   0.0000       4.708287       128.1190 
 108   0.0000       4.970447       135.2527 
 109   0.0000       5.077565       138.1676 
 110   0.0000       5.077567       138.1676 
 111   0.0000       5.142926       139.9461 
 112   0.0000       5.142942       139.9466 
 113   0.0000       5.160779       140.4319 
 114   0.0000       5.455389       148.4487 
 115   0.0000       5.455412       148.4493 
 116   0.0000       5.593305       152.2016 
 117   0.0000       5.675150       154.4287 
 118   0.0000       5.675155       154.4288 
 119   0.0000       5.877410       159.9325 
 120   0.0000       5.877414       159.9326 
 121   0.0000       5.973443       162.5456 
 122   0.0000       6.902883       187.8370 
 123   0.0000       7.863010       213.9634 
 124   0.0000       7.863068       213.9650 
 125   0.0000       8.244777       224.3518 
 126   0.0000       8.244784       224.3520 
 127   0.0000       8.500582       231.3126 
 128   0.0000       8.653225       235.4662 
 129   0.0000       8.738498       237.7866 
 130   0.0000       8.738515       237.7871 
 131   0.0000       8.843317       240.6389 
 132   0.0000       8.843326       240.6391 
 133   0.0000       8.904466       242.3028 
 134   0.0000       9.024724       245.5752 
 135   0.0000       9.024756       245.5761 
 136   0.0000       9.810702       266.9628 
 137   0.0000      10.072761       274.0938 
 138   0.0000      10.072784       274.0944 
 139   0.0000      10.124277       275.4956 
 140   0.0000      10.782420       293.4046 
 141   0.0000      26.520897       721.6703 
 142   0.0000      26.520976       721.6724 
 143   0.0000      27.182503       739.6735 
 144   0.0000      28.911182       786.7133 
 145   0.0000     219.478757      5972.3206 
------------------
MOLECULAR ORBITALS
------------------
                      0         1         2         3         4         5   
                 -104.82228 -11.27897 -10.54833  -8.02541  -8.01213  -8.01213
                   1.00000   1.00000   1.00000   1.00000   1.00000   1.00000
                  --------  --------  --------  --------  --------  --------
  0C   1s         0.000000  0.563123  0.000015 -0.000001 -0.000000  0.000000
  0C   2s        -0.000001  0.465993 -0.000011  0.000014  0.000000 -0.000000
  0C   1pz       -0.000001 -0.000305 -0.000014  0.000097  0.000000 -0.000000
  0C   1px        0.000000  0.000000  0.000000 -0.000000  0.000001 -0.000007
  0C   1py       -0.000000 -0.000000  0.000000  0.000000 -0.000007 -0.000001
  0C   3s         0.000007  0.008015  0.000431 -0.000169 -0.000000  0.000000
  0C   2pz        0.000002  0.001010 -0.000121 -0.000666 -0.000000  0.000000
  0C   2px       -0.000000 -0.000000 -0.000000  0.000000 -0.000016  0.000093
  0C   2py        0.000000  0.000000  0.000000 -0.000000  0.000093  0.000015
  0C   4s        -0.000083  0.006598 -0.001548  0.004800  0.000001 -0.000000
  0C   3pz        0.000031  0.001221 -0.000781 -0.003510 -0.000001  0.000000
  0C   3px       -0.000000 -0.000000 -0.000001  0.000000 -0.000106  0.000635
  0C   3py        0.000000  0.000000  0.000000 -0.000001  0.000635  0.000106
  0C   1dz2       0.000000  0.000561  0.000017 -0.000021 -0.000000  0.000000
  0C   1dxz       0.000000  0.000000  0.000000  0.000000 -0.000000  0.000001
  0C   1dyz      -0.000000  0.000000 -0.000000 -0.000000  0.000001  0.000000
  0C   1dx2y2    -0.000000 -0.000000 -0.000000  0.000000 -0.000001  0.000006
  0C   1dxy      -0.000000  0.000000 -0.000000  0.000000 -0.000006 -0.000001
  0C   2dz2       0.000003 -0.001277  0.000067  0.000303  0.000000 -0.000000
  0C   2dxz      -0.000000  0.000000 -0.000000 -0.000000 -0.000003  0.000015
  0C   2dyz       0.000000 -0.000000  0.000000  0.000000  0.000015  0.000003
  0C   2dx2y2     0.000000 -0.000000  0.000000 -0.000000  0.000014 -0.000085
  0C   2dxy       0.000000  0.000000  0.000000 -0.000000  0.000085  0.000014
  0C   3dz2      -0.000006 -0.000521  0.000262  0.000838  0.000000 -0.000000
  0C   3dxz       0.000000  0.000000  0.000001 -0.000000  0.000084 -0.000503
  0C   3dyz      -0.000000 -0.000000 -0.000000  0.000000 -0.000503 -0.000084
  0C   3dx2y2     0.000000 -0.000000  0.000001 -0.000000  0.000060 -0.000356
  0C   3dxy       0.000000  0.000000  0.000000 -0.000000  0.000356  0.000059
  0C   1f0       -0.000002 -0.000376 -0.000028 -0.000035 -0.000000  0.000000
  0C   1f+1       0.000000  0.000000  0.000000  0.000000 -0.000002  0.000011
  0C   1f-1      -0.000000 -0.000000 -0.000000 -0.000000  0.000010  0.000002
  0C   1f+2       0.000000 -0.000000  0.000000 -0.000000  0.000001 -0.000006
  0C   1f-2       0.000000 -0.000000  0.000000  0.000000  0.000006  0.000001
  0C   1f+3      -0.000001  0.001011 -0.000089 -0.000075 -0.000000  0.000000
  0C   1f-3       0.000000 -0.000000  0.000000  0.000000  0.000000  0.000000
  1H   1s         0.000000  0.000202  0.000003 -0.000000  0.000003 -0.000017
  1H   2s         0.000005 -0.002890  0.000465  0.000251 -0.000075  0.000447
  1H   3s        -0.000017 -0.001038 -0.000956  0.000377  0.000028 -0.000170
  1H   1pz        0.000001 -0.000025  0.000034  0.000008 -0.000002  0.000009
  1H   1px       -0.000000  0.000125 -0.000003 -0.000004  0.000002 -0.000010
  1H   1py        0.000000 -0.000000  0.000000 -0.000000  0.000001  0.000000
  1H   2pz       -0.000003  0.000298 -0.000180 -0.000059  0.000009 -0.000051
  1H   2px        0.000001 -0.001261  0.000080  0.000115 -0.000016  0.000094
  1H   2py       -0.000000  0.000000 -0.000000 -0.000000  0.000000  0.000000
  1H   3pz        0.000013  0.000133  0.000948 -0.000002  0.000028 -0.000167
  1H   3px       -0.000002 -0.000811 -0.000048  0.000114  0.000038 -0.000227
  1H   3py        0.000000  0.000000  0.000000 -0.000000  0.000101  0.000017
  1H   1dz2      -0.000000  0.000188 -0.000032  0.000002  0.000000 -0.000001
  1H   1dxz      -0.000000  0.000189  0.000009 -0.000025  0.000001 -0.000005
  1H   1dyz       0.000000 -0.000000  0.000000 -0.000000  0.000009  0.000002
  1H   1dx2y2    -0.000001 -0.000372 -0.000016  0.000040 -0.000001  0.000005
  1H   1dxy       0.000000  0.000000  0.000000 -0.000000  0.000008  0.000001
  2H   1s         0.000000  0.000202  0.000003 -0.000000 -0.000016  0.000006
  2H   2s         0.000005 -0.002890  0.000467  0.000250  0.000425 -0.000159
  2H   3s        -0.000017 -0.001037 -0.000956  0.000377 -0.000161  0.000060
  2H   1pz        0.000001 -0.000025  0.000034  0.000008  0.000009 -0.000003
  2H   1px        0.000000 -0.000063  0.000002  0.000002  0.000005 -0.000001
  2H   1py       -0.000000  0.000108 -0.000003 -0.000003 -0.000008  0.000004
  2H   2pz       -0.000003  0.000298 -0.000180 -0.000059 -0.000048  0.000018
  2H   2px       -0.000000  0.000630 -0.000040 -0.000057 -0.000044  0.000017
  2H   2py        0.000001 -0.001092  0.000070  0.000100  0.000077 -0.000029
  2H   3pz        0.000013  0.000133  0.000948 -0.000002 -0.000158  0.000059
  2H   3px        0.000001  0.000406  0.000024 -0.000057  0.000139  0.000042
  2H   3py       -0.000002 -0.000703 -0.000042  0.000099 -0.000169  0.000118
  2H   1dz2      -0.000000  0.000188 -0.000032  0.000002 -0.000001  0.000000
  2H   1dxz       0.000000 -0.000095 -0.000004  0.000012  0.000005  0.000007
  2H   1dyz      -0.000000  0.000164  0.000007 -0.000022 -0.000002  0.000006
  2H   1dx2y2     0.000000  0.000186  0.000008 -0.000020 -0.000005 -0.000006
  2H   1dxy       0.000001  0.000322  0.000013 -0.000035 -0.000003  0.000006
  3H   1s         0.000007  0.000146  0.000364  0.000340  0.000000 -0.000000
  3H   2s        -0.000032  0.000270 -0.000724 -0.000976 -0.000000  0.000000
  3H   3s         0.000156  0.000395  0.010587 -0.002510 -0.000001  0.000000
  3H   1pz       -0.000006  0.000030 -0.000235 -0.000102 -0.000000  0.000000
  3H   1px       -0.000000  0.000000 -0.000000 -0.000000  0.000004 -0.000025
  3H   1py        0.000000  0.000000  0.000000  0.000000 -0.000025 -0.000004
  3H   2pz        0.000022  0.000193  0.001154  0.000250 -0.000000  0.000000
  3H   2px        0.000000  0.000000  0.000000  0.000000 -0.000009  0.000053
  3H   2py       -0.000000  0.000000 -0.000000 -0.000000  0.000053  0.000009
  3H   3pz        0.000065  0.000558 -0.001657 -0.005834 -0.000001  0.000000
  3H   3px        0.000000  0.000000 -0.000000 -0.000001  0.000117 -0.000703
  3H   3py       -0.000000 -0.000000  0.000000  0.000000 -0.000703 -0.000117
  3H   1dz2      -0.000020  0.000071 -0.000883 -0.000357 -0.000000  0.000000
  3H   1dxz      -0.000000  0.000000 -0.000000 -0.000000  0.000009 -0.000056
  3H   1dyz       0.000000  0.000000  0.000000  0.000000 -0.000056 -0.000009
  3H   1dx2y2    -0.000000  0.000000 -0.000000  0.000000 -0.000002  0.000011
  3H   1dxy      -0.000000 -0.000000 -0.000000  0.000000 -0.000011 -0.000002
  4H   1s         0.000000  0.000202  0.000003 -0.000000  0.000014  0.000011
  4H   2s         0.000005 -0.002890  0.000466  0.000251 -0.000350 -0.000288
  4H   3s        -0.000017 -0.001038 -0.000956  0.000377  0.000133  0.000109
  4H   1pz        0.000001 -0.000025  0.000034  0.000008 -0.000007 -0.000006
  4H   1px        0.000000 -0.000063  0.000002  0.000002 -0.000005 -0.000002
  4H   1py        0.000000 -0.000108  0.000003  0.000003 -0.000006 -0.000006
  4H   2pz       -0.000003  0.000298 -0.000180 -0.000059  0.000040  0.000033
  4H   2px       -0.000000  0.000631 -0.000040 -0.000057  0.000036  0.000030
  4H   2py       -0.000001  0.001092 -0.000070 -0.000100  0.000064  0.000052
  4H   3pz        0.000013  0.000133  0.000948 -0.000002  0.000131  0.000107
  4H   3px        0.000001  0.000406  0.000024 -0.000057 -0.000145 -0.000005
  4H   3py        0.000002  0.000703  0.000042 -0.000098 -0.000122 -0.000166
  4H   1dz2      -0.000000  0.000188 -0.000032  0.000002  0.000001  0.000000
  4H   1dxz       0.000000 -0.000095 -0.000004  0.000012 -0.000007  0.000005
  4H   1dyz       0.000000 -0.000164 -0.000007  0.000022 -0.000000 -0.000007
  4H   1dx2y2     0.000000  0.000186  0.000008 -0.000020  0.000007 -0.000004
  4H   1dxy      -0.000001 -0.000322 -0.000013  0.000035 -0.000001 -0.000006
  5Cl  1s         0.411723  0.000001 -0.121960  0.000419  0.000000 -0.000000
  5Cl  2s         0.654658  0.000001 -0.331587  0.001152  0.000000 -0.000000
  5Cl  3s         0.012126 -0.000001  0.512611 -0.001789 -0.000000  0.000000
  5Cl  4s        -0.000937  0.000008  0.604098 -0.002445 -0.000000 -0.000000
  5Cl  5s         0.000229 -0.000053  0.045580  0.000961  0.000000  0.000000
  5Cl  6s        -0.000128  0.000314 -0.016578 -0.003597 -0.000000  0.000000
  5Cl  1pz        0.000083  0.000039  0.003714  1.230489 -0.000115  0.000231
  5Cl  1px        0.000000  0.000000  0.000001  0.000246  0.202236 -1.214568
  5Cl  1py       -0.000000 -0.000000 -0.000000 -0.000075 -1.214568 -0.202236
  5Cl  2pz        0.000050  0.000020  0.000863  0.327084 -0.000030  0.000061
  5Cl  2px        0.000000  0.000000  0.000000  0.000065  0.053753 -0.322822
  5Cl  2py       -0.000000 -0.000000 -0.000000 -0.000020 -0.322822 -0.053753
  5Cl  3pz       -0.000061 -0.000072  0.000497  0.050854 -0.000004  0.000009
  5Cl  3px       -0.000000 -0.000000  0.000000  0.000010  0.008093 -0.048604
  5Cl  3py        0.000000  0.000000 -0.000000 -0.000003 -0.048605 -0.008093
  5Cl  4pz        0.000073  0.000136  0.000626 -0.003541  0.000000 -0.000000
  5Cl  4px        0.000000  0.000000  0.000000 -0.000001 -0.000362  0.002171
  5Cl  4py       -0.000000 -0.000000 -0.000000  0.000000  0.002171  0.000362
  5Cl  5pz       -0.000043  0.000092 -0.004906 -0.000569 -0.000000  0.000000
  5Cl  5px       -0.000000  0.000000 -0.000001 -0.000000  0.000093 -0.000558
  5Cl  5py        0.000000 -0.000000  0.000000  0.000000 -0.000558 -0.000093
  5Cl  1dz2      -0.000002 -0.000003  0.000545  0.000381 -0.000000  0.000000
  5Cl  1dxz      -0.000000 -0.000000  0.000000  0.000000  0.000078 -0.000466
  5Cl  1dyz       0.000000 -0.000000 -0.000000 -0.000000 -0.000466 -0.000078
  5Cl  1dx2y2    -0.000000  0.000000 -0.000000  0.000000 -0.000000  0.000001
  5Cl  1dxy      -0.000000  0.000000 -0.000000  0.000000 -0.000001 -0.000000
  5Cl  2dz2       0.000018  0.000016  0.001091  0.000286  0.000000  0.000000
  5Cl  2dxz       0.000000  0.000000  0.000000  0.000000  0.000012 -0.000074
  5Cl  2dyz      -0.000000  0.000000 -0.000000 -0.000000 -0.000074 -0.000012
  5Cl  2dx2y2     0.000000 -0.000000  0.000000 -0.000000  0.000001 -0.000005
  5Cl  2dxy       0.000000 -0.000000  0.000000 -0.000000  0.000005  0.000001
  5Cl  3dz2      -0.000001  0.000031 -0.001472 -0.000619 -0.000000  0.000000
  5Cl  3dxz      -0.000000  0.000000 -0.000001 -0.000000 -0.000022  0.000135
  5Cl  3dyz       0.000000 -0.000000  0.000000  0.000000  0.000135  0.000022
  5Cl  3dx2y2    -0.000000  0.000000 -0.000000  0.000000 -0.000002  0.000015
  5Cl  3dxy      -0.000000  0.000000 -0.000000  0.000000 -0.000015 -0.000003
  5Cl  1f0        0.000010 -0.000001  0.000427  0.000515 -0.000000  0.000000
  5Cl  1f+1       0.000000  0.000000  0.000000  0.000000  0.000040 -0.000240
  5Cl  1f-1      -0.000000 -0.000000 -0.000000 -0.000000 -0.000240 -0.000040
  5Cl  1f+2      -0.000000  0.000000 -0.000000  0.000000 -0.000000  0.000002
  5Cl  1f-2      -0.000000  0.000000 -0.000000  0.000000 -0.000003 -0.000000
  5Cl  1f+3       0.000000  0.000001  0.000003 -0.000000 -0.000000 -0.000000
  5Cl  1f-3      -0.000000 -0.000000 -0.000000  0.000000  0.000000 -0.000000
                      6         7         8         9        10        11   
                  -1.10320  -1.00183  -0.64776  -0.61813  -0.61812  -0.45468
                   1.00000   1.00000   1.00000   1.00000   1.00000   1.00000
                  --------  --------  --------  --------  --------  --------
  0C   1s         0.031864  0.101493  0.013635 -0.000000  0.000003 -0.000000
  0C   2s         0.052405  0.167923  0.022454 -0.000000  0.000004 -0.000000
  0C   1pz        0.015245  0.003121 -0.130358  0.000021 -0.000029 -0.000009
  0C   1px        0.000002  0.000001 -0.000051 -0.060294  0.191596  0.003201
  0C   1py        0.000001  0.000000 -0.000006 -0.191596 -0.060294 -0.015413
  0C   3s        -0.133727 -0.430315 -0.053908  0.000000 -0.000010  0.000003
  0C   2pz        0.031195  0.016269 -0.216037  0.000032 -0.000049 -0.000011
  0C   2px        0.000001  0.000002 -0.000075 -0.088692  0.281838  0.005966
  0C   2py        0.000003  0.000001 -0.000010 -0.281837 -0.088692 -0.028718
  0C   4s        -0.012561 -0.200547  0.043977 -0.000009  0.000021 -0.000042
  0C   3pz       -0.017696  0.019407 -0.196967  0.000026 -0.000049  0.000016
  0C   3px       -0.000008  0.000003 -0.000039 -0.049249  0.156501  0.015440
  0C   3py        0.000002  0.000000 -0.000015 -0.156499 -0.049250 -0.074332
  0C   1dz2      -0.000391  0.000543  0.003518  0.000000  0.000001  0.000000
  0C   1dxz      -0.000000 -0.000000 -0.000000 -0.000573  0.001823  0.000052
  0C   1dyz      -0.000000  0.000000  0.000001 -0.001823 -0.000574 -0.000250
  0C   1dx2y2    -0.000000  0.000000  0.000001  0.001586 -0.005041 -0.000042
  0C   1dxy      -0.000000 -0.000000  0.000000 -0.005041 -0.001585 -0.000202
  0C   2dz2      -0.009593 -0.009873  0.022430 -0.000001  0.000006  0.000001
  0C   2dxz      -0.000002 -0.000000  0.000000 -0.000951  0.003028  0.000993
  0C   2dyz      -0.000001 -0.000002  0.000003 -0.003028 -0.000954 -0.004777
  0C   2dx2y2     0.000001 -0.000000  0.000005  0.005849 -0.018597 -0.001391
  0C   2dxy       0.000001 -0.000000  0.000000 -0.018596 -0.005849 -0.006691
  0C   3dz2       0.004509 -0.010552  0.020946 -0.000001  0.000006 -0.000009
  0C   3dxz       0.000005 -0.000002 -0.000002 -0.001371  0.004360 -0.006913
  0C   3dyz      -0.000002 -0.000000  0.000007 -0.004360 -0.001374  0.033291
  0C   3dx2y2     0.000005 -0.000002  0.000004  0.003641 -0.011573 -0.005416
  0C   3dxy       0.000002 -0.000001  0.000000 -0.011570 -0.003638 -0.026007
  0C   1f0        0.001927  0.002723 -0.004274  0.000001 -0.000001 -0.000000
  0C   1f+1       0.000001  0.000000 -0.000001 -0.000787  0.002500 -0.000186
  0C   1f-1       0.000000  0.000001 -0.000001 -0.002500 -0.000787  0.000897
  0C   1f+2       0.000000  0.000000  0.000000  0.000161 -0.000510 -0.000191
  0C   1f-2       0.000000  0.000000  0.000000 -0.000511 -0.000160 -0.000920
  0C   1f+3       0.000279 -0.002081 -0.002263  0.000000 -0.000000 -0.000000
  0C   1f-3      -0.000000  0.000000  0.000000 -0.000000 -0.000000 -0.000000
  1H   1s        -0.021015 -0.078579 -0.038275  0.048505 -0.154165 -0.003004
  1H   2s        -0.034270 -0.117899 -0.058383  0.079832 -0.253732  0.001457
  1H   3s        -0.010889 -0.019445 -0.015969  0.033581 -0.106731 -0.001851
  1H   1pz        0.000279  0.000446 -0.000728 -0.000295  0.000938  0.000036
  1H   1px       -0.000521 -0.002074 -0.001029  0.001132 -0.003597 -0.000129
  1H   1py        0.000000  0.000000  0.000000 -0.001142 -0.000359 -0.000114
  1H   2pz        0.001664  0.003193 -0.007246 -0.001715  0.005453 -0.000360
  1H   2px       -0.006149 -0.017703 -0.005515  0.006678 -0.021227  0.000724
  1H   2py        0.000000  0.000001 -0.000000 -0.009846 -0.003097 -0.000763
  1H   3pz        0.007862 -0.000273  0.000700 -0.001231  0.003914 -0.002775
  1H   3px       -0.006735 -0.015095 -0.005747  0.009683 -0.030774 -0.002797
  1H   3py        0.000002  0.000000  0.000001 -0.004565 -0.001434 -0.005614
  1H   1dz2       0.000236  0.001243  0.000912 -0.000598  0.001902 -0.000064
  1H   1dxz       0.000769  0.001058 -0.001589 -0.000603  0.001916 -0.000008
  1H   1dyz      -0.000000 -0.000000  0.000000  0.000276  0.000087 -0.000317
  1H   1dx2y2    -0.000968 -0.002498 -0.000931  0.001441 -0.004581  0.000055
  1H   1dxy       0.000000  0.000000  0.000000 -0.002431 -0.000764 -0.000487
  2H   1s        -0.021014 -0.078578 -0.038340  0.109254  0.119073  0.014017
  2H   2s        -0.034254 -0.117904 -0.058486  0.179816  0.195977 -0.006792
  2H   3s        -0.010885 -0.019445 -0.016004  0.075638  0.082440  0.008594
  2H   1pz        0.000279  0.000446 -0.000728 -0.000665 -0.000725 -0.000169
  2H   1px        0.000260  0.001037  0.000515 -0.002038 -0.000688 -0.000332
  2H   1py       -0.000451 -0.001796 -0.000893  0.001766  0.002810  0.000501
  2H   2pz        0.001664  0.003195 -0.007243 -0.003867 -0.004217  0.001678
  2H   2px        0.003073  0.008851  0.002760 -0.014108 -0.002153  0.001478
  2H   2py       -0.005322 -0.015332 -0.004786  0.009226  0.017687 -0.003050
  2H   3pz        0.007857 -0.000269  0.000700 -0.002777 -0.003026  0.012978
  2H   3px        0.003367  0.007546  0.002877 -0.013957 -0.009080 -0.008075
  2H   3py       -0.005835 -0.013071 -0.004987  0.017123  0.022202  0.010401
  2H   1dz2       0.000235  0.001243  0.000913 -0.001348 -0.001468  0.000300
  2H   1dxz      -0.000384 -0.000529  0.000794  0.000864  0.000571 -0.000107
  2H   1dyz       0.000666  0.000917 -0.001375 -0.001070 -0.001381 -0.000017
  2H   1dx2y2     0.000484  0.001249  0.000467  0.000002 -0.003261  0.000264
  2H   1dxy       0.000837  0.002163  0.000808 -0.003751 -0.002203  0.000145
  3H   1s        -0.065811 -0.036382  0.129310 -0.000006  0.000032 -0.000002
  3H   2s        -0.096055 -0.057162  0.225999 -0.000010  0.000056 -0.000001
  3H   3s         0.027221  0.004384 -0.035922  0.000003 -0.000011  0.000046
  3H   1pz        0.000407 -0.001882 -0.000168  0.000000 -0.000000  0.000000
  3H   1px        0.000000 -0.000000 -0.000000 -0.000161  0.000513 -0.000247
  3H   1py       -0.000000 -0.000000  0.000000 -0.000513 -0.000161  0.001189
  3H   2pz        0.011466 -0.015836  0.002772  0.000001 -0.000001  0.000002
  3H   2px        0.000003 -0.000002 -0.000003 -0.002658  0.008447 -0.001522
  3H   2py       -0.000002 -0.000001  0.000002 -0.008446 -0.002658  0.007330
  3H   3pz       -0.027478 -0.019145 -0.051373  0.000009 -0.000013  0.000042
  3H   3px       -0.000001 -0.000003 -0.000014 -0.003276  0.010411 -0.015066
  3H   3py       -0.000002 -0.000001  0.000006 -0.010411 -0.003277  0.072529
  3H   1dz2      -0.005719 -0.000287  0.005449  0.000000  0.000001 -0.000000
  3H   1dxz      -0.000002 -0.000000  0.000001 -0.000554  0.001759  0.000501
  3H   1dyz       0.000001 -0.000000 -0.000000 -0.001759 -0.000554 -0.002413
  3H   1dx2y2    -0.000000  0.000000  0.000000  0.000089 -0.000281  0.000063
  3H   1dxy      -0.000000  0.000000  0.000000 -0.000282 -0.000088  0.000302
  4H   1s        -0.021014 -0.078579 -0.038335 -0.157753  0.035063 -0.011017
  4H   2s        -0.034262 -0.117902 -0.058479 -0.259637  0.057707  0.005329
  4H   3s        -0.010886 -0.019445 -0.016006 -0.109214  0.024277 -0.006767
  4H   1pz        0.000279  0.000446 -0.000728  0.000960 -0.000214  0.000133
  4H   1px        0.000260  0.001037  0.000515  0.002065  0.000603  0.000303
  4H   1py        0.000451  0.001796  0.000892  0.003057 -0.001293  0.000369
  4H   2pz        0.001664  0.003193 -0.007244  0.005582 -0.001242 -0.001319
  4H   2px        0.003074  0.008852  0.002760  0.012801  0.006312 -0.000878
  4H   2py        0.005324  0.015332  0.004784  0.017691 -0.009219 -0.002559
  4H   3pz        0.007858 -0.000272  0.000700  0.004005 -0.000890 -0.010193
  4H   3px        0.003367  0.007548  0.002878  0.016644  0.000546  0.008435
  4H   3py        0.005835  0.013071  0.004989  0.026751 -0.008398  0.006966
  4H   1dz2       0.000235  0.001243  0.000913  0.001946 -0.000432 -0.000236
  4H   1dxz      -0.000384 -0.000529  0.000794 -0.001035 -0.000026  0.000202
  4H   1dyz      -0.000666 -0.000916  0.001375 -0.001667  0.000519 -0.000081
  4H   1dx2y2     0.000484  0.001249  0.000467  0.001865 -0.002675 -0.000388
  4H   1dxy      -0.000838 -0.002163 -0.000808 -0.004337 -0.000341  0.000009
  5Cl  1s        -0.033223  0.013123 -0.008109  0.000001 -0.000002  0.000000
  5Cl  2s        -0.096176  0.038041 -0.023665  0.000002 -0.000005  0.000000
  5Cl  3s         0.190399 -0.075745  0.048458 -0.000003  0.000009 -0.000000
  5Cl  4s         0.378993 -0.149959  0.091635 -0.000006  0.000018 -0.000000
  5Cl  5s        -0.568332  0.226874 -0.134780  0.000008 -0.000026  0.000000
  5Cl  6s        -0.541400  0.211324 -0.215405  0.000018 -0.000041  0.000010
  5Cl  1pz        0.035654  0.013803 -0.216811  0.000017 -0.000052 -0.000029
  5Cl  1px        0.000007  0.000002 -0.000041  0.005251 -0.016685  0.068002
  5Cl  1py       -0.000002 -0.000000  0.000016  0.016683  0.005250 -0.327415
  5Cl  2pz        0.008886  0.003405 -0.053066  0.000004 -0.000013 -0.000007
  5Cl  2px        0.000002  0.000001 -0.000010  0.001264 -0.004018  0.016278
  5Cl  2py       -0.000001 -0.000000  0.000004  0.004018  0.001264 -0.078376
  5Cl  3pz       -0.024519 -0.008742  0.156964 -0.000012  0.000038  0.000020
  5Cl  3px       -0.000005 -0.000001  0.000029 -0.003725  0.011838 -0.049201
  5Cl  3py        0.000001  0.000000 -0.000012 -0.011836 -0.003725  0.236890
  5Cl  4pz       -0.053518 -0.022851  0.346271 -0.000026  0.000085  0.000055
  5Cl  4px       -0.000011 -0.000004  0.000064 -0.009015  0.028645 -0.119753
  5Cl  4py        0.000004  0.000001 -0.000025 -0.028642 -0.009013  0.576585
  5Cl  5pz       -0.033905  0.001266  0.124921 -0.000009  0.000033  0.000035
  5Cl  5px       -0.000008 -0.000000  0.000025 -0.002886  0.009170 -0.065367
  5Cl  5py        0.000004  0.000001 -0.000011 -0.009168 -0.002885  0.314732
  5Cl  1dz2      -0.004195  0.000066  0.005817 -0.000000  0.000001  0.000000
  5Cl  1dxz      -0.000001  0.000000  0.000002 -0.000145  0.000462 -0.000428
  5Cl  1dyz       0.000001 -0.000000 -0.000001 -0.000462 -0.000145  0.002060
  5Cl  1dx2y2    -0.000000 -0.000000  0.000000  0.000006 -0.000018  0.000003
  5Cl  1dxy      -0.000000 -0.000000  0.000000 -0.000018 -0.000006  0.000013
  5Cl  2dz2      -0.022092  0.000657  0.024666 -0.000002  0.000005  0.000001
  5Cl  2dxz      -0.000008  0.000000  0.000008 -0.000924  0.002937 -0.002586
  5Cl  2dyz       0.000003 -0.000000 -0.000004 -0.002937 -0.000924  0.012449
  5Cl  2dx2y2     0.000000  0.000000  0.000000  0.000041 -0.000131 -0.000030
  5Cl  2dxy       0.000000  0.000000 -0.000000 -0.000131 -0.000041 -0.000143
  5Cl  3dz2      -0.016567  0.006659 -0.003652  0.000001 -0.000000  0.000003
  5Cl  3dxz      -0.000007  0.000002  0.000001  0.000561 -0.001785  0.000641
  5Cl  3dyz       0.000003  0.000000 -0.000002  0.001785  0.000562 -0.003085
  5Cl  3dx2y2    -0.000000 -0.000000 -0.000000 -0.000028  0.000091  0.000136
  5Cl  3dxy      -0.000000 -0.000000  0.000000  0.000092  0.000029  0.000654
  5Cl  1f0       -0.001203 -0.001790  0.010763 -0.000001  0.000002  0.000002
  5Cl  1f+1      -0.000001 -0.000001  0.000005 -0.000234  0.000743 -0.001806
  5Cl  1f-1       0.000001  0.000000 -0.000002 -0.000743 -0.000234  0.008696
  5Cl  1f+2      -0.000000 -0.000000 -0.000000  0.000011 -0.000036  0.000004
  5Cl  1f-2      -0.000000 -0.000000 -0.000000 -0.000036 -0.000011  0.000019
  5Cl  1f+3      -0.000001 -0.000005 -0.000005 -0.000000 -0.000000  0.000000
  5Cl  1f-3       0.000000  0.000000  0.000000  0.000000  0.000000 -0.000000
                     12        13        14        15        16        17   
                  -0.45468  -0.41977   0.12323   0.17318   0.17319   0.23883
                   1.00000   1.00000   0.00000   0.00000   0.00000   0.00000
                  --------  --------  --------  --------  --------  --------
  0C   1s        -0.000000  0.015688 -0.040642  0.000001 -0.000000  0.004574
  0C   2s        -0.000001  0.027351 -0.078665  0.000002 -0.000001  0.004949
  0C   1pz        0.000004  0.192026  0.041616  0.000003  0.000006  0.019828
  0C   1px       -0.015416  0.000000  0.000002  0.014998 -0.083037  0.000001
  0C   1py       -0.003202  0.000011 -0.000000 -0.083037 -0.014997 -0.000001
  0C   3s        -0.000000 -0.090397  0.112445 -0.000012 -0.000004  0.125268
  0C   2pz        0.000004  0.318545  0.097333  0.000013  0.000015  0.020679
  0C   2px       -0.028717  0.000000  0.000015  0.071128 -0.393859 -0.000016
  0C   2py       -0.005963  0.000017 -0.000002 -0.393852 -0.071140  0.000001
  0C   4s         0.000022  0.079691  5.299690  0.000014  0.000062 -0.915579
  0C   3pz        0.000003  0.121233  0.844905  0.000003  0.000108  2.971225
  0C   3px       -0.074324  0.000000  0.000088  0.548268 -3.035782  0.000075
  0C   3py       -0.015435 -0.000010 -0.000010 -3.035763 -0.548308  0.000138
  0C   1dz2      -0.000000 -0.002581  0.004441 -0.000000  0.000000 -0.003127
  0C   1dxz      -0.000250 -0.000000 -0.000000 -0.000480  0.002657 -0.000000
  0C   1dyz      -0.000052 -0.000000  0.000001  0.002657  0.000479  0.000000
  0C   1dx2y2     0.000202 -0.000000  0.000000  0.001062 -0.005875  0.000000
  0C   1dxy      -0.000042 -0.000000  0.000000  0.005874  0.001062  0.000000
  0C   2dz2       0.000000 -0.021237 -0.069468  0.000011 -0.000003 -0.044593
  0C   2dxz      -0.004776  0.000001  0.000008  0.009741 -0.053881 -0.000010
  0C   2dyz      -0.000991 -0.000005 -0.000011 -0.053889 -0.009724 -0.000004
  0C   2dx2y2     0.006688 -0.000001 -0.000011 -0.025654  0.141950  0.000005
  0C   2dxy      -0.001390 -0.000001 -0.000002 -0.141938 -0.025663 -0.000000
  0C   3dz2       0.000000  0.032156 -0.289974  0.000077 -0.000025 -1.025015
  0C   3dxz       0.033280 -0.000001  0.000001  0.028915 -0.159867 -0.000149
  0C   3dyz       0.006913  0.000012 -0.000048 -0.159910 -0.028840 -0.000094
  0C   3dx2y2     0.025992 -0.000003 -0.000035 -0.098498  0.544947 -0.000003
  0C   3dxy      -0.005392 -0.000005 -0.000012 -0.544880 -0.098505 -0.000006
  0C   1f0        0.000000  0.003920 -0.019492 -0.000004 -0.000001  0.021327
  0C   1f+1       0.000897 -0.000000 -0.000001 -0.004594  0.025455  0.000004
  0C   1f-1       0.000186  0.000001 -0.000003  0.025452  0.004600  0.000004
  0C   1f+2       0.000919 -0.000000 -0.000003 -0.004123  0.022795  0.000001
  0C   1f-2      -0.000191 -0.000001 -0.000004 -0.022797 -0.004118  0.000000
  0C   1f+3      -0.000000  0.002800  0.047251 -0.000003  0.000002 -0.003306
  0C   1f-3      -0.000000 -0.000000 -0.000007 -0.000002 -0.000002  0.000001
  1H   1s         0.014455  0.023188  0.013015 -0.008299  0.045933  0.035402
  1H   2s        -0.006982  0.036813 -0.489052  0.160529 -0.888540 -0.079271
  1H   3s         0.008880  0.056139 -1.819256  0.749502 -4.148286 -1.163649
  1H   1pz       -0.000174  0.001330 -0.000144  0.000397 -0.002196 -0.000934
  1H   1px        0.000619  0.000813  0.003696 -0.001185  0.006557 -0.002072
  1H   1py       -0.000024  0.000000 -0.000000 -0.000972 -0.000176 -0.000000
  1H   2pz        0.001730  0.012309  0.011281 -0.003937  0.021796 -0.005712
  1H   2px       -0.003481  0.000276 -0.046830  0.017665 -0.097790  0.018127
  1H   2py       -0.000158  0.000001  0.000003 -0.005719 -0.001027 -0.000001
  1H   3pz        0.013364  0.009958  0.074734 -0.035683  0.197519 -0.162605
  1H   3px        0.013448  0.007384 -0.486295  0.153643 -0.850359 -0.262509
  1H   3py       -0.001160 -0.000000  0.000028  0.043059  0.007836 -0.000004
  1H   1dz2       0.000309 -0.000881  0.008515 -0.003127  0.017306  0.004186
  1H   1dxz       0.000040  0.002845  0.007567 -0.002480  0.013729  0.000342
  1H   1dyz      -0.000066 -0.000000 -0.000000  0.002770  0.000499  0.000000
  1H   1dx2y2    -0.000265  0.000385 -0.013379  0.006784 -0.037553  0.000699
  1H   1dxy      -0.000101  0.000000  0.000002 -0.005604 -0.001008 -0.000000
  2H   1s        -0.004626  0.023195  0.013023  0.043927 -0.015779  0.035388
  2H   2s         0.002239  0.036814 -0.489130 -0.849687  0.305221 -0.079319
  2H   3s        -0.002836  0.056140 -1.819524 -3.967037  1.425017 -1.163394
  2H   1pz        0.000056  0.001330 -0.000144 -0.002101  0.000755 -0.000936
  2H   1px        0.000003 -0.000406 -0.001848 -0.003424  0.000321  0.001036
  2H   1py       -0.000227  0.000704  0.003202  0.005264 -0.002415 -0.001794
  2H   2pz       -0.000553  0.012310  0.011289  0.020849 -0.007489 -0.005707
  2H   2px       -0.001199 -0.000138  0.023419  0.045049 -0.021530 -0.009065
  2H   2py        0.000595  0.000240 -0.040567 -0.081967  0.026356  0.015702
  2H   3pz       -0.004283  0.009963  0.074805  0.188973 -0.067879 -0.162594
  2H   3px       -0.002554 -0.003693  0.243150  0.419372 -0.110375  0.131192
  2H   3py       -0.006446  0.006399 -0.421200 -0.696870  0.273562 -0.227258
  2H   1dz2      -0.000099 -0.000881  0.008515  0.016548 -0.005944  0.004185
  2H   1dxz      -0.000260 -0.001422 -0.003785 -0.005742  0.004654 -0.000170
  2H   1dyz      -0.000165  0.002464  0.006557  0.011850 -0.002761  0.000296
  2H   1dx2y2     0.000366 -0.000193  0.006692  0.019625 -0.001811 -0.000352
  2H   1dxy      -0.000310 -0.000333  0.011588  0.030134 -0.013850 -0.000609
  3H   1s         0.000001 -0.031758  0.000067 -0.000001  0.000006 -0.117650
  3H   2s        -0.000001 -0.079629 -0.066872 -0.000015 -0.000022  0.433365
  3H   3s        -0.000024 -0.178012  0.308123 -0.000131  0.000056  4.787625
  3H   1pz       -0.000000 -0.005134  0.000002  0.000000  0.000000  0.000698
  3H   1px        0.001189 -0.000001 -0.000000  0.000342 -0.001892 -0.000000
  3H   1py        0.000247  0.000000  0.000000 -0.001891 -0.000342  0.000000
  3H   2pz       -0.000002 -0.029579 -0.001445  0.000001 -0.000003 -0.008005
  3H   2px        0.007330 -0.000005  0.000001 -0.001854  0.010263  0.000006
  3H   2py        0.001523 -0.000000  0.000000  0.010261  0.001853 -0.000008
  3H   3pz       -0.000026 -0.254876  0.033216 -0.000223  0.000125  1.371818
  3H   3px        0.072517 -0.000039  0.000015 -0.012269  0.067975  0.000028
  3H   3py        0.015059  0.000007 -0.000020  0.067953  0.012281  0.000189
  3H   1dz2       0.000001 -0.000568  0.002269  0.000001  0.000000  0.008765
  3H   1dxz      -0.002413  0.000000 -0.000000 -0.000135  0.000744 -0.000000
  3H   1dyz      -0.000501 -0.000001  0.000001  0.000743  0.000134  0.000002
  3H   1dx2y2    -0.000303 -0.000000  0.000000  0.000558 -0.003086  0.000000
  3H   1dxy       0.000063  0.000000  0.000000  0.003086  0.000558  0.000000
  4H   1s        -0.009827  0.023190  0.013018 -0.035631 -0.030153  0.035393
  4H   2s         0.004743  0.036814 -0.489106  0.689217  0.583262 -0.079280
  4H   3s        -0.006030  0.056134 -1.819371  3.217815  2.723062 -1.163288
  4H   1pz        0.000118  0.001330 -0.000144  0.001703  0.001442 -0.000935
  4H   1px        0.000135 -0.000406 -0.001848  0.003096  0.001499  0.001036
  4H   1py        0.000408 -0.000704 -0.003201  0.004086  0.004105  0.001794
  4H   2pz       -0.001175  0.012309  0.011283 -0.016902 -0.014305 -0.005706
  4H   2px       -0.001687 -0.000139  0.023422 -0.034677 -0.035941 -0.009067
  4H   2py       -0.001758 -0.000239  0.040564 -0.067567 -0.053374 -0.015702
  4H   3pz       -0.009096  0.009959  0.074735 -0.153189 -0.129637 -0.162626
  4H   3px        0.000870 -0.003691  0.243176 -0.354312 -0.250197  0.131218
  4H   3py        0.010053 -0.006393  0.421156 -0.557114 -0.500104  0.227218
  4H   1dz2      -0.000210 -0.000881  0.008517 -0.013425 -0.011361  0.004185
  4H   1dxz      -0.000196 -0.001423 -0.003784  0.003749  0.006366 -0.000170
  4H   1dyz       0.000145 -0.002464 -0.006553  0.010129  0.006729 -0.000295
  4H   1dx2y2     0.000231 -0.000192  0.006690 -0.017749 -0.008560 -0.000352
  4H   1dxy       0.000342  0.000333 -0.011589  0.023389  0.023523  0.000609
  5Cl  1s         0.000000  0.002166  0.002796 -0.000000  0.000001 -0.005527
  5Cl  2s         0.000000  0.006236  0.008213 -0.000002  0.000002 -0.016975
  5Cl  3s        -0.000000 -0.012059 -0.017288  0.000004 -0.000004  0.041909
  5Cl  4s        -0.000000 -0.027610 -0.032013  0.000004 -0.000004  0.040068
  5Cl  5s        -0.000000  0.054333  0.046800  0.000008 -0.000004  0.040233
  5Cl  6s        -0.000002 -0.076989  0.090879 -0.000170  0.000126 -0.664129
  5Cl  1pz        0.000060 -0.253342 -0.021872 -0.000003  0.000000 -0.026538
  5Cl  1px       -0.327415 -0.000044 -0.000002 -0.003945  0.021848  0.000007
  5Cl  1py       -0.068002  0.000004  0.000000  0.021844  0.003946 -0.000008
  5Cl  2pz        0.000014 -0.061685 -0.005149 -0.000001  0.000001 -0.004419
  5Cl  2px       -0.078376 -0.000011 -0.000000 -0.000826  0.004576  0.000002
  5Cl  2py       -0.016278  0.000001  0.000000  0.004575  0.000827 -0.000003
  5Cl  3pz       -0.000043  0.191668  0.017022  0.000009 -0.000005  0.005616
  5Cl  3px        0.236890  0.000034  0.000001  0.002287 -0.012669 -0.000010
  5Cl  3py        0.049201 -0.000004  0.000000 -0.012665 -0.002288  0.000011
  5Cl  4pz       -0.000107  0.412231  0.037756 -0.000040  0.000030  0.193601
  5Cl  4px        0.576586  0.000069  0.000008  0.011242 -0.062256  0.000027
  5Cl  4py        0.119754 -0.000002 -0.000004 -0.062251 -0.011245 -0.000012
  5Cl  5pz       -0.000060  0.200430  0.192416 -0.000119  0.000094 -0.241349
  5Cl  5px        0.314735  0.000031  0.000003  0.006482 -0.035938 -0.000019
  5Cl  5py        0.065369  0.000003  0.000020 -0.035906 -0.006494 -0.000021
  5Cl  1dz2      -0.000001  0.000241  0.000888 -0.000000  0.000000 -0.019089
  5Cl  1dxz       0.002060  0.000000  0.000000 -0.000313  0.001735 -0.000005
  5Cl  1dyz       0.000428 -0.000000  0.000000  0.001734  0.000313  0.000001
  5Cl  1dx2y2    -0.000013 -0.000000  0.000000  0.000192 -0.001063  0.000000
  5Cl  1dxy       0.000003  0.000000  0.000000  0.001063  0.000192  0.000000
  5Cl  2dz2      -0.000003  0.001725 -0.004469 -0.000003  0.000003 -0.072257
  5Cl  2dxz       0.012449  0.000001  0.000000 -0.001461  0.008094 -0.000018
  5Cl  2dyz       0.002586 -0.000001 -0.000001  0.008090  0.001462  0.000003
  5Cl  2dx2y2     0.000148 -0.000000 -0.000000  0.000730 -0.004037 -0.000000
  5Cl  2dxy      -0.000031 -0.000000 -0.000000  0.004037  0.000730  0.000000
  5Cl  3dz2      -0.000001 -0.026885  0.090254 -0.000047  0.000043 -0.136812
  5Cl  3dxz      -0.003082 -0.000011  0.000011  0.001596 -0.008857 -0.000002
  5Cl  3dyz      -0.000639  0.000005  0.000010 -0.008848 -0.001601 -0.000035
  5Cl  3dx2y2    -0.000658 -0.000000  0.000003  0.001652 -0.009146  0.000003
  5Cl  3dxy       0.000137  0.000000  0.000001  0.009142  0.001654  0.000003
  5Cl  1f0       -0.000004  0.007049  0.006304 -0.000002  0.000003 -0.019457
  5Cl  1f+1       0.008696  0.000003  0.000002  0.000513 -0.002844 -0.000008
  5Cl  1f-1       0.001806 -0.000001  0.000000 -0.002843 -0.000514  0.000001
  5Cl  1f+2      -0.000014  0.000000  0.000000  0.000058 -0.000323  0.000000
  5Cl  1f-2       0.000003  0.000000  0.000000  0.000321  0.000058  0.000000
  5Cl  1f+3       0.000000 -0.000003  0.000005 -0.000000  0.000000  0.000108
  5Cl  1f-3      -0.000000  0.000000 -0.000000 -0.000000 -0.000000 -0.000000
                     18        19        20        21        22        23   
                   0.25975   0.30332   0.30332   0.35337   0.35338   0.36851
                   0.00000   0.00000   0.00000   0.00000   0.00000   0.00000
                  --------  --------  --------  --------  --------  --------
  0C   1s        -0.003342 -0.000001 -0.000003  0.000013  0.000010  0.020313
  0C   2s        -0.008721 -0.000002 -0.000005  0.000020  0.000015  0.030571
  0C   1pz       -0.088434  0.000010  0.000006 -0.000031 -0.000036 -0.034346
  0C   1px        0.000003  0.018684  0.070074  0.035326  0.005469 -0.000017
  0C   1py       -0.000006 -0.070066  0.018684  0.005466 -0.035329  0.000014
  0C   3s         0.046070  0.000028  0.000023 -0.000158 -0.000140 -0.208988
  0C   2pz       -0.029848  0.000029  0.000024 -0.000053 -0.000084 -0.028120
  0C   2px       -0.000011 -0.050345 -0.188875 -0.106585 -0.016502  0.000046
  0C   2py       -0.000002  0.188820 -0.050368 -0.016493  0.106608 -0.000041
  0C   4s        -0.568363 -0.001268 -0.001002  0.005458  0.005471  6.870504
  0C   3pz        0.654226  0.000642  0.000277 -0.002411 -0.002867 -2.911289
  0C   3px       -0.000169 -0.221838 -0.832185 -1.083544 -0.167642  0.000520
  0C   3py        0.000181  0.831919 -0.221898 -0.167725  1.083398 -0.000820
  0C   1dz2      -0.004304  0.000001  0.000001 -0.000005 -0.000004 -0.006522
  0C   1dxz       0.000000 -0.000930 -0.003487  0.008725  0.001350 -0.000010
  0C   1dyz      -0.000001  0.003488 -0.000929  0.001351 -0.008726  0.000006
  0C   1dx2y2    -0.000001  0.001296  0.004856  0.003208  0.000498 -0.000002
  0C   1dxy      -0.000001  0.004857 -0.001296 -0.000497  0.003210 -0.000001
  0C   2dz2      -0.044243 -0.000005  0.000010 -0.000050 -0.000047 -0.067288
  0C   2dxz      -0.000004 -0.016414 -0.061536 -0.018222 -0.002828  0.000002
  0C   2dyz      -0.000008  0.061532 -0.016402 -0.002814  0.018233 -0.000009
  0C   2dx2y2     0.000012  0.034381  0.128910  0.086880  0.013461 -0.000048
  0C   2dxy       0.000002  0.128870 -0.034398 -0.013458  0.086883 -0.000037
  0C   3dz2      -0.459216 -0.000155  0.000029  0.000165  0.000326  0.165886
  0C   3dxz       0.000073 -0.102665 -0.384735  0.360803  0.055802 -0.000362
  0C   3dyz      -0.000201  0.384895 -0.102558  0.055871 -0.360764  0.000398
  0C   3dx2y2     0.000065  0.139833  0.524503  0.372157  0.057762 -0.000193
  0C   3dxy       0.000033  0.524186 -0.139971 -0.057568  0.372295 -0.000163
  0C   1f0       -0.003348  0.000002 -0.000002 -0.000003  0.000000 -0.006565
  0C   1f+1       0.000001  0.006505  0.024411  0.011884  0.001839 -0.000004
  0C   1f-1      -0.000000 -0.024402  0.006512  0.001840 -0.011887  0.000004
  0C   1f+2       0.000001  0.005865  0.021979  0.009021  0.001400 -0.000002
  0C   1f-2      -0.000001  0.021974 -0.005862 -0.001396  0.009026 -0.000006
  0C   1f+3       0.009804 -0.000002 -0.000005  0.000031  0.000028  0.039560
  0C   1f-3      -0.000001  0.000001 -0.000002 -0.000001  0.000001 -0.000006
  1H   1s         0.030262  0.025650  0.096197  0.033058  0.005160  0.068831
  1H   2s        -0.035171 -0.103981 -0.390187 -0.414925 -0.064419 -0.290693
  1H   3s         0.006783 -0.281404 -1.055127 -0.777444 -0.120453 -0.410507
  1H   1pz       -0.002415  0.000751  0.002812 -0.009235 -0.001431 -0.001954
  1H   1px       -0.000733  0.000653  0.002452  0.000872  0.000134 -0.001789
  1H   1py        0.000000 -0.007347  0.001960  0.001159 -0.007493  0.000004
  1H   2pz        0.003536  0.003003  0.011283  0.043251  0.006704  0.014270
  1H   2px       -0.012114 -0.026805 -0.100553 -0.065359 -0.010145 -0.040596
  1H   2py       -0.000000  0.017018 -0.004533 -0.003069  0.019863 -0.000008
  1H   3pz       -0.085055  0.047228  0.177124 -0.189453 -0.029176  0.214921
  1H   3px       -0.101794 -0.131960 -0.494769 -0.298678 -0.046519 -0.538350
  1H   3py        0.000026 -0.241238  0.064343  0.052805 -0.340776  0.000233
  1H   1dz2       0.002369  0.003713  0.013924  0.010890  0.001690  0.007087
  1H   1dxz      -0.000648  0.003197  0.011992  0.003693  0.000575  0.005772
  1H   1dyz       0.000001 -0.001297  0.000345 -0.000162  0.001045 -0.000001
  1H   1dx2y2    -0.004938 -0.008312 -0.031172 -0.018121 -0.002811 -0.008994
  1H   1dxy       0.000001 -0.001262  0.000340  0.000400 -0.002567  0.000003
  2H   1s         0.030266 -0.096146 -0.025896 -0.012027 -0.031097  0.068846
  2H   2s        -0.034990  0.389800  0.105029  0.151538  0.391080 -0.291260
  2H   3s         0.006917  1.054425  0.284006  0.284140  0.733030 -0.411279
  2H   1pz       -0.002413 -0.002810 -0.000756  0.003377  0.008710 -0.001975
[...]
      8       0.000000   0.000000   0.000000   0.000000   0.000000   0.000000
      9       0.000000   0.000000   0.000000   0.000000   0.000000   0.000000
     10       0.000000   0.000000   0.000000   0.000000   0.000000   0.000000
     11       0.000000   0.000000   0.000000   0.000000   0.000000   0.000000
     12       0.000000   0.000000   0.000000   0.000000   0.000000   0.000000
     13       0.000000   0.000000   0.000000   0.000000   0.000000   0.000000
     14       0.000000   0.000000   0.000000   0.000000   0.000000   0.000000
     15       0.000000   0.000000   0.000000   0.000000   0.000000   0.000000
     16       0.000000   0.000000   0.000000   0.000000   0.000000   0.000000
     17       0.000000   0.000000   0.000000   0.000000   0.000000   0.000000
                  6          7          8          9         10         11    
      0      -0.000011  -0.023820   0.025329  -0.000034   0.055308   0.045004
      1      -0.000011   0.025330   0.023819   0.000105  -0.045001   0.055301
      2      -0.128712   0.000144   0.000118  -0.326795  -0.000018   0.000010
      3       0.039775   0.067964  -0.072257  -0.028698  -0.024748  -0.020119
      4       0.000025  -0.083901  -0.078877  -0.000211   0.044119  -0.054346
      5       0.137063   0.444050  -0.471743  -0.501461  -0.347169  -0.282297
      6      -0.019872   0.071099  -0.085815   0.014272  -0.036468  -0.051007
      7       0.034460  -0.070435  -0.075771  -0.025013   0.013352  -0.042559
      8       0.137061  -0.630426  -0.148229  -0.502623   0.418036  -0.159289
      9       0.000094  -0.396042   0.421152  -0.000074  -0.642286  -0.522635
     10      -0.000017   0.421150   0.396058   0.000691   0.522641  -0.642276
     11       0.960368   0.000205   0.000098  -0.331090   0.000079   0.000024
     12      -0.019877   0.081148  -0.076096   0.014303  -0.057384  -0.025369
     13      -0.034407  -0.079835  -0.065567   0.024636   0.038982  -0.021612
     14       0.137078   0.186975   0.620521  -0.500488  -0.071118   0.441917
     15       0.000000   0.013069  -0.013898   0.000017   0.002896   0.002356
     16       0.000002  -0.013898  -0.013069  -0.000038  -0.002356   0.002896
     17       0.004610  -0.000072  -0.000059   0.162905   0.000011  -0.000013
                 12         13         14         15         16         17    
      0      -0.000011  -0.025439   0.078335   0.000000   0.092044  -0.033471
      1      -0.000024  -0.078344  -0.025440  -0.000003  -0.033470  -0.092042
      2      -0.133829   0.000014   0.000001  -0.026416  -0.000002   0.000015
      3       0.122268  -0.032791   0.101127  -0.567253  -0.747213   0.271666
      4       0.000078   0.747860   0.242828   0.000045  -0.004100  -0.011467
      5       0.496570  -0.055213   0.169697   0.106116   0.156970  -0.057068
      6      -0.061068   0.541511  -0.416284   0.283605  -0.297677  -0.263699
      7       0.105920   0.230458  -0.331532  -0.491226   0.531254   0.438115
      8       0.496582  -0.119498  -0.132517   0.106107  -0.127914  -0.107399
      9      -0.000041  -0.010352   0.031911  -0.000002   0.008921  -0.003243
     10       0.000164  -0.031824  -0.010345   0.000003  -0.003246  -0.008924
     11      -0.444159   0.000002   0.000000  -0.017207  -0.000000   0.000002
     12      -0.061087  -0.193696  -0.654946   0.283646  -0.058809   0.393382
     13      -0.105759  -0.008177   0.403733   0.491215  -0.125810   0.677033
     14       0.496567   0.174546  -0.037160   0.105962  -0.029027   0.164280
     15       0.000002  -0.000044   0.000136   0.000000  -0.000057   0.000021
     16      -0.000003  -0.000136  -0.000044  -0.000000   0.000021   0.000057
     17       0.015612  -0.000000  -0.000001   0.000392  -0.000000   0.000000


-----------
IR SPECTRUM
-----------

 Mode    freq (cm**-1)   T**2         TX         TY         TZ
-------------------------------------------------------------------
   7:       397.79    0.450592  ( -0.459569   0.489269   0.002007)
   8:       397.84    0.450616  (  0.488746   0.460156   0.000663)
   9:       513.79    5.418235  ( -0.000202  -0.000159  -2.327710)
  10:       996.13    8.359705  ( -2.242845   1.824651  -0.000741)
  11:       996.16    8.357847  ( -1.824930  -2.242204   0.000719)
  12:      1240.04    2.310755  ( -0.000500   0.001543  -1.520116)
  13:      1453.55    4.412297  (  0.650307   1.997347   0.000964)
  14:      1453.57    4.428562  ( -2.002030   0.648405  -0.003263)
  15:      3115.67    0.012886  (  0.001463   0.000245   0.113507)
  16:      3289.38    0.026882  ( -0.154070   0.056065  -0.001103)
  17:      3289.39    0.026992  (  0.056113   0.154413   0.000309)

The first frequency considered to be a vibration is 7
The total number of vibrations considered is 11


--------------------------
THERMOCHEMISTRY AT 298.15K
--------------------------

Temperature         ... 298.15 K
Pressure            ... 1.00 atm
Total Mass          ... 51.50 AMU

Throughout the following assumptions are being made:
  (1) The electronic state is orbitally nondegenerate
      but the spin degeneracy is treated
  (2) There are no thermally accessible electronically excited states
  (3) Hindered rotations indicated by low frequency modes are not
      treated as such but are treated as vibrations and this may
      cause some error
  (4) All equations used are the standard statistical mechanics
      equations for an ideal gas
  (5) All vibrations are strictly harmonic

freq.     397.79  E(vib)   ...       0.20 
freq.     397.84  E(vib)   ...       0.20 
freq.     513.79  E(vib)   ...       0.13 
freq.     996.13  E(vib)   ...       0.02 
freq.     996.16  E(vib)   ...       0.02 
freq.    1240.04  E(vib)   ...       0.01 
freq.    1453.55  E(vib)   ...       0.00 
freq.    1453.57  E(vib)   ...       0.00 
freq.    3115.67  E(vib)   ...       0.00 
freq.    3289.38  E(vib)   ...       0.00 
freq.    3289.39  E(vib)   ...       0.00 

------------
INNER ENERGY
------------

The inner energy is: U= E(el) + E(ZPE) + E(vib) + E(rot) + E(trans)
    E(el)   - is the total energy from the electronic structure calculation
              = E(kin-el) + E(nuc-el) + E(el-el) + E(nuc-nuc)
    E(ZPE)  - the the zero temperature vibrational energy from the frequency calculation
    E(vib)  - the the finite temperature correction to E(ZPE) due to population
              of excited vibrational states
    E(rot)  - is the rotational thermal energy
    E(trans)- is the translational thermal energy

Summary of contributions to the inner energy U:
Electronic energy                ...   -500.15112127 Eh
Zero point energy                ...      0.03905532 Eh      24.51 kcal/mol
Thermal vibrational correction   ...      0.00093812 Eh       0.59 kcal/mol
Thermal rotational correction    ...      0.00141627 Eh       0.89 kcal/mol
Thermal translational correction ...      0.00141627 Eh       0.89 kcal/mol
-----------------------------------------------------------------------
Total thermal energy                   -500.10829528 Eh


Summary of corrections to the electronic energy:
(perhaps to be used in another calculation)
Total thermal correction                  0.00377066 Eh       2.37 kcal/mol
Non-thermal (ZPE) correction              0.03905532 Eh      24.51 kcal/mol
-----------------------------------------------------------------------
Total correction                          0.04282598 Eh      26.87 kcal/mol


--------
ENTHALPY
--------

The enthalpy is H = U + kB*T
                kB is Boltzmann's constant
Total free energy                 ...   -500.10829528 Eh 
Thermal Enthalpy correction       ...      0.00094421 Eh       0.59 kcal/mol
-----------------------------------------------------------------------
Total Enthalpy                    ...   -500.10735107 Eh


Note: Only C1 symmetry has been detected, increase convergence thresholds 
      if your molecule has a higher symmetry. Symmetry factor of 1.0 is   
      used for the rotational entropy correction. 
 

Note: Rotational entropy computed according to Herzberg 
Infrared and Raman Spectra, Chapter V,1, Van Nostrand Reinhold, 1945 
Point Group:  C1, Symmetry Number:   1  
Rotational constants in cm-1:     4.988569     0.193726     0.193726 

Vibrational entropy computed according to the QRRHO of S. Grimme
Chem.Eur.J. 2012 18 9955


-------
ENTROPY
-------

The entropy contributions are T*S = T*(S(el)+S(vib)+S(rot)+S(trans))
     S(el)   - electronic entropy
     S(vib)  - vibrational entropy
     S(rot)  - rotational entropy
     S(trans)- translational entropy
The entropies will be listed as mutliplied by the temperature to get
units of energy

Electronic entropy                ...      0.00065446 Eh      0.41 kcal/mol
Vibrational entropy               ...      0.00134218 Eh      0.84 kcal/mol
Rotational entropy                ...      0.01030178 Eh      6.46 kcal/mol
Translational entropy             ...      0.01793131 Eh     11.25 kcal/mol
-----------------------------------------------------------------------
Final entropy term                ...      0.03022973 Eh     18.97 kcal/mol

In case the symmetry of your molecule has not been determined correctly
or in case you have a reason to use a different symmetry number we print 
out the resulting rotational entropy values for sn=1,12 :
 --------------------------------------------------------
|  sn= 1 | S(rot)=       0.01030178 Eh      6.46 kcal/mol|
|  sn= 2 | S(rot)=       0.00964733 Eh      6.05 kcal/mol|
|  sn= 3 | S(rot)=       0.00926449 Eh      5.81 kcal/mol|
|  sn= 4 | S(rot)=       0.00899287 Eh      5.64 kcal/mol|
|  sn= 5 | S(rot)=       0.00878218 Eh      5.51 kcal/mol|
|  sn= 6 | S(rot)=       0.00861004 Eh      5.40 kcal/mol|
|  sn= 7 | S(rot)=       0.00846449 Eh      5.31 kcal/mol|
|  sn= 8 | S(rot)=       0.00833841 Eh      5.23 kcal/mol|
|  sn= 9 | S(rot)=       0.00822721 Eh      5.16 kcal/mol|
|  sn=10 | S(rot)=       0.00812773 Eh      5.10 kcal/mol|
|  sn=11 | S(rot)=       0.00803774 Eh      5.04 kcal/mol|
|  sn=12 | S(rot)=       0.00795558 Eh      4.99 kcal/mol|
 --------------------------------------------------------


-------------------
GIBBS FREE ENERGY
-------------------

The Gibbs free energy is G = H - T*S

Total enthalpy                    ...   -500.10735107 Eh 
Total entropy correction          ...     -0.03022973 Eh    -18.97 kcal/mol
-----------------------------------------------------------------------
Final Gibbs free energy         ...   -500.13758081 Eh

For completeness - the Gibbs free energy minus the electronic energy
G-E(el)                           ...      0.01354046 Eh      8.50 kcal/mol




------------------------------------------------------------------------------- 
                    Intrinsic Reaction Coordinate Calculation                  
------------------------------------------------------------------------------- 

System:
Nr. of atoms                        .... 6
Algorithm: SD (steepest descent step) plus correction
Settings:
Max. no of cycles        MaxIter    .... 1000
Direction                           .... Forward and backward
Initial displacement Hessian type   .... Read
Hessian Filename                    .... H3CHCl‡.hess
Following Hessian mode              .... 0
Initial displacement type           .... Energy
  Initial displacement energy change.... 0.250 mEh
Coordinate system following type    .... Cartesian
Length of steepest descent step     .... 0.150 bohr
Do parabolic fit 
  if SD step is uphill              .... YES
Do Correction to SD step            .... YES
Scaling for length of correction
  compared to SD step               .... 0.333
Do parabolic fit to SD correction   .... YES
Only interpolate for parabolic fit  .... YES
Do update to length of
  SD step and correction            .... YES
Convergence Tolerances:
  Max. Gradient            TolMAXG  ....  2.0000e-03 Eh/bohr
  RMS Gradient             TolRMSG  ....  5.0000e-04 Eh/bohr
Storing full IRC trajectory in      .... H3CHCl‡_IRC_Full_trj.xyz
Storing forward trajectory in       .... H3CHCl‡_IRC_F_trj.xyz
Storing backward trajectory in      .... H3CHCl‡_IRC_B_trj.xyz


 ...good, the file H3CHCl‡.hess exists
Reading the hessian file           ...... done
Determining length of initial displacement:
  Requested energy change (quadratic behavior): 0.250 mEh
  Resulting scaling factor for initial displacement along normalized TS mode: 0.0940

         *************************************************************
         *                          FORWARD IRC                      *
         *************************************************************

Iteration    E(Eh)      dE(kcal/mol)  max(|G|)   RMS(G) 
Convergence thresholds                0.002000  0.000500            
    0      -500.151395   -0.171865    0.006080  0.001885
    1      -500.152817   -1.064083    0.009130  0.003035
    2      -500.154251   -1.963637    0.008122  0.002296
    3      -500.155536   -2.770275    0.007520  0.002052
    4      -500.156628   -3.455804    0.006208  0.001991
    5      -500.157023   -3.703147    0.005966  0.002314
    6      -500.157158   -3.787932    0.006027  0.001710
    7      -500.157390   -3.933439    0.005884  0.001528
    8      -500.157626   -4.081768    0.005558  0.001482
    9      -500.157848   -4.221234    0.005378  0.001395
   10      -500.158063   -4.355825    0.005066  0.001353
   11      -500.158264   -4.482221    0.004870  0.001262
   12      -500.158458   -4.604052    0.004580  0.001218
   13      -500.158639   -4.717713    0.004372  0.001133
   14      -500.158813   -4.826655    0.004091  0.001093
   15      -500.158973   -4.927121    0.003882  0.001006
   16      -500.159127   -5.023818    0.003621  0.000965
   17      -500.159268   -5.112223    0.003408  0.000884
   18      -500.159402   -5.196230    0.003167  0.000850
   19      -500.159524   -5.272473    0.002950  0.000787
   20      -500.159637   -5.343574    0.002738  0.000739
   21      -500.159739   -5.407914    0.002532  0.000694
   22      -500.159832   -5.466289    0.002337  0.000704
   23      -500.159871   -5.490671    0.002253  0.000668
   24      -500.159912   -5.516192    0.002174  0.000562
   25      -500.159955   -5.543434    0.002069  0.000549
   26      -500.159996   -5.568997    0.001979  0.000513
   27      -500.160035   -5.593632    0.001880  0.000497

                      ***********************HURRAY********************
                      ***            THE IRC HAS CONVERGED          ***
                      *************************************************


         *************************************************************
         *                          BACKWARD IRC                     *
         *************************************************************

Iteration    E(Eh)      dE(kcal/mol)  max(|G|)   RMS(G) 
Convergence thresholds                0.002000  0.000500            
    0      -500.151323   -0.126307    0.006895  0.001868
    1      -500.152519   -0.877318    0.007753  0.002562
    2      -500.153907   -1.748110    0.006698  0.002242
    3      -500.155132   -2.516988    0.005431  0.001883
    4      -500.155961   -3.036792    0.008184  0.002707
    5      -500.156083   -3.113509    0.005384  0.001712
    6      -500.156185   -3.177590    0.003692  0.001409
    7      -500.156360   -3.287057    0.003075  0.001210
    8      -500.156533   -3.395729    0.003215  0.001094
    9      -500.156694   -3.496978    0.002730  0.001009
   10      -500.156845   -3.591442    0.002535  0.000919
   11      -500.156982   -3.677577    0.002425  0.000856
   12      -500.157105   -3.755043    0.002448  0.000803
   13      -500.157214   -3.823067    0.002481  0.000774
   14      -500.157306   -3.881065    0.002759  0.000852
   15      -500.157331   -3.896816    0.001830  0.000695
   16      -500.157374   -3.923505    0.001613  0.000597
   17      -500.157419   -3.951576    0.001554  0.000564
   18      -500.157462   -3.978877    0.001442  0.000535
   19      -500.157502   -4.003869    0.001390  0.000504
   20      -500.157542   -4.028921    0.001307  0.000476

                      ***********************HURRAY********************
                      ***            THE IRC HAS CONVERGED          ***
                      *************************************************


---------------------------------------------------------------
                       IRC PATH SUMMARY              
---------------------------------------------------------------
All gradients are in Eh/Bohr.

Step        E(Eh)      dE(kcal/mol)  max(|G|)   RMS(G) 
   1      -500.157542   -4.028921    0.001307  0.000476
   2      -500.157502   -4.003869    0.001390  0.000504
   3      -500.157462   -3.978877    0.001442  0.000535
   4      -500.157419   -3.951576    0.001554  0.000564
   5      -500.157374   -3.923505    0.001613  0.000597
   6      -500.157331   -3.896816    0.001830  0.000695
   7      -500.157306   -3.881065    0.002759  0.000852
   8      -500.157214   -3.823067    0.002481  0.000774
   9      -500.157105   -3.755043    0.002448  0.000803
  10      -500.156982   -3.677577    0.002425  0.000856
  11      -500.156845   -3.591442    0.002535  0.000919
  12      -500.156694   -3.496978    0.002730  0.001009
  13      -500.156533   -3.395729    0.003215  0.001094
  14      -500.156360   -3.287057    0.003075  0.001210
  15      -500.156185   -3.177590    0.003692  0.001409
  16      -500.156083   -3.113509    0.005384  0.001712
  17      -500.155961   -3.036792    0.008184  0.002707
  18      -500.155132   -2.516988    0.005431  0.001883
  19      -500.153907   -1.748110    0.006698  0.002242
  20      -500.152519   -0.877318    0.007753  0.002562
  21      -500.151323   -0.126307    0.006895  0.001868
  22      -500.151121    0.000000    0.000018  0.000005 <= TS
  23      -500.151395   -0.171865    0.006080  0.001885
  24      -500.152817   -1.064083    0.009130  0.003035
  25      -500.154251   -1.963637    0.008122  0.002296
  26      -500.155536   -2.770275    0.007520  0.002052
  27      -500.156628   -3.455804    0.006208  0.001991
  28      -500.157023   -3.703147    0.005966  0.002314
  29      -500.157158   -3.787932    0.006027  0.001710
  30      -500.157390   -3.933439    0.005884  0.001528
  31      -500.157626   -4.081768    0.005558  0.001482
  32      -500.157848   -4.221234    0.005378  0.001395
  33      -500.158063   -4.355825    0.005066  0.001353
  34      -500.158264   -4.482221    0.004870  0.001262
  35      -500.158458   -4.604052    0.004580  0.001218
  36      -500.158639   -4.717713    0.004372  0.001133
  37      -500.158813   -4.826655    0.004091  0.001093
  38      -500.158973   -4.927121    0.003882  0.001006
  39      -500.159127   -5.023818    0.003621  0.000965
  40      -500.159268   -5.112223    0.003408  0.000884
  41      -500.159402   -5.196230    0.003167  0.000850
  42      -500.159524   -5.272473    0.002950  0.000787
  43      -500.159637   -5.343574    0.002738  0.000739
  44      -500.159739   -5.407914    0.002532  0.000694
  45      -500.159832   -5.466289    0.002337  0.000704
  46      -500.159871   -5.490671    0.002253  0.000668
  47      -500.159912   -5.516192    0.002174  0.000562
  48      -500.159955   -5.543434    0.002069  0.000549
  49      -500.159996   -5.568997    0.001979  0.000513
  50      -500.160035   -5.593632    0.001880  0.000497

Timings for individual modules:

Sum of individual times         ...     9700.268 sec (= 161.671 min)
GTO integral calculation        ...      151.140 sec (=   2.519 min)   1.6 %
SCF iterations                  ...     1492.051 sec (=  24.868 min)  15.4 %
MP2 module                      ...     5128.190 sec (=  85.470 min)  52.9 %
Geometry relaxation             ...        0.204 sec (=   0.003 min)   0.0 %
Analytical frequency calculation...     2928.683 sec (=  48.811 min)  30.2 %
                             ****ORCA TERMINATED NORMALLY****
TOTAL RUN TIME: 0 days 2 hours 41 minutes 44 seconds 923 msec
