
                                 *****************
                                 * O   R   C   A *
                                 *****************

           --- An Ab Initio, DFT and Semiempirical electronic structure package ---

                  #######################################################
                  #                        -***-                        #
                  #          Department of theory and spectroscopy      #
                  #               Directorship: Frank Neese             #
                  #        Max Planck Institute fuer Kohlenforschung    #
                  #                Kaiser Wilhelm Platz 1               #
                  #                 D-45470 Muelheim/Ruhr               #
                  #                      Germany                        #
                  #                                                     #
                  #                  All rights reserved                #
                  #                        -***-                        #
                  #######################################################


                         Program Version 4.2.1 -  RELEASE  -


 With contributions from (in alphabetic order):
   Daniel Aravena         : Magnetic Suceptibility
   Michael Atanasov       : Ab Initio Ligand Field Theory (pilot matlab implementation)
   Alexander A. Auer      : GIAO ZORA, VPT2
   Ute Becker             : Parallelization
   Giovanni Bistoni       : ED, misc. LED, open-shell LED, HFLD
   Martin Brehm           : Molecular dynamics
   Dmytro Bykov           : SCF Hessian
   Vijay G. Chilkuri      : MRCI spin determinant printing, contributions to CSF-ICE
   Dipayan Datta          : RHF DLPNO-CCSD density
   Achintya Kumar Dutta   : EOM-CC, STEOM-CC
   Dmitry Ganyushin       : Spin-Orbit,Spin-Spin,Magnetic field MRCI
   Miquel Garcia          : C-PCM Hessian, Gaussian charge scheme
   Yang Guo               : DLPNO-NEVPT2, CIM, IAO-localization
   Andreas Hansen         : Spin unrestricted coupled pair/coupled cluster methods
   Benjamin Helmich-Paris : CASSCF linear response (MC-RPA)
   Lee Huntington         : MR-EOM, pCC
   Robert Izsak           : Overlap fitted RIJCOSX, COSX-SCS-MP3, EOM
   Christian Kollmar      : KDIIS, OOCD, Brueckner-CCSD(T), CCSD density
   Simone Kossmann        : Meta GGA functionals, TD-DFT gradient, OOMP2, MP2 Hessian
   Martin Krupicka        : AUTO-CI
   Lucas Lang             : DCDCAS
   Dagmar Lenk            : GEPOL surface, SMD
   Dimitrios Liakos       : Extrapolation schemes; Compound Job, initial MDCI parallelization
   Dimitrios Manganas     : Further ROCIS development; embedding schemes
   Dimitrios Pantazis     : SARC Basis sets
   Taras Petrenko         : DFT Hessian,TD-DFT gradient, ASA, ECA, R-Raman, ABS, FL, XAS/XES, NRVS
   Peter Pinski           : DLPNO-MP2, DLPNO-MP2 Gradient
   Christoph Reimann      : Effective Core Potentials
   Marius Retegan         : Local ZFS, SOC
   Christoph Riplinger    : Optimizer, TS searches, QM/MM, DLPNO-CCSD(T), (RO)-DLPNO pert. Triples
   Tobias Risthaus        : Range-separated hybrids, TD-DFT gradient, RPA, STAB
   Michael Roemelt        : Original ROCIS implementation
   Masaaki Saitow         : Open-shell DLPNO-CCSD energy and density
   Barbara Sandhoefer     : DKH picture change effects
   Avijit Sen             : IP-ROCIS
   Kantharuban Sivalingam : CASSCF convergence, NEVPT2, FIC-MRCI
   Bernardo de Souza      : ESD, SOC TD-DFT
   Georgi Stoychev        : AutoAux, RI-MP2 NMR
   Willem Van den Heuvel  : Paramagnetic NMR
   Boris Wezisla          : Elementary symmetry handling
   Frank Wennmohs         : Technical directorship


 We gratefully acknowledge several colleagues who have allowed us to
 interface, adapt or use parts of their codes:
   Stefan Grimme, W. Hujo, H. Kruse,             : VdW corrections, initial TS optimization,
                  C. Bannwarth                     DFT functionals, gCP, sTDA/sTD-DF
   Ed Valeev, F. Pavosevic, A. Kumar             : LibInt (2-el integral package), F12 methods
   Garnet Chan, S. Sharma, J. Yang, R. Olivares  : DMRG
   Ulf Ekstrom                                   : XCFun DFT Library
   Mihaly Kallay                                 : mrcc  (arbitrary order and MRCC methods)
   Andreas Klamt, Michael Diedenhofen            : otool_cosmo (COSMO solvation model)
   Jiri Pittner, Ondrej Demel                    : Mk-CCSD
   Frank Weinhold                                : gennbo (NPA and NBO analysis)
   Christopher J. Cramer and Donald G. Truhlar   : smd solvation model
   Lars Goerigk                                  : TD-DFT with DH, B97 family of functionals
   V. Asgeirsson, H. Jonsson                     : NEB implementation
   FAccTs GmbH                                   : IRC, NEB, NEB-TS, Multilevel, MM, QM/MM, CI optimization
   S Lehtola, MJT Oliveira, MAL Marques          : LibXC Library


 Your calculation uses the libint2 library for the computation of 2-el integrals
 For citations please refer to: http://libint.valeyev.net

 Your ORCA version has been built with support for libXC version: 4.2.3
 For citations please refer to: https://tddft.org/programs/libxc/

 This ORCA versions uses:
   CBLAS   interface :  Fast vector & matrix operations
   LAPACKE interface :  Fast linear algebra routines
   SCALAPACK package :  Parallel linear algebra routines


----- Orbital basis set information -----
Your calculation utilizes the basis: 6-311G(3df,3pd)
   H, Li - Ne  : R. Krishnan, J. S. Binkley, R. Seeger and J. A. Pople, J. Chem. Phys. 72, 650 (1980).
   Na - Ar     : A. D. McLean and G. S. Chandler J. Chem. Phys. 72, 5639, (1980).
   K  - Ca     : J.-P. Blaudeau, M. P. McGrath, L. A. Curtiss and L. Radom, J. Chem. Phys. 107, 5016 (1997).
   Ga - Kr     : L. A. Curtiss, M. P. McGrath, J.-P. Blandeau, N. E. Davis, R. C. Binning and L. Radom, J. Chem. Phys. 103, 6104 (1995).
   Pol./Diff.
   H, Li - Cl  : T. Clark, J. Chandrasekhar and P. v. R. Schleyer, J. Comp. Chem. 4, 294 (1983).
   H - Ne      : M. J. Frisch, J. A. Pople and J. S. Binkley, J. Chem. Phys. 80, 3265 (1984).

================================================================================
                                        WARNINGS
                       Please study these warnings very carefully!
================================================================================


WARNING: Geometry Optimization
  ===> : Switching off AutoStart
         For restart on a previous wavefunction, please use MOREAD

WARNING: Post HF methods need fully converged wavefunctions
  ===> : Setting SCFConvForced true
         You can overwrite this default with %scf ConvForced false 


INFO   : the flag for use of LIBINT has been found!

================================================================================
                                       INPUT FILE
================================================================================
NAME = HCl.inp
|  1> ! UHF MP2 6-311G(3df,3pd) Opt Freq NoFrozenCore TightOpt TightSCF Grid4 FinalGrid5 PrintBasis PrintMOs NBO
|  2> %maxcore 3000
|  3> 
|  4> *xyz 0 1
|  5> Cl       0.000000000      0.000000000      0.034379000
|  6> H        0.000000000      0.000000000     -1.236571000
|  7> *
|  8> 
|  9> %pal
| 10>  nprocs 12
| 11> end
| 12> 
| 13>                          ****END OF INPUT****
================================================================================

                       *****************************
                       * Geometry Optimization Run *
                       *****************************

Geometry optimization settings:
Update method            Update   .... BFGS
Choice of coordinates    CoordSys .... Z-matrix Internals
Initial Hessian          InHess   .... Almoef's Model

Convergence Tolerances:
Energy Change            TolE     ....  1.0000e-06 Eh
Max. Gradient            TolMAXG  ....  1.0000e-04 Eh/bohr
RMS Gradient             TolRMSG  ....  3.0000e-05 Eh/bohr
Max. Displacement        TolMAXD  ....  1.0000e-03 bohr
RMS Displacement         TolRMSD  ....  6.0000e-04 bohr
Strict Convergence                ....  False
------------------------------------------------------------------------------
                        ORCA OPTIMIZATION COORDINATE SETUP
------------------------------------------------------------------------------

The optimization will be done in new redundant internal coordinates
Making redundant internal coordinates   ...  (new redundants) done
Evaluating the initial hessian          ...  (Almloef) done
Evaluating the coordinates              ...  done
Calculating the B-matrix                .... done
Calculating the G-matrix                .... done
Diagonalizing the G-matrix              .... done
The first mode is                       ....    0
The number of degrees of freedom        ....    1

    -----------------------------------------------------------------
                    Redundant Internal Coordinates


    -----------------------------------------------------------------
         Definition                    Initial Value    Approx d2E/dq
    -----------------------------------------------------------------
      1. B(H   1,Cl  0)                  1.2710         0.415647   
    -----------------------------------------------------------------

Number of atoms                         .... 2
Number of degrees of freedom            .... 1

         *************************************************************
         *                GEOMETRY OPTIMIZATION CYCLE   1            *
         *************************************************************
---------------------------------
CARTESIAN COORDINATES (ANGSTROEM)
---------------------------------
  Cl     0.000000    0.000000    0.034379
  H      0.000000    0.000000   -1.236571

----------------------------
CARTESIAN COORDINATES (A.U.)
----------------------------
  NO LB      ZA    FRAG     MASS         X           Y           Z
   0 Cl   17.0000    0    35.453    0.000000    0.000000    0.064967
   1 H     1.0000    0     1.008    0.000000    0.000000   -2.336781

--------------------------------
INTERNAL COORDINATES (ANGSTROEM)
--------------------------------
 Cl     0   0   0     0.000000000000     0.00000000     0.00000000
 H      1   0   0     1.270950000000     0.00000000     0.00000000

---------------------------
INTERNAL COORDINATES (A.U.)
---------------------------
 Cl     0   0   0     0.000000000000     0.00000000     0.00000000
 H      1   0   0     2.401747429907     0.00000000     0.00000000

---------------------
BASIS SET INFORMATION
---------------------
There are 2 groups of distinct atoms

 Group   1 Type Cl  : 13s10p3d1f contracted to 6s5p3d1f pattern {631111/52111/111/1}
 Group   2 Type H   : 5s3p1d contracted to 3s3p1d pattern {311/111/1}

Atom   0Cl   basis set group =>   1
Atom   1H    basis set group =>   2

-------------------------
BASIS SET IN INPUT FORMAT
-------------------------

 # Basis set for element : H 
 NewGTO H 
 S 3 
   1      33.8650000000      0.0254938145
   2       5.0947900000      0.1903731086
   3       1.1587900000      0.8521614860
 S 1 
   1       0.3258400000      1.0000000000
 S 1 
   1       0.1027410000      1.0000000000
 P 1 
   1       3.0000000000      1.0000000000
 P 1 
   1       0.7500000000      1.0000000000
 P 1 
   1       0.1875000000      1.0000000000
 D 1 
   1       1.0000000000      1.0000000000
  end;

 # Basis set for element : Cl
 NewGTO Cl
 S 6 
   1  105819.0000000000      0.0007380002
   2   15872.0000000000      0.0057180019
   3    3619.6500000000      0.0294950099
   4    1030.8000000000      0.1172860392
   5     339.9080000000      0.3629491212
   6     124.5380000000      0.5841491951
 S 3 
   1     124.5380000000      0.1341769734
   2      49.5135000000      0.6242498762
   3      20.8056000000      0.2917559421
 S 1 
   1       6.5834600000      1.0000000000
 S 1 
   1       2.5646800000      1.0000000000
 S 1 
   1       0.5597630000      1.0000000000
 S 1 
   1       0.1832730000      1.0000000000
 P 5 
   1     589.7760000000      0.0023909997
   2     139.8490000000      0.0185039976
   3      45.1413000000      0.0813769893
   4      16.8733000000      0.2215519708
   5       6.7411000000      0.7725688983
 P 2 
   1       6.7411000000     -1.5722438126
   2       2.7715200000      0.9923888817
 P 1 
   1       1.0238700000      1.0000000000
 P 1 
   1       0.3813680000      1.0000000000
 P 1 
   1       0.1094370000      1.0000000000
 D 1 
   1       3.0000000000      1.0000000000
 D 1 
   1       0.7500000000      1.0000000000
 D 1 
   1       0.1875000000      1.0000000000
 F 1 
   1       0.7000000000      1.0000000000
  end;



           ************************************************************
           *        Program running with 12 parallel MPI-processes    *
           *              working on a common directory               *
           ************************************************************
------------------------------------------------------------------------------
                           ORCA GTO INTEGRAL CALCULATION
------------------------------------------------------------------------------

                         BASIS SET STATISTICS AND STARTUP INFO

 # of primitive gaussian shells          ...   36
 # of primitive gaussian functions       ...   84
 # of contracted shells                  ...   22
 # of contracted basis functions         ...   60
 Highest angular momentum                ...    3
 Maximum contraction depth               ...    6
 Integral package used                   ... LIBINT
 Integral threshhold            Thresh   ...  2.500e-11
 Primitive cut-off              TCut     ...  2.500e-12


------------------------------ INTEGRAL EVALUATION ----------------------------


 * One electron integrals 
 Pre-screening matrix                    ... done
 Shell pair data                         ... done (   0.000 sec)



           ************************************************************
           *        Program running with 12 parallel MPI-processes    *
           *              working on a common directory               *
           ************************************************************
-------------------------------------------------------------------------------
                                 ORCA SCF
-------------------------------------------------------------------------------

------------
SCF SETTINGS
------------
Hamiltonian:
 Ab initio Hamiltonian  Method          .... Hartree-Fock(GTOs)


General Settings:
 Integral files         IntName         .... HCl
 Hartree-Fock type      HFTyp           .... UHF
 Total Charge           Charge          ....    0
 Multiplicity           Mult            ....    1
 Number of Electrons    NEL             ....   18
 Basis Dimension        Dim             ....   60
 Nuclear Repulsion      ENuc            ....      7.0781797404 Eh

Convergence Acceleration:
 DIIS                   CNVDIIS         .... on
   Start iteration      DIISMaxIt       ....    12
   Startup error        DIISStart       ....  0.200000
   # of expansion vecs  DIISMaxEq       ....     5
   Bias factor          DIISBfac        ....   1.050
   Max. coefficient     DIISMaxC        ....  10.000
 Newton-Raphson         CNVNR           .... off
 SOSCF                  CNVSOSCF        .... off
 Level Shifting         CNVShift        .... on
   Level shift para.    LevelShift      ....    0.2500
   Turn off err/grad.   ShiftErr        ....    0.0010
 Zerner damping         CNVZerner       .... off
 Static damping         CNVDamp         .... on
   Fraction old density DampFac         ....    0.7000
   Max. Damping (<1)    DampMax         ....    0.9800
   Min. Damping (>=0)   DampMin         ....    0.0000
   Turn off err/grad.   DampErr         ....    0.1000
 Fernandez-Rico         CNVRico         .... off

SCF Procedure:
 Maximum # iterations   MaxIter         ....   125
 SCF integral mode      SCFMode         .... Direct
   Integral package                     .... LIBINT
 Reset frequency        DirectResetFreq ....    20
 Integral Threshold     Thresh          ....  2.500e-11 Eh
 Primitive CutOff       TCut            ....  2.500e-12 Eh

Convergence Tolerance:
 Convergence Check Mode ConvCheckMode   .... Total+1el-Energy
 Convergence forced     ConvForced      .... 1
 Energy Change          TolE            ....  1.000e-08 Eh
 1-El. energy change                    ....  1.000e-05 Eh
 DIIS Error             TolErr          ....  5.000e-07


Diagonalization of the overlap matrix:
Smallest eigenvalue                        ... 4.915e-03
Time for diagonalization                   ...    0.005 sec
Threshold for overlap eigenvalues          ... 1.000e-08
Number of eigenvalues below threshold      ... 0
Time for construction of square roots      ...    0.004 sec
Total time needed                          ...    0.009 sec

-------------------
DFT GRID GENERATION
-------------------

General Integration Accuracy     IntAcc      ...  4.670
Radial Grid Type                 RadialGrid  ... Gauss-Chebyshev
Angular Grid (max. acc.)         AngularGrid ... Lebedev-302
Angular grid pruning method      GridPruning ... 3 (G Style)
Weight generation scheme         WeightScheme... Becke
Basis function cutoff            BFCut       ...    1.0000e-11
Integration weight cutoff        WCut        ...    1.0000e-14
Grids for H and He will be reduced by one unit

# of grid points (after initial pruning)     ...  10132 (   0.0 sec)
# of grid points (after weights+screening)   ...  10103 (   0.0 sec)
nearest neighbour list constructed           ...    0.0 sec
Grid point re-assignment to atoms done       ...    0.0 sec
Grid point division into batches done        ...    0.0 sec
Reduced shell lists constructed in    0.0 sec

Total number of grid points                  ...    10103
Total number of batches                      ...      159
Average number of points per batch           ...       63
Average number of grid points per atom       ...     5052
Average number of shells per batch           ...     5.20 (23.64%)
Average number of basis functions per batch  ...    13.47 (22.44%)
Average number of large shells per batch     ...     3.47 (66.67%)
Average number of large basis fcns per batch ...    10.00 (74.26%)
Maximum spatial batch extension              ...  25.31, 23.02, 15.18 au
Average spatial batch extension              ...   1.46,  1.37,  0.97 au

Time for grid setup =    0.156 sec

------------------------------
INITIAL GUESS: MODEL POTENTIAL
------------------------------
Loading Hartree-Fock densities                     ... done
Calculating cut-offs                               ... done
Setting up the integral package                    ... done
Initializing the effective Hamiltonian             ... done
Starting the Coulomb interaction                   ... done (   0.0 sec)
Reading the grid                                   ... done
Mapping shells                                     ... done
Starting the XC term evaluation                    ... done (   0.0 sec)
Transforming the Hamiltonian                       ... done (   0.0 sec)
Diagonalizing the Hamiltonian                      ... done (   0.0 sec)
Back transforming the eigenvectors                 ... done (   0.0 sec)
Now organizing SCF variables                       ... done
                      ------------------
                      INITIAL GUESS DONE (   0.3 sec)
                      ------------------
--------------
SCF ITERATIONS
--------------
ITER       Energy         Delta-E        Max-DP      RMS-DP      [F,P]     Damp
               ***  Starting incremental Fock matrix formation  ***
  0   -460.0725775376   0.000000000000 0.01383386  0.00051785  0.6475964 0.7000
  1   -460.0808322208  -0.008254683124 0.01033791  0.00039160  0.4558912 0.7000
  2   -460.0865295631  -0.005697342335 0.00658581  0.00026595  0.3208521 0.7000
  3   -460.0904632677  -0.003933704637 0.00407517  0.00017974  0.2257524 0.7000
                               ***Turning on DIIS***
  4   -460.0932119238  -0.002748656115 0.00251579  0.00012392  0.1587877 0.7000
  5   -460.1371343730  -0.043922449152 0.00137640  0.00009020  0.1116557 0.7000
  6   -460.1271119284   0.010022444543 0.00393723  0.00022710  0.0782555 0.0000
  7   -460.0999646619   0.027147266543 0.00042036  0.00002186  0.0020894 0.0000
  8   -460.1007249064  -0.000760244534 0.00025485  0.00001537  0.0010312 0.0000
  9   -460.0996760337   0.001048872768 0.00014257  0.00000707  0.0003747 0.0000
 10   -460.0997952100  -0.000119176367 0.00002951  0.00000097  0.0000362 0.0000
 11   -460.0997964885  -0.000001278416 0.00000389  0.00000020  0.0000098 0.0000
 12   -460.0997629892   0.000033499253 0.00000146  0.00000005  0.0000017 0.0000
                            ***DIIS convergence achieved***

               *****************************************************
               *                     SUCCESS                       *
               *           SCF CONVERGED AFTER  13 CYCLES          *
               *****************************************************


----------------
TOTAL SCF ENERGY
----------------

Total Energy       :         -460.09977379 Eh          -12519.95135 eV

Components:
Nuclear Repulsion  :            7.07817974 Eh             192.60706 eV
Electronic Energy  :         -467.17795353 Eh          -12712.55841 eV
One Electron Energy:         -649.83320427 Eh          -17682.86047 eV
Two Electron Energy:          182.65525075 Eh            4970.30206 eV

Virial components:
Potential Energy   :         -920.20291973 Eh          -25039.99445 eV
Kinetic Energy     :          460.10314594 Eh           12520.04311 eV
Virial Ratio       :            1.99999267


---------------
SCF CONVERGENCE
---------------

  Last Energy change         ...   -1.0797e-05  Tolerance :   1.0000e-08
  Last MAX-Density change    ...    1.6896e-07  Tolerance :   1.0000e-07
  Last RMS-Density change    ...    7.7720e-09  Tolerance :   5.0000e-09
  Last DIIS Error            ...    3.7100e-07  Tolerance :   5.0000e-07

             **** THE GBW FILE WAS UPDATED (HCl.gbw) ****
             **** DENSITY FILE WAS UPDATED (HCl.scfp) ****
             **** ENERGY FILE WAS UPDATED (HCl.en.tmp) ****
----------------------
UHF SPIN CONTAMINATION
----------------------

Expectation value of <S**2>     :    -0.000000
Ideal value S*(S+1) for S=0.0   :     0.000000
Deviation                       :    -0.000000

             **** THE GBW FILE WAS UPDATED (HCl.gbw) ****
             **** DENSITY FILE WAS UPDATED (HCl.scfp) ****
----------------
ORBITAL ENERGIES
----------------
                 SPIN UP ORBITALS
  NO   OCC          E(Eh)            E(eV) 
   0   1.0000    -104.850204     -2853.1191 
   1   1.0000     -10.576394      -287.7983 
   2   1.0000      -8.044434      -218.9002 
   3   1.0000      -8.042095      -218.8365 
   4   1.0000      -8.042095      -218.8365 
   5   1.0000      -1.119713       -30.4689 
   6   1.0000      -0.629128       -17.1194 
   7   1.0000      -0.478645       -13.0246 
   8   1.0000      -0.478645       -13.0246 
   9   0.0000       0.125088         3.4038 
  10   0.0000       0.266385         7.2487 
  11   0.0000       0.330735         8.9997 
  12   0.0000       0.360547         9.8110 
  13   0.0000       0.360547         9.8110 
  14   0.0000       0.416485        11.3331 
  15   0.0000       0.416485        11.3331 
  16   0.0000       0.429109        11.6767 
  17   0.0000       0.429109        11.6767 
  18   0.0000       0.649233        17.6665 
  19   0.0000       0.649233        17.6665 
  20   0.0000       0.669727        18.2242 
  21   0.0000       0.736683        20.0462 
  22   0.0000       1.176523        32.0148 
  23   0.0000       1.345019        36.5998 
  24   0.0000       1.345019        36.5998 
  25   0.0000       1.387921        37.7672 
  26   0.0000       1.387921        37.7672 
  27   0.0000       1.390585        37.8398 
  28   0.0000       1.937000        52.7084 
  29   0.0000       1.937000        52.7084 
  30   0.0000       2.194020        59.7023 
  31   0.0000       2.305371        62.7323 
  32   0.0000       2.305371        62.7323 
  33   0.0000       2.385473        64.9120 
  34   0.0000       2.385473        64.9120 
  35   0.0000       2.445238        66.5383 
  36   0.0000       2.445238        66.5383 
  37   0.0000       2.555484        69.5383 
  38   0.0000       2.682021        72.9815 
  39   0.0000       2.682021        72.9815 
  40   0.0000       2.878322        78.3231 
  41   0.0000       3.254236        88.5523 
  42   0.0000       3.408458        92.7489 
  43   0.0000       3.408458        92.7489 
  44   0.0000       4.058074       110.4258 
  45   0.0000       4.058074       110.4258 
  46   0.0000       4.559024       124.0574 
  47   0.0000       5.635183       153.3411 
  48   0.0000       5.635183       153.3411 
  49   0.0000       5.888655       160.2384 
  50   0.0000       5.888655       160.2384 
  51   0.0000       6.519006       177.3912 
  52   0.0000       8.616769       234.4742 
  53   0.0000       8.616769       234.4742 
  54   0.0000       9.149380       248.9673 
  55   0.0000      11.039044       300.3877 
  56   0.0000      26.230196       713.7599 
  57   0.0000      26.230196       713.7599 
  58   0.0000      27.833547       757.3893 
  59   0.0000     219.670653      5977.5424 

                 SPIN DOWN ORBITALS
  NO   OCC          E(Eh)            E(eV) 
   0   1.0000    -104.850204     -2853.1191 
   1   1.0000     -10.576394      -287.7983 
   2   1.0000      -8.044434      -218.9002 
   3   1.0000      -8.042095      -218.8365 
   4   1.0000      -8.042095      -218.8365 
   5   1.0000      -1.119713       -30.4689 
   6   1.0000      -0.629128       -17.1194 
   7   1.0000      -0.478645       -13.0246 
   8   1.0000      -0.478645       -13.0246 
   9   0.0000       0.125088         3.4038 
  10   0.0000       0.266385         7.2487 
  11   0.0000       0.330735         8.9997 
  12   0.0000       0.360547         9.8110 
  13   0.0000       0.360547         9.8110 
  14   0.0000       0.416485        11.3331 
  15   0.0000       0.416485        11.3331 
  16   0.0000       0.429109        11.6767 
  17   0.0000       0.429109        11.6767 
  18   0.0000       0.649233        17.6665 
  19   0.0000       0.649233        17.6665 
  20   0.0000       0.669727        18.2242 
  21   0.0000       0.736683        20.0462 
  22   0.0000       1.176523        32.0148 
  23   0.0000       1.345019        36.5998 
  24   0.0000       1.345019        36.5998 
  25   0.0000       1.387921        37.7672 
  26   0.0000       1.387921        37.7672 
  27   0.0000       1.390585        37.8398 
  28   0.0000       1.937000        52.7084 
  29   0.0000       1.937000        52.7084 
  30   0.0000       2.194020        59.7023 
  31   0.0000       2.305371        62.7323 
  32   0.0000       2.305371        62.7323 
  33   0.0000       2.385473        64.9120 
  34   0.0000       2.385473        64.9120 
  35   0.0000       2.445238        66.5383 
  36   0.0000       2.445238        66.5383 
  37   0.0000       2.555484        69.5383 
  38   0.0000       2.682021        72.9815 
  39   0.0000       2.682021        72.9815 
  40   0.0000       2.878322        78.3231 
  41   0.0000       3.254236        88.5523 
  42   0.0000       3.408458        92.7489 
  43   0.0000       3.408458        92.7489 
  44   0.0000       4.058074       110.4258 
  45   0.0000       4.058074       110.4258 
  46   0.0000       4.559024       124.0574 
  47   0.0000       5.635183       153.3411 
  48   0.0000       5.635183       153.3411 
  49   0.0000       5.888655       160.2384 
  50   0.0000       5.888655       160.2384 
  51   0.0000       6.519006       177.3912 
  52   0.0000       8.616769       234.4742 
  53   0.0000       8.616769       234.4742 
  54   0.0000       9.149380       248.9673 
  55   0.0000      11.039044       300.3877 
  56   0.0000      26.230196       713.7599 
  57   0.0000      26.230196       713.7599 
  58   0.0000      27.833547       757.3893 
  59   0.0000     219.670653      5977.5424 
------------------
MOLECULAR ORBITALS
------------------
                      0         1         2         3         4         5   
                 -104.85020 -10.57639  -8.04443  -8.04209  -8.04209  -1.11971
                   1.00000   1.00000   1.00000   1.00000   1.00000   1.00000
                  --------  --------  --------  --------  --------  --------
  0Cl  1s         0.411733  0.121937 -0.000502  0.000000 -0.000000 -0.034741
  0Cl  2s         0.654661  0.331527 -0.001393  0.000000  0.000000 -0.100594
  0Cl  3s         0.012090 -0.512219  0.002649 -0.000000 -0.000000  0.199345
  0Cl  4s        -0.000922 -0.604678  0.002239 -0.000000  0.000000  0.394729
  0Cl  5s         0.000225 -0.044796 -0.001447  0.000000 -0.000000 -0.593795
  0Cl  6s        -0.000089  0.015821  0.001753 -0.000000  0.000000 -0.524372
  0Cl  1pz       -0.000142  0.003597  1.230002 -0.000000 -0.000000 -0.040479
  0Cl  1px        0.000000 -0.000000  0.000000  0.632822 -1.056287  0.000000
  0Cl  1py       -0.000000 -0.000000 -0.000000 -1.056287 -0.632822 -0.000000
  0Cl  2pz       -0.000093  0.000753  0.327003 -0.000000 -0.000000 -0.010100
  0Cl  2px        0.000000 -0.000000  0.000000  0.168214 -0.280778 -0.000000
  0Cl  2py       -0.000000  0.000000 -0.000000 -0.280778 -0.168214 -0.000000
  0Cl  3pz        0.000098  0.001179  0.051825 -0.000000 -0.000000  0.025405
  0Cl  3px       -0.000000  0.000000  0.000000  0.025306 -0.042240 -0.000000
  0Cl  3py        0.000000 -0.000000 -0.000000 -0.042240 -0.025306  0.000000
  0Cl  4pz       -0.000125  0.000867 -0.003292  0.000000  0.000000  0.041662
  0Cl  4px        0.000000 -0.000000 -0.000000 -0.001117  0.001864  0.000000
  0Cl  4py       -0.000000 -0.000000  0.000000  0.001864  0.001117  0.000000
  0Cl  5pz        0.000038 -0.004210  0.000365 -0.000000 -0.000000  0.022675
  0Cl  5px        0.000000  0.000000  0.000000  0.000357 -0.000596 -0.000000
  0Cl  5py        0.000000  0.000000 -0.000000 -0.000596 -0.000357 -0.000000
  0Cl  1dz2      -0.000007 -0.000426 -0.000506  0.000000  0.000000 -0.004770
  0Cl  1dxz      -0.000000 -0.000000 -0.000000 -0.000370  0.000618  0.000000
  0Cl  1dyz       0.000000  0.000000  0.000000  0.000618  0.000370 -0.000000
  0Cl  1dx2y2    -0.000000 -0.000000 -0.000000 -0.000000 -0.000000 -0.000000
  0Cl  1dxy       0.000000 -0.000000 -0.000000 -0.000000 -0.000000 -0.000000
  0Cl  2dz2       0.000045 -0.001357 -0.000363  0.000000 -0.000000 -0.014135
  0Cl  2dxz       0.000000  0.000000 -0.000000  0.000038 -0.000063 -0.000000
  0Cl  2dyz       0.000000 -0.000000  0.000000 -0.000063 -0.000038  0.000000
  0Cl  2dx2y2     0.000000  0.000000  0.000000  0.000000 -0.000000  0.000000
  0Cl  2dxy       0.000000  0.000000  0.000000  0.000000 -0.000000 -0.000000
  0Cl  3dz2       0.000008  0.001192  0.000295 -0.000000  0.000000 -0.006386
  0Cl  3dxz      -0.000000  0.000000  0.000000  0.000000 -0.000000 -0.000000
  0Cl  3dyz       0.000000  0.000000 -0.000000 -0.000000 -0.000000 -0.000000
  0Cl  3dx2y2     0.000000 -0.000000 -0.000000 -0.000000  0.000000  0.000000
  0Cl  3dxy       0.000000 -0.000000  0.000000 -0.000000  0.000000  0.000000
  0Cl  1f0       -0.000021  0.000767  0.000335 -0.000000  0.000000  0.003203
  0Cl  1f+1      -0.000000 -0.000000 -0.000000  0.000076 -0.000128  0.000000
  0Cl  1f-1       0.000000  0.000000 -0.000000 -0.000128 -0.000076 -0.000000
  0Cl  1f+2      -0.000000 -0.000000 -0.000000  0.000000 -0.000000 -0.000000
  0Cl  1f-2       0.000000 -0.000000 -0.000000  0.000000  0.000000 -0.000000
  0Cl  1f+3       0.000000  0.000000  0.000000 -0.000000  0.000000 -0.000000
  0Cl  1f-3       0.000000  0.000000 -0.000000  0.000000  0.000000 -0.000000
  1H   1s        -0.000003  0.000204 -0.000280  0.000000 -0.000000 -0.087723
  1H   2s        -0.000089 -0.000179 -0.000880  0.000000  0.000000 -0.107439
  1H   3s         0.000056 -0.007101 -0.000683  0.000000  0.000000  0.017388
  1H   1pz        0.000007 -0.000185  0.000002  0.000000 -0.000000 -0.002234
  1H   1px       -0.000000  0.000000 -0.000000  0.000005 -0.000008  0.000000
  1H   1py       -0.000000  0.000000 -0.000000 -0.000008 -0.000005 -0.000000
  1H   2pz       -0.000066  0.002321  0.000197  0.000000  0.000000 -0.028523
  1H   2px        0.000000  0.000000  0.000000  0.000019 -0.000032 -0.000000
  1H   2py        0.000000 -0.000000  0.000000 -0.000032 -0.000019  0.000000
  1H   3pz        0.000002 -0.002919 -0.000907  0.000000  0.000000  0.003479
  1H   3px       -0.000000  0.000000  0.000000 -0.000015  0.000025  0.000000
  1H   3py        0.000000  0.000000 -0.000000  0.000025  0.000015  0.000000
  1H   1dz2      -0.000022  0.000762  0.000250 -0.000000  0.000000 -0.005618
  1H   1dxz       0.000000  0.000000  0.000000 -0.000021  0.000034 -0.000000
  1H   1dyz      -0.000000 -0.000000  0.000000  0.000034  0.000021  0.000000
  1H   1dx2y2    -0.000000  0.000000 -0.000000 -0.000000 -0.000000  0.000000
  1H   1dxy       0.000000  0.000000 -0.000000 -0.000000  0.000000 -0.000000
                      6         7         8         9        10        11   
                  -0.62913  -0.47865  -0.47865   0.12509   0.26639   0.33073
                   1.00000   1.00000   1.00000   0.00000   0.00000   0.00000
                  --------  --------  --------  --------  --------  --------
  0Cl  1s         0.010300 -0.000000 -0.000000 -0.010981 -0.002067 -0.006361
  0Cl  2s         0.030056 -0.000000 -0.000000 -0.032923 -0.006697 -0.019120
  0Cl  3s        -0.061610  0.000000  0.000000  0.074786  0.019417  0.044028
  0Cl  4s        -0.118741  0.000000 -0.000000  0.103459  0.003224  0.059744
  0Cl  5s         0.184554 -0.000000  0.000000 -0.039105  0.156002  0.077363
  0Cl  6s         0.287408 -0.000000 -0.000000 -1.322894 -1.734035 -1.943562
  0Cl  1pz       -0.279154 -0.000000  0.000000 -0.120792  0.119000  0.134430
  0Cl  1px        0.000000  0.138712 -0.304655 -0.000000 -0.000000  0.000000
  0Cl  1py       -0.000000 -0.304655 -0.138712  0.000000 -0.000000  0.000000
  0Cl  2pz       -0.068014 -0.000000  0.000000 -0.028552  0.032484  0.029300
  0Cl  2px        0.000000  0.033099 -0.072696  0.000000 -0.000000  0.000000
  0Cl  2py       -0.000000 -0.072696 -0.033099  0.000000 -0.000000  0.000000
  0Cl  3pz        0.198684  0.000000 -0.000000  0.079686 -0.144564 -0.115415
  0Cl  3px       -0.000000 -0.099874  0.219354  0.000000  0.000000  0.000000
  0Cl  3py        0.000000  0.219354  0.099874 -0.000000  0.000000 -0.000000
  0Cl  4pz        0.433401  0.000000  0.000000  0.286329  0.095450 -0.169693
  0Cl  4px       -0.000000 -0.246734  0.541905  0.000000 -0.000000 -0.000000
  0Cl  4py       -0.000000  0.541905  0.246734 -0.000000 -0.000000 -0.000000
  0Cl  5pz        0.171473  0.000000  0.000000  0.966992  0.675238  1.926299
  0Cl  5px        0.000000 -0.134268  0.294895  0.000000 -0.000000  0.000000
  0Cl  5py       -0.000000  0.294895  0.134268 -0.000000  0.000000  0.000000
  0Cl  1dz2      -0.013892  0.000000  0.000000  0.011376 -0.037760  0.022593
  0Cl  1dxz      -0.000000  0.000741 -0.001627 -0.000000  0.000000  0.000000
  0Cl  1dyz      -0.000000 -0.001627 -0.000741 -0.000000  0.000000  0.000000
  0Cl  1dx2y2     0.000000 -0.000000 -0.000000 -0.000000  0.000000 -0.000000
  0Cl  1dxy       0.000000 -0.000000 -0.000000  0.000000  0.000000 -0.000000
  0Cl  2dz2      -0.051952  0.000000 -0.000000  0.029567 -0.167565  0.008660
  0Cl  2dxz      -0.000000  0.003844 -0.008443 -0.000000 -0.000000  0.000000
  0Cl  2dyz       0.000000 -0.008443 -0.003844 -0.000000 -0.000000  0.000000
  0Cl  2dx2y2     0.000000 -0.000000 -0.000000 -0.000000  0.000000 -0.000000
  0Cl  2dxy      -0.000000 -0.000000  0.000000 -0.000000 -0.000000 -0.000000
  0Cl  3dz2      -0.027976  0.000000 -0.000000 -0.049949 -0.674336 -0.299851
  0Cl  3dxz      -0.000000  0.002390 -0.005248  0.000000  0.000000  0.000000
  0Cl  3dyz       0.000000 -0.005248 -0.002390 -0.000000  0.000000  0.000000
  0Cl  3dx2y2     0.000000 -0.000000  0.000000 -0.000000 -0.000000 -0.000000
  0Cl  3dxy      -0.000000  0.000000  0.000000 -0.000000  0.000000 -0.000000
  0Cl  1f0        0.010978  0.000000  0.000000  0.009041  0.041721  0.041374
  0Cl  1f+1      -0.000000 -0.002497  0.005484  0.000000  0.000000 -0.000000
  0Cl  1f-1      -0.000000  0.005484  0.002497  0.000000  0.000000  0.000000
  0Cl  1f+2      -0.000000  0.000000  0.000000 -0.000000 -0.000000  0.000000
  0Cl  1f-2       0.000000 -0.000000 -0.000000  0.000000 -0.000000 -0.000000
  0Cl  1f+3      -0.000000  0.000000 -0.000000  0.000000  0.000000  0.000000
  0Cl  1f-3       0.000000  0.000000  0.000000  0.000000  0.000000  0.000000
  1H   1s        -0.152827  0.000000 -0.000000  0.073391 -0.149896 -0.022044
  1H   2s        -0.282357  0.000000  0.000000  0.157660 -0.055828  1.084950
  1H   3s        -0.055030  0.000000  0.000000  1.921641  1.913869  1.191090
  1H   1pz       -0.002776 -0.000000 -0.000000 -0.006265 -0.002430  0.000847
  1H   1px       -0.000000 -0.000622  0.001365  0.000000  0.000000 -0.000000
  1H   1py       -0.000000  0.001365  0.000622 -0.000000  0.000000 -0.000000
  1H   2pz       -0.023673  0.000000  0.000000  0.011197  0.045604  0.065118
  1H   2px        0.000000 -0.006618  0.014535  0.000000  0.000000  0.000000
  1H   2py       -0.000000  0.014535  0.006618 -0.000000  0.000000  0.000000
  1H   3pz       -0.024637  0.000000  0.000000  0.151614  0.893272  1.015644
  1H   3px       -0.000000 -0.010067  0.022111  0.000000  0.000000 -0.000000
  1H   3py       -0.000000  0.022111  0.010067 -0.000000 -0.000000 -0.000000
  1H   1dz2      -0.004177  0.000000  0.000000  0.008732  0.030984  0.035005
  1H   1dxz       0.000000 -0.001374  0.003018  0.000000  0.000000  0.000000
  1H   1dyz      -0.000000  0.003018  0.001374  0.000000  0.000000 -0.000000
  1H   1dx2y2    -0.000000 -0.000000 -0.000000  0.000000  0.000000 -0.000000
  1H   1dxy       0.000000 -0.000000  0.000000  0.000000 -0.000000  0.000000
                     12        13        14        15        16        17   
                   0.36055   0.36055   0.41649   0.41649   0.42911   0.42911
                   0.00000   0.00000   0.00000   0.00000   0.00000   0.00000
                  --------  --------  --------  --------  --------  --------
  0Cl  1s        -0.000000 -0.000000 -0.000000  0.000000  0.000000 -0.000000
  0Cl  2s        -0.000000 -0.000000 -0.000000  0.000000  0.000000 -0.000000
  0Cl  3s         0.000000  0.000000  0.000000 -0.000000 -0.000000  0.000000
  0Cl  4s         0.000000  0.000000  0.000000 -0.000000  0.000000 -0.000000
  0Cl  5s         0.000000  0.000000  0.000000  0.000000 -0.000000  0.000000
  0Cl  6s        -0.000000 -0.000000 -0.000000  0.000000  0.000000 -0.000000
  0Cl  1pz        0.000000  0.000000  0.000000 -0.000000 -0.000000  0.000000
  0Cl  1px       -0.014796  0.023511  0.089555  0.164521  0.000000 -0.000000
  0Cl  1py        0.023511  0.014796 -0.164521  0.089555 -0.000000 -0.000000
  0Cl  2pz        0.000000  0.000000  0.000000 -0.000000 -0.000000  0.000000
  0Cl  2px       -0.003025  0.004806  0.014258  0.026193  0.000000 -0.000000
  0Cl  2py        0.004806  0.003025 -0.026193  0.014258 -0.000000 -0.000000
  0Cl  3pz       -0.000000 -0.000000 -0.000000  0.000000  0.000000 -0.000000
  0Cl  3px        0.008254 -0.013115 -0.020531 -0.037718 -0.000000  0.000000
  0Cl  3py       -0.013115 -0.008254  0.037718 -0.020531  0.000000  0.000000
  0Cl  4pz       -0.000000 -0.000000 -0.000000  0.000000  0.000000 -0.000000
  0Cl  4px        0.053518 -0.085042 -0.463420 -0.851344 -0.000000  0.000000
  0Cl  4py       -0.085042 -0.053518  0.851344 -0.463420  0.000000  0.000000
  0Cl  5pz        0.000000  0.000000  0.000000 -0.000000 -0.000000  0.000000
  0Cl  5px        0.198406 -0.315275  0.637229  1.170646  0.000000 -0.000000
  0Cl  5py       -0.315275 -0.198406 -1.170646  0.637229 -0.000000 -0.000000
  0Cl  1dz2      -0.000000  0.000000 -0.000000 -0.000000  0.000000 -0.000000
  0Cl  1dxz       0.025907 -0.041168  0.000623  0.001144  0.000000 -0.000000
  0Cl  1dyz      -0.041168 -0.025907 -0.001144  0.000623 -0.000000 -0.000000
  0Cl  1dx2y2     0.000000 -0.000000  0.000000  0.000000 -0.062254  0.012171
  0Cl  1dxy       0.000000  0.000000  0.000000 -0.000000 -0.012171 -0.062254
  0Cl  2dz2      -0.000000  0.000000 -0.000000 -0.000000 -0.000000 -0.000000
  0Cl  2dxz       0.080192 -0.127428  0.007968  0.014638  0.000000 -0.000000
  0Cl  2dyz      -0.127428 -0.080192 -0.014638  0.007968 -0.000000 -0.000000
  0Cl  2dx2y2     0.000000 -0.000000  0.000000  0.000000 -0.160166  0.031312
  0Cl  2dxy      -0.000000  0.000000  0.000000 -0.000000 -0.031312 -0.160166
  0Cl  3dz2      -0.000000 -0.000000 -0.000000  0.000000  0.000000 -0.000000
  0Cl  3dxz       0.224038 -0.356005 -0.031520 -0.057905 -0.000000  0.000000
  0Cl  3dyz      -0.356005 -0.224038  0.057905 -0.031520  0.000000  0.000000
  0Cl  3dx2y2     0.000000 -0.000000  0.000000  0.000000 -0.886524  0.173314
  0Cl  3dxy       0.000000  0.000000  0.000000 -0.000000 -0.173314 -0.886524
  0Cl  1f0        0.000000  0.000000  0.000000  0.000000  0.000000  0.000000
  0Cl  1f+1      -0.003060  0.004863 -0.000620 -0.001140 -0.000000  0.000000
  0Cl  1f-1       0.004863  0.003060  0.001140 -0.000620  0.000000  0.000000
  0Cl  1f+2      -0.000000  0.000000 -0.000000 -0.000000  0.005149 -0.001007
  0Cl  1f-2       0.000000 -0.000000 -0.000000  0.000000  0.001007  0.005149
  0Cl  1f+3      -0.000000  0.000000  0.000000  0.000000 -0.000000 -0.000000
  0Cl  1f-3      -0.000000 -0.000000  0.000000 -0.000000  0.000000 -0.000000
  1H   1s        -0.000000 -0.000000 -0.000000 -0.000000 -0.000000 -0.000000
  1H   2s         0.000000  0.000000  0.000000 -0.000000 -0.000000  0.000000
  1H   3s         0.000000  0.000000  0.000000 -0.000000 -0.000000  0.000000
  1H   1pz        0.000000  0.000000  0.000000 -0.000000 -0.000000 -0.000000
  1H   1px       -0.008144  0.012942  0.000121  0.000222 -0.000000 -0.000000
  1H   1py        0.012942  0.008144 -0.000222  0.000121 -0.000000  0.000000
  1H   2pz        0.000000  0.000000  0.000000  0.000000  0.000000  0.000000
  1H   2px        0.019990 -0.031765 -0.001895 -0.003482  0.000000  0.000000
  1H   2py       -0.031765 -0.019990  0.003482 -0.001895  0.000000  0.000000
  1H   3pz        0.000000  0.000000  0.000000 -0.000000  0.000000  0.000000
  1H   3px       -0.392150  0.623141 -0.067671 -0.124317 -0.000000  0.000000
  1H   3py        0.623141  0.392150  0.124317 -0.067671  0.000000  0.000000
  1H   1dz2       0.000000  0.000000  0.000000  0.000000  0.000000  0.000000
  1H   1dxz      -0.004058  0.006449 -0.000282 -0.000518 -0.000000  0.000000
  1H   1dyz       0.006449  0.004058  0.000518 -0.000282  0.000000  0.000000
  1H   1dx2y2     0.000000 -0.000000  0.000000  0.000000 -0.002373  0.000464
  1H   1dxy      -0.000000  0.000000  0.000000 -0.000000 -0.000464 -0.002373
                     18        19        20        21        22        23   
                   0.64923   0.64923   0.66973   0.73668   1.17652   1.34502
                   0.00000   0.00000   0.00000   0.00000   0.00000   0.00000
                  --------  --------  --------  --------  --------  --------
  0Cl  1s        -0.000000  0.000000 -0.002705  0.015679 -0.027228  0.000000
  0Cl  2s        -0.000000  0.000000 -0.007465  0.044003 -0.074483  0.000000
  0Cl  3s        -0.000000 -0.000000  0.011790 -0.075433  0.108726 -0.000000
  0Cl  4s         0.000000 -0.000000  0.048129 -0.260076  0.564187 -0.000000
  0Cl  5s         0.000000  0.000000 -0.126562  0.572175 -2.500842  0.000000
  0Cl  6s        -0.000000 -0.000000  1.501669  1.521095  5.052547 -0.000000
  0Cl  1pz       -0.000000 -0.000000  0.006995  0.188399  0.048975 -0.000000
  0Cl  1px       -0.004714  0.018977  0.000000  0.000000  0.000000  0.004123
  0Cl  1py       -0.018977 -0.004714 -0.000000  0.000000  0.000000  0.018426
  0Cl  2pz       -0.000000  0.000000 -0.004824  0.030952  0.003109 -0.000000
  0Cl  2px       -0.000682  0.002746 -0.000000  0.000000  0.000000  0.000695
  0Cl  2py       -0.002746 -0.000682 -0.000000  0.000000  0.000000  0.003105
  0Cl  3pz       -0.000000 -0.000000  0.044624 -0.003611  0.128844  0.000000
  0Cl  3px        0.000274 -0.001102  0.000000 -0.000000 -0.000000 -0.001275
  0Cl  3py        0.001102  0.000274  0.000000 -0.000000 -0.000000 -0.005698
  0Cl  4pz        0.000000  0.000000 -0.413674 -1.437296 -1.137617  0.000000
  0Cl  4px        0.032111 -0.129267 -0.000000 -0.000000  0.000000 -0.019367
  0Cl  4py        0.129267  0.032111  0.000000  0.000000  0.000000 -0.086558
  0Cl  5pz       -0.000000 -0.000000  0.367821 -0.108232 -1.594514  0.000000
  0Cl  5px        0.246605 -0.992730 -0.000000  0.000000  0.000000 -0.031680
  0Cl  5py        0.992730  0.246605  0.000000  0.000000  0.000000 -0.141588
  0Cl  1dz2       0.000000  0.000000 -0.045426 -0.017668 -0.083175 -0.000000
  0Cl  1dxz      -0.012713  0.051179  0.000000 -0.000000  0.000000 -0.033125
  0Cl  1dyz      -0.051179 -0.012713 -0.000000 -0.000000 -0.000000 -0.148042
  0Cl  1dx2y2     0.000000 -0.000000 -0.000000  0.000000 -0.000000  0.000000
  0Cl  1dxy      -0.000000 -0.000000  0.000000 -0.000000 -0.000000  0.000000
  0Cl  2dz2      -0.000000  0.000000 -0.129351 -0.015856 -0.187648 -0.000000
  0Cl  2dxz      -0.029488  0.118707  0.000000 -0.000000  0.000000 -0.195339
  0Cl  2dyz      -0.118707 -0.029488 -0.000000  0.000000 -0.000000 -0.873020
  0Cl  2dx2y2    -0.000000 -0.000000 -0.000000 -0.000000 -0.000000  0.000000
  0Cl  2dxy       0.000000  0.000000  0.000000 -0.000000 -0.000000 -0.000000
  0Cl  3dz2      -0.000000  0.000000 -1.055666  0.747335  1.237962  0.000000
  0Cl  3dxz      -0.329039  1.324575  0.000000 -0.000000 -0.000000  0.193949
  0Cl  3dyz      -1.324575 -0.329039 -0.000000 -0.000000  0.000000  0.866809
  0Cl  3dx2y2     0.000000 -0.000000 -0.000000 -0.000000  0.000000 -0.000000
  0Cl  3dxy       0.000000 -0.000000  0.000000 -0.000000  0.000000  0.000000
  0Cl  1f0        0.000000 -0.000000  0.027242 -0.042214 -0.125343 -0.000000
  0Cl  1f+1       0.001324 -0.005330 -0.000000 -0.000000 -0.000000  0.007378
  0Cl  1f-1       0.005330  0.001324 -0.000000 -0.000000  0.000000  0.032972
  0Cl  1f+2       0.000000 -0.000000  0.000000  0.000000  0.000000 -0.000000
  0Cl  1f-2      -0.000000  0.000000 -0.000000 -0.000000 -0.000000 -0.000000
  0Cl  1f+3      -0.000000  0.000000  0.000000  0.000000  0.000000  0.000000
  0Cl  1f-3       0.000000  0.000000 -0.000000 -0.000000  0.000000 -0.000000
  1H   1s        -0.000000 -0.000000 -0.000330 -0.082456 -0.060565 -0.000000
  1H   2s         0.000000 -0.000000  1.233249 -1.906966 -1.952007  0.000000
  1H   3s         0.000000  0.000000 -1.608433 -0.277356 -2.183300  0.000000
  1H   1pz       -0.000000  0.000000 -0.017364  0.003732  0.036577  0.000000
  1H   1px       -0.003737  0.015043  0.000000  0.000000  0.000000 -0.006034
  1H   1py       -0.015043 -0.003737 -0.000000 -0.000000  0.000000 -0.026969
  1H   2pz        0.000000 -0.000000  0.092345 -0.034905 -0.507969 -0.000000
  1H   2px        0.023307 -0.093823 -0.000000 -0.000000 -0.000000  0.082464
  1H   2py        0.093823  0.023307  0.000000  0.000000  0.000000  0.368553
  1H   3pz        0.000000  0.000000 -1.627104 -1.387645 -1.006253  0.000000
  1H   3px       -0.455191  1.832412  0.000000 -0.000000  0.000000  0.044211
  1H   3py       -1.832412 -0.455191 -0.000000 -0.000000 -0.000000  0.197590
  1H   1dz2       0.000000  0.000000 -0.016416 -0.061127 -0.111662  0.000000
  1H   1dxz      -0.004196  0.016890  0.000000  0.000000 -0.000000  0.014077
  1H   1dyz      -0.016890 -0.004196  0.000000  0.000000 -0.000000  0.062916
  1H   1dx2y2    -0.000000  0.000000 -0.000000  0.000000 -0.000000  0.000000
  1H   1dxy      -0.000000 -0.000000  0.000000 -0.000000 -0.000000 -0.000000
                     24        25        26        27        28        29   
                   1.34502   1.38792   1.38792   1.39059   1.93700   1.93700
                   0.00000   0.00000   0.00000   0.00000   0.00000   0.00000
                  --------  --------  --------  --------  --------  --------
  0Cl  1s        -0.000000  0.000000  0.000000  0.015140 -0.000000  0.000000
  0Cl  2s        -0.000000  0.000000  0.000000  0.041395 -0.000000  0.000000
  0Cl  3s         0.000000 -0.000000 -0.000000 -0.060297  0.000000 -0.000000
  0Cl  4s         0.000000 -0.000000 -0.000000 -0.318876  0.000000  0.000000
  0Cl  5s        -0.000000  0.000000  0.000000  1.307075 -0.000000 -0.000000
  0Cl  6s         0.000000 -0.000000 -0.000000 -3.128162  0.000000  0.000000
  0Cl  1pz        0.000000 -0.000000 -0.000000 -0.127425  0.000000 -0.000000
  0Cl  1px       -0.018426 -0.000000  0.000000 -0.000000  0.028315  0.085126
  0Cl  1py        0.004123 -0.000000  0.000000 -0.000000  0.085126 -0.028315
  0Cl  2pz        0.000000 -0.000000 -0.000000 -0.038025  0.000000 -0.000000
  0Cl  2px       -0.003105 -0.000000  0.000000 -0.000000  0.008519  0.025612
  0Cl  2py        0.000695 -0.000000  0.000000 -0.000000  0.025612 -0.008519
  0Cl  3pz       -0.000000  0.000000  0.000000  0.194445 -0.000000  0.000000
  0Cl  3px        0.005698  0.000000 -0.000000  0.000000 -0.053331 -0.160332
  0Cl  3py       -0.001275  0.000000 -0.000000  0.000000 -0.160332  0.053331
  0Cl  4pz       -0.000000  0.000000  0.000000  0.295170  0.000000 -0.000000
  0Cl  4px        0.086558  0.000000  0.000000 -0.000000  0.027223  0.081841
  0Cl  4py       -0.019367  0.000000  0.000000 -0.000000  0.081841 -0.027223
  0Cl  5pz       -0.000000  0.000000  0.000000  0.891057 -0.000000 -0.000000
  0Cl  5px        0.141588  0.000000 -0.000000  0.000000  0.131188  0.394397
  0Cl  5py       -0.031680  0.000000 -0.000000 -0.000000  0.394397 -0.131188
  0Cl  1dz2       0.000000 -0.000000 -0.000000 -0.143526  0.000000  0.000000
  0Cl  1dxz       0.148042  0.000000 -0.000000  0.000000  0.030102  0.090497
  0Cl  1dyz      -0.033125  0.000000 -0.000000  0.000000  0.090497 -0.030102
  0Cl  1dx2y2     0.000000  0.171540 -0.000659 -0.000000  0.000000 -0.000000
  0Cl  1dxy       0.000000  0.000659  0.171540 -0.000000 -0.000000 -0.000000
  0Cl  2dz2       0.000000 -0.000000 -0.000000 -0.799190  0.000000  0.000000
  0Cl  2dxz       0.873020  0.000000 -0.000000  0.000000  0.132436  0.398149
  0Cl  2dyz      -0.195339  0.000000 -0.000000  0.000000  0.398149 -0.132436
  0Cl  2dx2y2     0.000000  0.999998 -0.003844 -0.000000  0.000000  0.000000
  0Cl  2dxy       0.000000  0.003844  0.999998 -0.000000 -0.000000 -0.000000
  0Cl  3dz2      -0.000000  0.000000  0.000000  0.248459  0.000000  0.000000
  0Cl  3dxz      -0.866809 -0.000000  0.000000 -0.000000 -0.149309 -0.448877
  0Cl  3dyz       0.193949 -0.000000  0.000000 -0.000000 -0.448877  0.149309
  0Cl  3dx2y2    -0.000000 -0.655008  0.002518  0.000000  0.000000 -0.000000
  0Cl  3dxy      -0.000000 -0.002518 -0.655008  0.000000 -0.000000  0.000000
  0Cl  1f0        0.000000 -0.000000 -0.000000 -0.031772  0.000000  0.000000
  0Cl  1f+1      -0.032972 -0.000000  0.000000 -0.000000  0.102238  0.307364
  0Cl  1f-1       0.007378 -0.000000 -0.000000  0.000000  0.307364 -0.102238
  0Cl  1f+2      -0.000000 -0.008670  0.000033  0.000000  0.000000  0.000000
  0Cl  1f-2       0.000000 -0.000033 -0.008670  0.000000 -0.000000  0.000000
  0Cl  1f+3      -0.000000 -0.000000  0.000000 -0.000000  0.000000  0.000000
  0Cl  1f-3       0.000000 -0.000000 -0.000000  0.000000 -0.000000  0.000000
  1H   1s         0.000000 -0.000000 -0.000000 -0.046817 -0.000000 -0.000000
  1H   2s        -0.000000  0.000000  0.000000  0.900894  0.000000  0.000000
  1H   3s        -0.000000  0.000000  0.000000  1.454961 -0.000000 -0.000000
  1H   1pz       -0.000000  0.000000  0.000000  0.008433 -0.000000 -0.000000
  1H   1px        0.026969  0.000000 -0.000000  0.000000 -0.020312 -0.061064
  1H   1py       -0.006034  0.000000 -0.000000  0.000000 -0.061064  0.020312
  1H   2pz        0.000000 -0.000000 -0.000000 -0.277295  0.000000 -0.000000
  1H   2px       -0.368553 -0.000000  0.000000 -0.000000  0.335023  1.007198
  1H   2py        0.082464 -0.000000  0.000000 -0.000000  1.007198 -0.335023
  1H   3pz       -0.000000  0.000000  0.000000  1.386095 -0.000000 -0.000000
  1H   3px       -0.197590 -0.000000 -0.000000 -0.000000 -0.329856 -0.991665
  1H   3py        0.044211 -0.000000  0.000000  0.000000 -0.991665  0.329856
  1H   1dz2      -0.000000  0.000000  0.000000  0.050576 -0.000000  0.000000
  1H   1dxz      -0.062916 -0.000000  0.000000 -0.000000 -0.015741 -0.047324
  1H   1dyz       0.014077 -0.000000  0.000000 -0.000000 -0.047324  0.015741
  1H   1dx2y2     0.000000  0.020819 -0.000080 -0.000000 -0.000000  0.000000
  1H   1dxy      -0.000000  0.000080  0.020819 -0.000000  0.000000  0.000000
                     30        31        32        33        34        35   
                   2.19402   2.30537   2.30537   2.38547   2.38547   2.44524
                   0.00000   0.00000   0.00000   0.00000   0.00000   0.00000
                  --------  --------  --------  --------  --------  --------
  0Cl  1s        -0.005866 -0.000000  0.000000  0.000000 -0.000000  0.000000
  0Cl  2s        -0.018476 -0.000000  0.000000 -0.000000 -0.000000  0.000000
  0Cl  3s         0.049307 -0.000000 -0.000000  0.000000  0.000000 -0.000000
  0Cl  4s         0.054674  0.000000  0.000000 -0.000000  0.000000 -0.000000
  0Cl  5s        -0.433823 -0.000000 -0.000000 -0.000000 -0.000000  0.000000
  0Cl  6s         1.528890  0.000000 -0.000000  0.000000  0.000000 -0.000000
  0Cl  1pz        0.067468 -0.000000 -0.000000 -0.000000 -0.000000  0.000000
  0Cl  1px        0.000000 -0.000000  0.000000  0.000000 -0.000000 -0.134156
  0Cl  1py        0.000000 -0.000000  0.000000 -0.000000 -0.000000  0.736069
  0Cl  2pz        0.030120 -0.000000 -0.000000 -0.000000 -0.000000  0.000000
  0Cl  2px        0.000000 -0.000000  0.000000  0.000000 -0.000000 -0.044512
  0Cl  2py        0.000000 -0.000000  0.000000 -0.000000 -0.000000  0.244223
  0Cl  3pz       -0.125656  0.000000  0.000000  0.000000  0.000000 -0.000000
  0Cl  3px       -0.000000  0.000000 -0.000000 -0.000000  0.000000  0.325468
  0Cl  3py       -0.000000  0.000000 -0.000000  0.000000  0.000000 -1.785736
  0Cl  4pz       -0.263044 -0.000000 -0.000000 -0.000000  0.000000  0.000000
  0Cl  4px        0.000000 -0.000000  0.000000  0.000000 -0.000000 -0.308708
  0Cl  4py        0.000000 -0.000000  0.000000 -0.000000 -0.000000  1.693779
  0Cl  5pz       -0.745125 -0.000000  0.000000 -0.000000 -0.000000  0.000000
  0Cl  5px       -0.000000 -0.000000 -0.000000 -0.000000  0.000000  0.100984
  0Cl  5py       -0.000000  0.000000  0.000000  0.000000  0.000000 -0.554065
  0Cl  1dz2      -0.086809  0.000000  0.000000  0.000000 -0.000000  0.000000
  0Cl  1dxz       0.000000 -0.000000 -0.000000 -0.000000  0.000000  0.000182
  0Cl  1dyz      -0.000000  0.000000  0.000000  0.000000  0.000000 -0.000997
  0Cl  1dx2y2     0.000000 -0.008258 -0.001164  0.000000  0.000000 -0.000000
  0Cl  1dxy       0.000000 -0.001164  0.008258 -0.000000 -0.000000 -0.000000
  0Cl  2dz2      -0.132900  0.000000  0.000000  0.000000 -0.000000  0.000000
  0Cl  2dxz       0.000000 -0.000000 -0.000000 -0.000000  0.000000  0.004515
  0Cl  2dyz      -0.000000  0.000000  0.000000  0.000000  0.000000 -0.024771
  0Cl  2dx2y2     0.000000 -0.020123 -0.002836  0.000000  0.000000 -0.000000
  0Cl  2dxy       0.000000 -0.002836  0.020123 -0.000000  0.000000 -0.000000
  0Cl  3dz2       0.560575  0.000000 -0.000000  0.000000 -0.000000 -0.000000
  0Cl  3dxz      -0.000000  0.000000 -0.000000  0.000000 -0.000000 -0.006205
  0Cl  3dyz      -0.000000 -0.000000  0.000000 -0.000000 -0.000000  0.034045
  0Cl  3dx2y2    -0.000000 -0.024022 -0.003386 -0.000000  0.000000  0.000000
  0Cl  3dxy      -0.000000 -0.003386  0.024022 -0.000000 -0.000000  0.000000
  0Cl  1f0       -0.743884  0.000000  0.000000 -0.000000 -0.000000  0.000000
  0Cl  1f+1       0.000000 -0.000000 -0.000000 -0.000000  0.000000  0.053229
  0Cl  1f-1       0.000000 -0.000000 -0.000000  0.000000  0.000000 -0.292050
  0Cl  1f+2      -0.000000 -0.915006 -0.128969 -0.000000  0.000000 -0.000000
  0Cl  1f-2       0.000000 -0.128969  0.915006  0.000000 -0.000000  0.000000
  0Cl  1f+3       0.000000 -0.000000 -0.000000  0.358864 -0.933390  0.000000
  0Cl  1f-3      -0.000000 -0.000000 -0.000000  0.933390  0.358864  0.000000
  1H   1s         0.801429 -0.000000 -0.000000  0.000000 -0.000000 -0.000000
  1H   2s        -2.069360 -0.000000  0.000000 -0.000000  0.000000  0.000000
  1H   3s        -0.175512 -0.000000 -0.000000 -0.000000 -0.000000  0.000000
  1H   1pz        0.000723  0.000000  0.000000  0.000000 -0.000000  0.000000
  1H   1px        0.000000  0.000000 -0.000000  0.000000 -0.000000  0.000786
  1H   1py        0.000000 -0.000000 -0.000000 -0.000000 -0.000000 -0.004314
  1H   2pz        0.184623 -0.000000 -0.000000  0.000000  0.000000 -0.000000
  1H   2px        0.000000 -0.000000  0.000000 -0.000000  0.000000 -0.009445
  1H   2py       -0.000000  0.000000  0.000000  0.000000  0.000000  0.051823
  1H   3pz       -0.529093 -0.000000 -0.000000 -0.000000 -0.000000  0.000000
  1H   3px       -0.000000  0.000000 -0.000000  0.000000 -0.000000 -0.001684
  1H   3py       -0.000000 -0.000000 -0.000000 -0.000000 -0.000000  0.009239
  1H   1dz2      -0.191618  0.000000  0.000000 -0.000000 -0.000000  0.000000
  1H   1dxz       0.000000  0.000000 -0.000000 -0.000000  0.000000  0.009278
  1H   1dyz      -0.000000 -0.000000  0.000000  0.000000  0.000000 -0.050908
  1H   1dx2y2     0.000000  0.234094  0.032995  0.000000 -0.000000  0.000000
  1H   1dxy      -0.000000  0.032995 -0.234094 -0.000000 -0.000000  0.000000
                     36        37        38        39        40        41   
                   2.44524   2.55548   2.68202   2.68202   2.87832   3.25424
                   0.00000   0.00000   0.00000   0.00000   0.00000   0.00000
                  --------  --------  --------  --------  --------  --------
  0Cl  1s        -0.000000 -0.004311 -0.000000  0.000000 -0.001731 -0.007354
  0Cl  2s        -0.000000 -0.014085 -0.000000  0.000000 -0.004231 -0.022942
  0Cl  3s         0.000000  0.041842  0.000000 -0.000000  0.002217  0.061079
  0Cl  4s         0.000000  0.025156  0.000000 -0.000000  0.047821  0.073261
  0Cl  5s        -0.000000 -0.247871  0.000000  0.000000  0.403112  0.306826
  0Cl  6s        -0.000000  1.449347 -0.000000  0.000000 -3.009473 -2.403386
  0Cl  1pz        0.000000 -0.629099  0.000000 -0.000000  0.304802  0.254182
  0Cl  1px       -0.736069 -0.000000  0.072785  0.216840  0.000000  0.000000
  0Cl  1py       -0.134156  0.000000 -0.216840  0.072785  0.000000  0.000000
  0Cl  2pz        0.000000 -0.199590  0.000000 -0.000000  0.105095  0.092167
  0Cl  2px       -0.244223  0.000000  0.023815  0.070948  0.000000  0.000000
  0Cl  2py       -0.044512  0.000000 -0.070948  0.023815  0.000000  0.000000
  0Cl  3pz       -0.000000  1.575239 -0.000000  0.000000 -1.061558 -1.055736
  0Cl  3px        1.785736  0.000000 -0.184581 -0.549900 -0.000000 -0.000000
  0Cl  3py        0.325468 -0.000000  0.549900 -0.184581 -0.000000 -0.000000
  0Cl  4pz        0.000000 -1.799235  0.000000 -0.000000  2.589985  2.705576
  0Cl  4px       -1.693779 -0.000000  0.180225  0.536923  0.000000  0.000000
  0Cl  4py       -0.308708  0.000000 -0.536923  0.180225  0.000000 -0.000000
  0Cl  5pz       -0.000000  0.155714  0.000000  0.000000  0.733315  0.480301
  0Cl  5px        0.554065  0.000000 -0.056742 -0.169043 -0.000000 -0.000000
  0Cl  5py        0.100984 -0.000000  0.169043 -0.056742 -0.000000 -0.000000
  0Cl  1dz2       0.000000 -0.026225 -0.000000  0.000000 -0.028621 -0.216544
  0Cl  1dxz       0.000997 -0.000000 -0.007132 -0.021249 -0.000000 -0.000000
  0Cl  1dyz       0.000182  0.000000  0.021249 -0.007132 -0.000000 -0.000000
  0Cl  1dx2y2    -0.000000 -0.000000 -0.000000 -0.000000 -0.000000  0.000000
  0Cl  1dxy       0.000000  0.000000 -0.000000  0.000000 -0.000000  0.000000
  0Cl  2dz2      -0.000000  0.030038 -0.000000  0.000000 -0.552906 -0.798217
  0Cl  2dxz       0.024771 -0.000000 -0.002816 -0.008388 -0.000000 -0.000000
  0Cl  2dyz       0.004515 -0.000000  0.008388 -0.002816  0.000000  0.000000
  0Cl  2dx2y2     0.000000  0.000000 -0.000000  0.000000  0.000000 -0.000000
  0Cl  2dxy       0.000000 -0.000000 -0.000000  0.000000  0.000000 -0.000000
  0Cl  3dz2      -0.000000  0.028527 -0.000000  0.000000 -0.787334 -0.893499
  0Cl  3dxz      -0.034045  0.000000 -0.042647 -0.127052 -0.000000  0.000000
  0Cl  3dyz      -0.006205 -0.000000  0.127052 -0.042647  0.000000  0.000000
  0Cl  3dx2y2     0.000000 -0.000000 -0.000000  0.000000  0.000000  0.000000
  0Cl  3dxy      -0.000000 -0.000000 -0.000000 -0.000000 -0.000000 -0.000000
  0Cl  1f0       -0.000000  0.082083  0.000000  0.000000  0.004198  1.205531
  0Cl  1f+1       0.292050 -0.000000  0.277433  0.826521  0.000000  0.000000
  0Cl  1f-1       0.053229 -0.000000 -0.826521  0.277433  0.000000 -0.000000
  0Cl  1f+2       0.000000  0.000000  0.000000 -0.000000 -0.000000 -0.000000
  0Cl  1f-2       0.000000  0.000000  0.000000  0.000000  0.000000  0.000000
  0Cl  1f+3       0.000000  0.000000 -0.000000 -0.000000  0.000000  0.000000
  0Cl  1f-3      -0.000000 -0.000000 -0.000000  0.000000 -0.000000  0.000000
  1H   1s        -0.000000 -0.148954 -0.000000  0.000000 -1.306834  0.618084
  1H   2s         0.000000 -0.343781  0.000000 -0.000000  4.010073  2.378508
  1H   3s        -0.000000 -0.765544  0.000000  0.000000  0.384824  0.461643
  1H   1pz       -0.000000 -0.026159 -0.000000  0.000000 -0.069828 -0.104059
  1H   1px        0.004314 -0.000000  0.016258  0.048436  0.000000  0.000000
  1H   1py        0.000786  0.000000 -0.048436  0.016258  0.000000 -0.000000
  1H   2pz        0.000000  0.485218  0.000000 -0.000000  1.204827  1.707794
  1H   2px       -0.051823 -0.000000 -0.242169 -0.721465 -0.000000 -0.000000
  1H   2py       -0.009445  0.000000  0.721465 -0.242169 -0.000000 -0.000000
  1H   3pz       -0.000000 -1.095469  0.000000 -0.000000  0.843022  0.200976
  1H   3px       -0.009239  0.000000  0.066347  0.197660  0.000000 -0.000000
  1H   3py       -0.001684 -0.000000 -0.197660  0.066347  0.000000  0.000000
  1H   1dz2       0.000000 -0.390613  0.000000 -0.000000 -0.026872  0.188813
  1H   1dxz       0.050908 -0.000000  0.068517  0.204126 -0.000000 -0.000000
  1H   1dyz       0.009278 -0.000000 -0.204126  0.068517  0.000000  0.000000
  1H   1dx2y2     0.000000  0.000000  0.000000  0.000000 -0.000000 -0.000000
  1H   1dxy      -0.000000  0.000000  0.000000 -0.000000  0.000000  0.000000
                     42        43        44        45        46        47   
                   3.40846   3.40846   4.05807   4.05807   4.55902   5.63518
                   0.00000   0.00000   0.00000   0.00000   0.00000   0.00000
                  --------  --------  --------  --------  --------  --------
  0Cl  1s         0.000000 -0.000000  0.000000  0.000000 -0.016770 -0.000000
  0Cl  2s         0.000000 -0.000000 -0.000000  0.000000 -0.051930 -0.000000
  0Cl  3s        -0.000000  0.000000  0.000000 -0.000000  0.135087  0.000000
  0Cl  4s        -0.000000 -0.000000 -0.000000 -0.000000  0.245981 -0.000000
  0Cl  5s        -0.000000  0.000000  0.000000  0.000000 -0.606993  0.000000
  0Cl  6s         0.000000 -0.000000 -0.000000 -0.000000 -2.271942 -0.000000
  0Cl  1pz       -0.000000  0.000000  0.000000  0.000000 -0.252904 -0.000000
  0Cl  1px       -0.000000 -0.000000 -0.015087  0.033438  0.000000  0.000000
  0Cl  1py       -0.000000  0.000000  0.033438  0.015087  0.000000 -0.000000
  0Cl  2pz       -0.000000  0.000000  0.000000  0.000000 -0.061751 -0.000000
  0Cl  2px       -0.000000 -0.000000 -0.007712  0.017092 -0.000000  0.000000
  0Cl  2py       -0.000000  0.000000  0.017092  0.007712  0.000000 -0.000000
  0Cl  3pz        0.000000 -0.000000 -0.000000 -0.000000  0.397681 -0.000000
  0Cl  3px        0.000000  0.000000  0.089796 -0.199021 -0.000000  0.000000
  0Cl  3py        0.000000 -0.000000 -0.199021 -0.089796 -0.000000  0.000000
  0Cl  4pz       -0.000000  0.000000  0.000000 -0.000000  1.749772 -0.000000
  0Cl  4px       -0.000000 -0.000000 -0.240138  0.532234  0.000000 -0.000000
  0Cl  4py       -0.000000  0.000000  0.532234  0.240138  0.000000  0.000000
  0Cl  5pz       -0.000000  0.000000  0.000000  0.000000  0.517814  0.000000
  0Cl  5px        0.000000 -0.000000 -0.060362  0.133784 -0.000000  0.000000
  0Cl  5py       -0.000000 -0.000000  0.133784  0.060362 -0.000000 -0.000000
  0Cl  1dz2       0.000000  0.000000 -0.000000  0.000000 -0.209394 -0.000000
  0Cl  1dxz      -0.000000 -0.000000  0.104275 -0.231110 -0.000000 -0.000000
  0Cl  1dyz      -0.000000 -0.000000 -0.231110 -0.104275  0.000000  0.000000
  0Cl  1dx2y2     0.007433 -0.030371  0.000000 -0.000000 -0.000000  0.158585
  0Cl  1dxy      -0.030371 -0.007433 -0.000000 -0.000000 -0.000000 -1.116215
  0Cl  2dz2       0.000000 -0.000000 -0.000000  0.000000 -0.969095  0.000000
  0Cl  2dxz      -0.000000 -0.000000  0.105792 -0.234474  0.000000  0.000000
  0Cl  2dyz       0.000000  0.000000 -0.234474 -0.105792 -0.000000 -0.000000
  0Cl  2dx2y2     0.004858 -0.019848 -0.000000 -0.000000  0.000000 -0.110492
  0Cl  2dxy      -0.019848 -0.004858  0.000000  0.000000  0.000000  0.777709
  0Cl  3dz2       0.000000 -0.000000 -0.000000 -0.000000 -0.362903 -0.000000
  0Cl  3dxz       0.000000  0.000000  0.171887 -0.380964 -0.000000 -0.000000
  0Cl  3dyz       0.000000 -0.000000 -0.380964 -0.171887  0.000000  0.000000
  0Cl  3dx2y2     0.028282 -0.115556  0.000000  0.000000 -0.000000  0.034607
  0Cl  3dxy      -0.115556 -0.028282 -0.000000 -0.000000  0.000000 -0.243585
  0Cl  1f0       -0.000000  0.000000  0.000000 -0.000000  0.460281  0.000000
  0Cl  1f+1       0.000000 -0.000000 -0.309488  0.685938  0.000000 -0.000000
  0Cl  1f-1      -0.000000  0.000000  0.685938  0.309488  0.000000  0.000000
  0Cl  1f+2      -0.104180  0.425657 -0.000000  0.000000  0.000000  0.001427
  0Cl  1f-2       0.425657  0.104180  0.000000 -0.000000 -0.000000 -0.010043
  0Cl  1f+3      -0.000000 -0.000000 -0.000000 -0.000000  0.000000  0.000000
  0Cl  1f-3       0.000000  0.000000  0.000000 -0.000000 -0.000000 -0.000000
  1H   1s        -0.000000 -0.000000 -0.000000  0.000000 -0.418175  0.000000
  1H   2s        -0.000000  0.000000  0.000000 -0.000000  2.793967 -0.000000
  1H   3s        -0.000000  0.000000  0.000000  0.000000  0.572608  0.000000
  1H   1pz        0.000000 -0.000000 -0.000000 -0.000000  0.022243  0.000000
  1H   1px       -0.000000  0.000000  0.000120 -0.000266 -0.000000  0.000000
  1H   1py        0.000000  0.000000 -0.000266 -0.000120 -0.000000  0.000000
  1H   2pz       -0.000000  0.000000  0.000000 -0.000000  1.477400  0.000000
  1H   2px       -0.000000 -0.000000  0.166220 -0.368403 -0.000000  0.000000
  1H   2py       -0.000000 -0.000000 -0.368403 -0.166220 -0.000000 -0.000000
  1H   3pz       -0.000000  0.000000  0.000000  0.000000  0.920350 -0.000000
  1H   3px        0.000000  0.000000  0.190098 -0.421326 -0.000000 -0.000000
  1H   3py        0.000000  0.000000 -0.421326 -0.190098  0.000000  0.000000
  1H   1dz2      -0.000000  0.000000  0.000000 -0.000000  1.432387 -0.000000
  1H   1dxz      -0.000000 -0.000000  0.493253 -1.093228 -0.000000  0.000000
  1H   1dyz       0.000000  0.000000 -1.093228 -0.493253 -0.000000  0.000000
  1H   1dx2y2    -0.238653  0.975081 -0.000000  0.000000  0.000000  0.005869
  1H   1dxy       0.975081  0.238653  0.000000  0.000000 -0.000000 -0.041310
                     48        49        50        51        52        53   
                   5.63518   5.88865   5.88865   6.51901   8.61677   8.61677
                   0.00000   0.00000   0.00000   0.00000   0.00000   0.00000
                  --------  --------  --------  --------  --------  --------
  0Cl  1s         0.000000  0.000000  0.000000  0.018850 -0.000000 -0.000000
  0Cl  2s         0.000000  0.000000 -0.000000  0.069746 -0.000000 -0.000000
  0Cl  3s        -0.000000 -0.000000  0.000000 -0.290970  0.000000  0.000000
  0Cl  4s         0.000000 -0.000000 -0.000000  0.110396 -0.000000 -0.000000
  0Cl  5s        -0.000000  0.000000  0.000000 -0.180039  0.000000  0.000000
  0Cl  6s         0.000000  0.000000 -0.000000  3.083720 -0.000000 -0.000000
  0Cl  1pz        0.000000  0.000000  0.000000 -0.016690 -0.000000 -0.000000
  0Cl  1px       -0.000000 -0.003931  0.011236 -0.000000 -0.000667  0.003328
  0Cl  1py       -0.000000  0.011236  0.003931  0.000000 -0.003328 -0.000667
  0Cl  2pz       -0.000000 -0.000000 -0.000000 -0.014751  0.000000  0.000000
  0Cl  2px       -0.000000 -0.001495  0.004274  0.000000 -0.000011  0.000057
  0Cl  2py       -0.000000  0.004274  0.001495  0.000000 -0.000057 -0.000011
  0Cl  3pz       -0.000000 -0.000000 -0.000000  0.440415  0.000000  0.000000
  0Cl  3px       -0.000000  0.026655 -0.076191  0.000000  0.010229 -0.051045
  0Cl  3py        0.000000 -0.076191 -0.026655  0.000000  0.051045  0.010229
  0Cl  4pz        0.000000 -0.000000  0.000000 -2.509644  0.000000  0.000000
  0Cl  4px        0.000000 -0.070384  0.201182 -0.000000 -0.029435  0.146884
  0Cl  4py       -0.000000  0.201182  0.070384 -0.000000 -0.146884 -0.029435
  0Cl  5pz        0.000000 -0.000000  0.000000 -0.670125  0.000000  0.000000
  0Cl  5px       -0.000000  0.023433 -0.066980  0.000000  0.027563 -0.137544
  0Cl  5py        0.000000 -0.066980 -0.023433  0.000000  0.137544  0.027563
  0Cl  1dz2      -0.000000 -0.000000  0.000000 -1.161644 -0.000000 -0.000000
  0Cl  1dxz       0.000000 -0.366269  1.046925  0.000000 -0.019024  0.094932
  0Cl  1dyz      -0.000000  1.046925  0.366269 -0.000000 -0.094932 -0.019024
  0Cl  1dx2y2    -1.116215 -0.000000  0.000000  0.000000 -0.000000  0.000000
  0Cl  1dxy      -0.158585  0.000000 -0.000000  0.000000 -0.000000 -0.000000
  0Cl  2dz2       0.000000  0.000000 -0.000000  1.809954 -0.000000 -0.000000
  0Cl  2dxz      -0.000000  0.314289 -0.898350 -0.000000  0.040113 -0.200170
  0Cl  2dyz       0.000000 -0.898350 -0.314289  0.000000  0.200170  0.040113
  0Cl  2dx2y2     0.777709  0.000000 -0.000000 -0.000000  0.000000 -0.000000
  0Cl  2dxy       0.110492 -0.000000  0.000000 -0.000000  0.000000  0.000000
  0Cl  3dz2      -0.000000 -0.000000 -0.000000  0.443808 -0.000000 -0.000000
  0Cl  3dxz       0.000000 -0.075014  0.214417  0.000000 -0.007144  0.035648
  0Cl  3dyz      -0.000000  0.214417  0.075014 -0.000000 -0.035648 -0.007144
  0Cl  3dx2y2    -0.243585 -0.000000  0.000000 -0.000000  0.000000  0.000000
  0Cl  3dxy      -0.034607  0.000000 -0.000000 -0.000000 -0.000000 -0.000000
  0Cl  1f0        0.000000 -0.000000  0.000000 -0.697847 -0.000000 -0.000000
  0Cl  1f+1       0.000000 -0.084962  0.242850  0.000000 -0.032310  0.161235
  0Cl  1f-1      -0.000000  0.242850  0.084962 -0.000000 -0.161235 -0.032310
  0Cl  1f+2      -0.010043 -0.000000 -0.000000  0.000000  0.000000  0.000000
  0Cl  1f-2      -0.001427  0.000000 -0.000000  0.000000  0.000000 -0.000000
  0Cl  1f+3       0.000000  0.000000 -0.000000 -0.000000  0.000000 -0.000000
  0Cl  1f-3       0.000000  0.000000 -0.000000  0.000000 -0.000000  0.000000
  1H   1s         0.000000  0.000000  0.000000 -0.004883 -0.000000 -0.000000
  1H   2s        -0.000000 -0.000000  0.000000 -3.000043  0.000000  0.000000
  1H   3s         0.000000 -0.000000  0.000000 -0.776357  0.000000  0.000000
  1H   1pz       -0.000000 -0.000000  0.000000  0.024188 -0.000000 -0.000000
  1H   1px        0.000000  0.018232 -0.052115 -0.000000 -0.252104  1.258048
  1H   1py        0.000000 -0.052115 -0.018232  0.000000 -1.258048 -0.252104
  1H   2pz        0.000000 -0.000000  0.000000 -1.649377  0.000000  0.000000
  1H   2px       -0.000000  0.081171 -0.232016  0.000000  0.191950 -0.957870
  1H   2py        0.000000 -0.232016 -0.081171 -0.000000  0.957870  0.191950
  1H   3pz       -0.000000 -0.000000  0.000000 -0.883908 -0.000000  0.000000
  1H   3px        0.000000 -0.023424  0.066953  0.000000 -0.068949  0.344071
  1H   3py       -0.000000  0.066953  0.023424  0.000000 -0.344071 -0.068949
  1H   1dz2       0.000000 -0.000000  0.000000 -0.690022  0.000000  0.000000
  1H   1dxz      -0.000000  0.140951 -0.402888 -0.000000  0.029067 -0.145047
  1H   1dyz       0.000000 -0.402888 -0.140951  0.000000  0.145047  0.029067
  1H   1dx2y2    -0.041310 -0.000000  0.000000  0.000000  0.000000 -0.000000
  1H   1dxy      -0.005869  0.000000 -0.000000  0.000000  0.000000  0.000000
                     54        55        56        57        58        59   
                   9.14938  11.03904  26.23020  26.23020  27.83355 219.67065
                   0.00000   0.00000   0.00000   0.00000   0.00000   0.00000
                  --------  --------  --------  --------  --------  --------
  0Cl  1s         0.038651  0.107330 -0.000000  0.000000 -0.006122  1.543530
  0Cl  2s         0.154744  0.452129 -0.000000  0.000000 -0.020686 -1.921580
  0Cl  3s        -0.783772 -2.581074  0.000000 -0.000000  0.166616  1.473897
  0Cl  4s         0.727511  3.262779 -0.000000  0.000000 -0.312979 -1.036096
  0Cl  5s        -0.290131 -2.042569  0.000000 -0.000000  0.474964  0.475107
  0Cl  6s         1.686956 -0.200027 -0.000000 -0.000000 -0.521841 -0.176978
  0Cl  1pz        0.056512  0.022015  0.000000 -0.000000  3.544770  0.043131
  0Cl  1px       -0.000000  0.000000  0.346670  3.340826  0.000000  0.000000
  0Cl  1py        0.000000  0.000000  3.340826 -0.346670 -0.000000  0.000000
  0Cl  2pz        0.011908  0.067899  0.000000 -0.000000  3.541625  0.038171
  0Cl  2px        0.000000  0.000000  0.351235  3.384819  0.000000  0.000000
  0Cl  2py        0.000000  0.000000  3.384819 -0.351235 -0.000000  0.000000
  0Cl  3pz       -0.008410 -0.125150 -0.000000  0.000000 -2.595473 -0.018853
  0Cl  3px        0.000000 -0.000000 -0.239506 -2.308102 -0.000000 -0.000000
  0Cl  3py        0.000000 -0.000000 -2.308102  0.239506  0.000000 -0.000000
  0Cl  4pz       -1.258875  1.558264  0.000000 -0.000000  1.117421 -0.153998
  0Cl  4px       -0.000000 -0.000000  0.112409  1.083275  0.000000  0.000000
  0Cl  4py       -0.000000 -0.000000  1.083275 -0.112409 -0.000000  0.000000
  0Cl  5pz       -0.446672 -0.038392  0.000000  0.000000 -0.112772  0.059645
  0Cl  5px       -0.000000 -0.000000 -0.028283 -0.272558 -0.000000  0.000000
  0Cl  5py        0.000000 -0.000000 -0.272558  0.028283  0.000000 -0.000000
  0Cl  1dz2      -0.061855  0.222144  0.000000  0.000000 -0.022660 -0.020526
  0Cl  1dxz      -0.000000  0.000000  0.000333  0.003210 -0.000000 -0.000000
  0Cl  1dyz      -0.000000 -0.000000  0.003210 -0.000333  0.000000 -0.000000
  0Cl  1dx2y2     0.000000  0.000000  0.000000  0.000000 -0.000000  0.000000
  0Cl  1dxy       0.000000 -0.000000  0.000000  0.000000 -0.000000  0.000000
  0Cl  2dz2       0.611526 -0.918434 -0.000000 -0.000000  0.204736  0.105884
  0Cl  2dxz      -0.000000 -0.000000 -0.000762 -0.007347  0.000000 -0.000000
  0Cl  2dyz       0.000000  0.000000 -0.007347  0.000762 -0.000000  0.000000
  0Cl  2dx2y2     0.000000 -0.000000 -0.000000 -0.000000  0.000000 -0.000000
  0Cl  2dxy      -0.000000 -0.000000 -0.000000 -0.000000  0.000000 -0.000000
  0Cl  3dz2       0.421372 -0.245407 -0.000000 -0.000000 -0.123297  0.006673
  0Cl  3dxz       0.000000  0.000000 -0.002470 -0.023800  0.000000 -0.000000
  0Cl  3dyz      -0.000000  0.000000 -0.023800  0.002470  0.000000 -0.000000
  0Cl  3dx2y2    -0.000000  0.000000 -0.000000  0.000000 -0.000000  0.000000
  0Cl  3dxy      -0.000000  0.000000  0.000000  0.000000 -0.000000 -0.000000
  0Cl  1f0       -0.222643  0.413219  0.000000  0.000000 -0.055052 -0.051344
  0Cl  1f+1       0.000000 -0.000000  0.002128  0.020511 -0.000000  0.000000
  0Cl  1f-1      -0.000000  0.000000  0.020511 -0.002128  0.000000 -0.000000
  0Cl  1f+2      -0.000000  0.000000 -0.000000  0.000000 -0.000000  0.000000
  0Cl  1f-2       0.000000 -0.000000  0.000000  0.000000  0.000000  0.000000
  0Cl  1f+3      -0.000000  0.000000  0.000000 -0.000000 -0.000000 -0.000000
  0Cl  1f-3       0.000000  0.000000 -0.000000  0.000000  0.000000 -0.000000
  1H   1s         0.214917 -0.103055 -0.000000 -0.000000  0.051305  0.008053
  1H   2s        -1.885659  1.912726  0.000000  0.000000  0.032598 -0.184532
  1H   3s        -0.351125 -0.336410  0.000000  0.000000  0.224853  0.126177
  1H   1pz        1.311190 -0.542964  0.000000 -0.000000  0.110562  0.031642
  1H   1px        0.000000  0.000000  0.000496  0.004775 -0.000000 -0.000000
  1H   1py       -0.000000 -0.000000  0.004775 -0.000496  0.000000  0.000000
  1H   2pz       -1.690770  1.572257  0.000000  0.000000 -0.358991 -0.171632
  1H   2px       -0.000000 -0.000000 -0.004548 -0.043832  0.000000 -0.000000
  1H   2py        0.000000  0.000000 -0.043832  0.004548 -0.000000 -0.000000
  1H   3pz       -0.189443  0.095460  0.000000  0.000000  0.262925  0.024611
  1H   3px        0.000000  0.000000 -0.001505 -0.014499  0.000000 -0.000000
  1H   3py       -0.000000 -0.000000 -0.014499  0.001505 -0.000000  0.000000
  1H   1dz2      -0.441547  0.621845  0.000000  0.000000 -0.307455 -0.078828
  1H   1dxz      -0.000000  0.000000 -0.001097 -0.010576  0.000000 -0.000000
  1H   1dyz       0.000000 -0.000000 -0.010576  0.001097 -0.000000  0.000000
  1H   1dx2y2    -0.000000 -0.000000 -0.000000  0.000000  0.000000  0.000000
  1H   1dxy       0.000000 -0.000000 -0.000000 -0.000000  0.000000  0.000000

                      0         1         2         3         4         5   
                 -104.85020 -10.57639  -8.04443  -8.04209  -8.04209  -1.11971
                   1.00000   1.00000   1.00000   1.00000   1.00000   1.00000
                  --------  --------  --------  --------  --------  --------
  0Cl  1s         0.411733  0.121937 -0.000502  0.000000 -0.000000 -0.034741
  0Cl  2s         0.654661  0.331527 -0.001393  0.000000  0.000000 -0.100594
  0Cl  3s         0.012090 -0.512219  0.002649 -0.000000 -0.000000  0.199345
  0Cl  4s        -0.000922 -0.604678  0.002239 -0.000000  0.000000  0.394729
  0Cl  5s         0.000225 -0.044796 -0.001447  0.000000 -0.000000 -0.593795
  0Cl  6s        -0.000089  0.015821  0.001753 -0.000000  0.000000 -0.524372
  0Cl  1pz       -0.000142  0.003597  1.230002 -0.000000 -0.000000 -0.040479
  0Cl  1px        0.000000 -0.000000  0.000000  0.632822 -1.056287  0.000000
  0Cl  1py       -0.000000 -0.000000 -0.000000 -1.056287 -0.632822 -0.000000
  0Cl  2pz       -0.000093  0.000753  0.327003 -0.000000 -0.000000 -0.010100
  0Cl  2px        0.000000 -0.000000  0.000000  0.168214 -0.280778 -0.000000
  0Cl  2py       -0.000000  0.000000 -0.000000 -0.280778 -0.168214 -0.000000
  0Cl  3pz        0.000098  0.001179  0.051825 -0.000000 -0.000000  0.025405
  0Cl  3px       -0.000000  0.000000  0.000000  0.025306 -0.042240 -0.000000
  0Cl  3py        0.000000 -0.000000 -0.000000 -0.042240 -0.025306  0.000000
  0Cl  4pz       -0.000125  0.000867 -0.003292  0.000000  0.000000  0.041662
  0Cl  4px        0.000000 -0.000000 -0.000000 -0.001117  0.001864  0.000000
  0Cl  4py       -0.000000 -0.000000  0.000000  0.001864  0.001117  0.000000
  0Cl  5pz        0.000038 -0.004210  0.000365 -0.000000 -0.000000  0.022675
  0Cl  5px        0.000000  0.000000  0.000000  0.000357 -0.000596 -0.000000
  0Cl  5py        0.000000  0.000000 -0.000000 -0.000596 -0.000357 -0.000000
  0Cl  1dz2      -0.000007 -0.000426 -0.000506  0.000000  0.000000 -0.004770
  0Cl  1dxz      -0.000000 -0.000000 -0.000000 -0.000370  0.000618  0.000000
  0Cl  1dyz       0.000000  0.000000  0.000000  0.000618  0.000370 -0.000000
  0Cl  1dx2y2    -0.000000 -0.000000 -0.000000 -0.000000 -0.000000 -0.000000
  0Cl  1dxy       0.000000 -0.000000 -0.000000 -0.000000 -0.000000 -0.000000
[...]
                                         0.0000  0.0776
  49. (0.00019) RY ( 5) H  2            s( 93.32%)p 0.07(  6.34%)d 0.00(  0.34%)
                                        -0.0011  0.0213  0.9658  0.0000  0.0000
                                         0.0000  0.0000  0.0000  0.0000 -0.1194
                                         0.1955  0.1045  0.0000  0.0000  0.0000
                                         0.0000  0.0585
  50. (0.00019) RY ( 6) H  2            s(  0.00%)p 1.00( 72.52%)d 0.38( 27.48%)
                                         0.0000  0.0000  0.0000  0.0000  0.0000
                                         0.0000  0.0554  0.8491 -0.0346  0.0000
                                         0.0000  0.0000  0.0000  0.0000  0.5242
                                         0.0000  0.0000
  51. (0.00019) RY ( 7) H  2            s(  0.00%)p 1.00( 72.52%)d 0.38( 27.48%)
                                         0.0000  0.0000  0.0000  0.0554  0.8491
                                        -0.0346  0.0000  0.0000  0.0000  0.0000
                                         0.0000  0.0000  0.0000  0.5242  0.0000
                                         0.0000  0.0000
  52. (0.00006) RY ( 8) H  2            s(  0.00%)p 0.00(  0.00%)d 1.00(100.00%)
  53. (0.00006) RY ( 9) H  2            s(  0.00%)p 0.00(  0.00%)d 1.00(100.00%)
  54. (0.00006) RY (10) H  2            s(  8.59%)p 4.14( 35.56%)d 6.50( 55.85%)
  55. (0.00002) RY (11) H  2            s(  0.00%)p 1.00( 39.93%)d 1.50( 60.07%)
  56. (0.00002) RY (12) H  2            s(  0.00%)p 1.00( 39.93%)d 1.50( 60.07%)
  57. (0.00002) RY (13) H  2            s(  2.37%)p33.10( 78.41%)d 8.11( 19.22%)
  58. (0.00002) RY (14) H  2            s(  0.49%)p99.99( 78.97%)d42.35( 20.54%)
  59. (0.00001) RY (15) H  2            s(  0.00%)p 1.00( 89.70%)d 0.11( 10.30%)
  60. (0.00001) RY (16) H  2            s(  0.00%)p 1.00( 89.70%)d 0.11( 10.30%)


 NHO DIRECTIONALITY AND BOND BENDING (deviation from line of nuclear centers at
                                      the position of maximum hybrid amplitude)

         [Thresholds for printing:  angular deviation  >  1.0 degree]
                                    p- or d-character  > 25.0%
                                    orbital occupancy  >  0.10e

                        Line of Centers        Hybrid 1             Hybrid 2
                        ---------------  -------------------  ------------------
           NBO            Theta   Phi    Theta   Phi    Dev   Theta   Phi    Dev
 ===============================================================================
   7. LP ( 2)Cl  1          --     --     94.4  180.0   --      --     --    --
   8. LP ( 3)Cl  1          --     --     94.4   90.0   --      --     --    --


 NATURAL BOND ORBITALS (Summary):

           NBO                 Occupancy
 ========================================
 Molecular unit  1  (HCl)
 ------ Lewis ---------------------------
    1. CR ( 1)Cl  1             0.99997
    2. CR ( 2)Cl  1             0.99961
    3. CR ( 3)Cl  1             0.99918
    4. CR ( 4)Cl  1             0.99918
    5. CR ( 5)Cl  1             0.99912
    6. LP ( 1)Cl  1             0.98757
    7. LP ( 2)Cl  1             0.97732
    8. LP ( 3)Cl  1             0.97732
    9. BD ( 1)Cl  1- H  2       0.98248
 ------ non-Lewis -----------------------
   10. BD*( 1)Cl  1- H  2       0.01092
   11. RY ( 1)Cl  1             0.00847
   12. RY ( 2)Cl  1             0.00847
   13. RY ( 3)Cl  1             0.00768
   14. RY ( 4)Cl  1             0.00768
   15. RY ( 5)Cl  1             0.00569
   16. RY ( 6)Cl  1             0.00467
   17. RY ( 7)Cl  1             0.00467
   18. RY ( 8)Cl  1             0.00321
   19. RY ( 9)Cl  1             0.00112
   20. RY (10)Cl  1             0.00054
   21. RY (11)Cl  1             0.00054
   22. RY (12)Cl  1             0.00054
   23. RY (13)Cl  1             0.00054
   24. RY (14)Cl  1             0.00048
   25. RY (15)Cl  1             0.00048
   26. RY (16)Cl  1             0.00047
   27. RY (17)Cl  1             0.00047
   28. RY (18)Cl  1             0.00046
   29. RY (19)Cl  1             0.00036
   30. RY (20)Cl  1             0.00036
   31. RY (21)Cl  1             0.00034
   32. RY (22)Cl  1             0.00034
   33. RY (23)Cl  1             0.00032
   34. RY (24)Cl  1             0.00025
   35. RY (25)Cl  1             0.00022
   36. RY (26)Cl  1             0.00022
   37. RY (27)Cl  1             0.00019
   38. RY (28)Cl  1             0.00017
   39. RY (29)Cl  1             0.00017
   40. RY (30)Cl  1             0.00008
   41. RY (31)Cl  1             0.00002
   42. RY (32)Cl  1             0.00001
   43. RY (33)Cl  1             0.00001
   44. RY (34)Cl  1             0.00001
   45. RY ( 1) H  2             0.00281
   46. RY ( 2) H  2             0.00281
   47. RY ( 3) H  2             0.00115
   48. RY ( 4) H  2             0.00048
   49. RY ( 5) H  2             0.00019
   50. RY ( 6) H  2             0.00019
   51. RY ( 7) H  2             0.00019
   52. RY ( 8) H  2             0.00006
   53. RY ( 9) H  2             0.00006
   54. RY (10) H  2             0.00006
   55. RY (11) H  2             0.00002
   56. RY (12) H  2             0.00002
   57. RY (13) H  2             0.00002
   58. RY (14) H  2             0.00002
   59. RY (15) H  2             0.00001
   60. RY (16) H  2             0.00001
          -------------------------------
                 Total Lewis    8.92175  ( 99.1306%)
           Valence non-Lewis    0.01092  (  0.1214%)
           Rydberg non-Lewis    0.06733  (  0.7481%)
          -------------------------------
               Total unit  1    9.00000  (100.0000%)
              Charge unit  1    0.00000

 $CHOOSE
  ALPHA
   LONE 1 3 END
   BOND S 1 2 END
  END
  BETA
   LONE 1 3 END
   BOND S 1 2 END
  END
 $END

 NBO analysis completed in 0.13 CPU seconds (0 wall seconds)
 Maximum scratch memory used by NBO was 561265 words (4.28 MB)
Stopping NBO...Storing NBOs: HCl.pmp2re.nbo

                                *** returned from   NBO  program ***


----------------------------------
MP2 DERIVATIVE INTEGRAL GENERATION
----------------------------------


Input Wavefunction Amplitudes       ... HCl.mp2tbb.tmp
Input Correlated Electron Density   ... HCl.pmp2re
Input Energy Weighted Density       ... HCl.wmp2.tmp
Input SCF Electron Density          ... HCl.scfp

One-Electron Terms    ...
                        ... One-Electron Terms done
Prescreening matrices              ... done

Batch handling in the gradient evaluation:
Memory available                      ... 3000.0 MB
Memory per occupied orbital in Q2     ...    0.5 MB
Memory per occupied orbital in Q3     ...    0.0 MB
Total memory requirement per |i>      ...    0.5 MB
Max. Number of orbitals possible      ...   5804
Number of orbitals treated per batch  ...     18
Number of batches to be done          ...      1
Batch   0: i=    0 ...    17

---------------------------------------
MP2 TOTAL ENERGY:     -460.396055009 Eh
---------------------------------------

-----------------------------------
NORM OF THE MP2 GRADIENT:  0.000000
-----------------------------------

-------------------------   --------------------
FINAL SINGLE POINT ENERGY      -460.396055008696
-------------------------   --------------------

                                *** OPTIMIZATION RUN DONE ***

                            ***************************************
                            *     ORCA property calculations      *
                            ***************************************

                                    ---------------------
                                    Active property flags
                                    ---------------------
   (+) Dipole Moment


------------------------------------------------------------------------------
                       ORCA ELECTRIC PROPERTIES CALCULATION
------------------------------------------------------------------------------

Dipole Moment Calculation                       ... on
Quadrupole Moment Calculation                   ... off
Polarizability Calculation                      ... off
GBWName                                         ... HCl.gbw
Electron density file                           ... HCl.scfp
The origin for moment calculation is the CENTER OF MASS  = ( 0.000000,  0.000000 -0.003655)

-------------
DIPOLE MOMENT
-------------
                                X             Y             Z
Electronic contribution:      0.00000       0.00000       0.74338
Nuclear contribution   :      0.00000       0.00000      -1.20421
                        -----------------------------------------
Total Dipole Moment    :      0.00000       0.00000      -0.46082
                        -----------------------------------------
Magnitude (a.u.)       :      0.46082
Magnitude (Debye)      :      1.17132



--------------------
Rotational spectrum 
--------------------
 
Rotational constants in cm-1:     0.000000    10.689531    10.689531 
Rotational constants in MHz :     0.000000 320464.080712 320464.080712 

 Dipole components along the rotational axes: 
x,y,z [a.u.] :    -0.460824     0.000000     0.000000 
x,y,z [Debye]:    -1.171322     0.000000     0.000000 

 

                         *** MP2 UNRELAXED DENSITY ***

------------------------------------------------------------------------------
                       ORCA ELECTRIC PROPERTIES CALCULATION
------------------------------------------------------------------------------

Dipole Moment Calculation                       ... on
Quadrupole Moment Calculation                   ... off
Polarizability Calculation                      ... off
GBWName                                         ... HCl.gbw
Electron density file                           ... HCl.pmp2ur
The origin for moment calculation is the CENTER OF MASS  = ( 0.000000,  0.000000 -0.003655)

-------------
DIPOLE MOMENT
-------------
                                X             Y             Z
Electronic contribution:     -0.00000      -0.00000       0.74919
Nuclear contribution   :      0.00000       0.00000      -1.20421
                        -----------------------------------------
Total Dipole Moment    :     -0.00000      -0.00000      -0.45501
                        -----------------------------------------
Magnitude (a.u.)       :      0.45501
Magnitude (Debye)      :      1.15655



--------------------
Rotational spectrum 
--------------------
 
Rotational constants in cm-1:     0.000000    10.689531    10.689531 
Rotational constants in MHz :     0.000000 320464.080712 320464.080712 

 Dipole components along the rotational axes: 
x,y,z [a.u.] :    -0.455013    -0.000000    -0.000000 
x,y,z [Debye]:    -1.156552    -0.000000    -0.000000 

 

                           *** MP2 RELAXED DENSITY ***

------------------------------------------------------------------------------
                       ORCA ELECTRIC PROPERTIES CALCULATION
------------------------------------------------------------------------------

Dipole Moment Calculation                       ... on
Quadrupole Moment Calculation                   ... off
Polarizability Calculation                      ... off
GBWName                                         ... HCl.gbw
Electron density file                           ... HCl.pmp2re
The origin for moment calculation is the CENTER OF MASS  = ( 0.000000,  0.000000 -0.003655)

-------------
DIPOLE MOMENT
-------------
                                X             Y             Z
Electronic contribution:     -0.00000      -0.00000       0.77718
Nuclear contribution   :      0.00000       0.00000      -1.20421
                        -----------------------------------------
Total Dipole Moment    :     -0.00000      -0.00000      -0.42703
                        -----------------------------------------
Magnitude (a.u.)       :      0.42703
Magnitude (Debye)      :      1.08543



--------------------
Rotational spectrum 
--------------------
 
Rotational constants in cm-1:     0.000000    10.689531    10.689531 
Rotational constants in MHz :     0.000000 320464.080712 320464.080712 

 Dipole components along the rotational axes: 
x,y,z [a.u.] :    -0.427031    -0.000000    -0.000000 
x,y,z [Debye]:    -1.085426    -0.000000    -0.000000 

 
------------------------------------------------------------------------------
                         ORCA MP2 H E S S I A N CALCULATION
------------------------------------------------------------------------------

Calculating analytic MP2 second derivatives ... (>HCl.last_mp2) done
Warning: T+R mode no 5 is zero 

-----------------------
VIBRATIONAL FREQUENCIES
-----------------------

Scaling factor for frequencies =  1.000000000  (already applied!)

   0:         0.00 cm**-1
   1:         0.00 cm**-1
   2:         0.00 cm**-1
   3:         0.00 cm**-1
   4:         0.00 cm**-1
   5:      3051.35 cm**-1


------------
NORMAL MODES
------------

These modes are the Cartesian displacements weighted by the diagonal matrix
M(i,i)=1/sqrt(m[i]) where m[i] is the mass of the displaced atom
Thus, these vectors are normalized but *not* orthogonal

                  0          1          2          3          4          5    
      0       0.000000   0.000000   0.000000   0.000000   0.000000   0.000000
      1       0.000000   0.000000   0.000000   0.000000   0.000000   0.000000
      2       0.000000   0.000000   0.000000   0.000000   0.000000   0.028421
      3       0.000000   0.000000   0.000000   0.000000   0.000000   0.000000
      4       0.000000   0.000000   0.000000   0.000000   0.000000   0.000000
      5       0.000000   0.000000   0.000000   0.000000   0.000000  -0.999596


-----------
IR SPECTRUM
-----------

 Mode    freq (cm**-1)   T**2         TX         TY         TZ
-------------------------------------------------------------------
   5:      3051.35   56.748812  ( -0.000000   0.000000  -7.533181)

The first frequency considered to be a vibration is 5
The total number of vibrations considered is 1


--------------------------
THERMOCHEMISTRY AT 298.15K
--------------------------

Temperature         ... 298.15 K
Pressure            ... 1.00 atm
Total Mass          ... 36.46 AMU
The molecule is recognized as being linear

Throughout the following assumptions are being made:
  (1) The electronic state is orbitally nondegenerate
  (2) There are no thermally accessible electronically excited states
  (3) Hindered rotations indicated by low frequency modes are not
      treated as such but are treated as vibrations and this may
      cause some error
  (4) All equations used are the standard statistical mechanics
      equations for an ideal gas
  (5) All vibrations are strictly harmonic

freq.    3051.35  E(vib)   ...       0.00 

------------
INNER ENERGY
------------

The inner energy is: U= E(el) + E(ZPE) + E(vib) + E(rot) + E(trans)
    E(el)   - is the total energy from the electronic structure calculation
              = E(kin-el) + E(nuc-el) + E(el-el) + E(nuc-nuc)
    E(ZPE)  - the the zero temperature vibrational energy from the frequency calculation
    E(vib)  - the the finite temperature correction to E(ZPE) due to population
              of excited vibrational states
    E(rot)  - is the rotational thermal energy
    E(trans)- is the translational thermal energy

Summary of contributions to the inner energy U:
Electronic energy                ...   -460.39605501 Eh
Zero point energy                ...      0.00695148 Eh       4.36 kcal/mol
Thermal vibrational correction   ...      0.00000001 Eh       0.00 kcal/mol
Thermal rotational correction    ...      0.00094418 Eh       0.59 kcal/mol
Thermal translational correction ...      0.00141627 Eh       0.89 kcal/mol
-----------------------------------------------------------------------
Total thermal energy                   -460.38674307 Eh


Summary of corrections to the electronic energy:
(perhaps to be used in another calculation)
Total thermal correction                  0.00236046 Eh       1.48 kcal/mol
Non-thermal (ZPE) correction              0.00695148 Eh       4.36 kcal/mol
-----------------------------------------------------------------------
Total correction                          0.00931193 Eh       5.84 kcal/mol


--------
ENTHALPY
--------

The enthalpy is H = U + kB*T
                kB is Boltzmann's constant
Total free energy                 ...   -460.38674307 Eh 
Thermal Enthalpy correction       ...      0.00094421 Eh       0.59 kcal/mol
-----------------------------------------------------------------------
Total Enthalpy                    ...   -460.38579887 Eh


Note: Rotational entropy computed according to Herzberg 
Infrared and Raman Spectra, Chapter V,1, Van Nostrand Reinhold, 1945 
Point Group:  Cinfv, Symmetry Number:   1  
Rotational constants in cm-1:     0.000000    10.689531    10.689531 

Vibrational entropy computed according to the QRRHO of S. Grimme
Chem.Eur.J. 2012 18 9955


-------
ENTROPY
-------

The entropy contributions are T*S = T*(S(el)+S(vib)+S(rot)+S(trans))
     S(el)   - electronic entropy
     S(vib)  - vibrational entropy
     S(rot)  - rotational entropy
     S(trans)- translational entropy
The entropies will be listed as mutliplied by the temperature to get
units of energy

Electronic entropy                ...      0.00000000 Eh      0.00 kcal/mol
Vibrational entropy               ...      0.00000001 Eh      0.00 kcal/mol
Rotational entropy                ...      0.00374325 Eh      2.35 kcal/mol
Translational entropy             ...      0.01744233 Eh     10.95 kcal/mol
-----------------------------------------------------------------------
Final entropy term                ...      0.02118558 Eh     13.29 kcal/mol

In case the symmetry of your molecule has not been determined correctly
or in case you have a reason to use a different symmetry number we print 
out the resulting rotational entropy values for sn=1,12 :
 --------------------------------------------------------
|  sn= 1 | S(rot)=             -inf Eh      -inf kcal/mol|
|  sn= 2 | S(rot)=             -inf Eh      -inf kcal/mol|
|  sn= 3 | S(rot)=             -inf Eh      -inf kcal/mol|
|  sn= 4 | S(rot)=             -inf Eh      -inf kcal/mol|
|  sn= 5 | S(rot)=             -inf Eh      -inf kcal/mol|
|  sn= 6 | S(rot)=             -inf Eh      -inf kcal/mol|
|  sn= 7 | S(rot)=             -inf Eh      -inf kcal/mol|
|  sn= 8 | S(rot)=             -inf Eh      -inf kcal/mol|
|  sn= 9 | S(rot)=             -inf Eh      -inf kcal/mol|
|  sn=10 | S(rot)=             -inf Eh      -inf kcal/mol|
|  sn=11 | S(rot)=             -inf Eh      -inf kcal/mol|
|  sn=12 | S(rot)=             -inf Eh      -inf kcal/mol|
 --------------------------------------------------------


-------------------
GIBBS FREE ENERGY
-------------------

The Gibbs free energy is G = H - T*S

Total enthalpy                    ...   -460.38579887 Eh 
Total entropy correction          ...     -0.02118558 Eh    -13.29 kcal/mol
-----------------------------------------------------------------------
Final Gibbs free energy         ...   -460.40698445 Eh

For completeness - the Gibbs free energy minus the electronic energy
G-E(el)                           ...     -0.01092944 Eh     -6.86 kcal/mol


Timings for individual modules:

Sum of individual times         ...       48.449 sec (=   0.807 min)
GTO integral calculation        ...        2.899 sec (=   0.048 min)   6.0 %
SCF iterations                  ...       10.697 sec (=   0.178 min)  22.1 %
MP2 module                      ...       14.301 sec (=   0.238 min)  29.5 %
Geometry relaxation             ...        0.059 sec (=   0.001 min)   0.1 %
Analytical frequency calculation...       20.493 sec (=   0.342 min)  42.3 %
                             ****ORCA TERMINATED NORMALLY****
TOTAL RUN TIME: 0 days 0 hours 0 minutes 49 seconds 22 msec
