
                                 *****************
                                 * O   R   C   A *
                                 *****************

           --- An Ab Initio, DFT and Semiempirical electronic structure package ---

                  #######################################################
                  #                        -***-                        #
                  #          Department of theory and spectroscopy      #
                  #               Directorship: Frank Neese             #
                  #        Max Planck Institute fuer Kohlenforschung    #
                  #                Kaiser Wilhelm Platz 1               #
                  #                 D-45470 Muelheim/Ruhr               #
                  #                      Germany                        #
                  #                                                     #
                  #                  All rights reserved                #
                  #                        -***-                        #
                  #######################################################


                         Program Version 4.2.1 -  RELEASE  -


 With contributions from (in alphabetic order):
   Daniel Aravena         : Magnetic Suceptibility
   Michael Atanasov       : Ab Initio Ligand Field Theory (pilot matlab implementation)
   Alexander A. Auer      : GIAO ZORA, VPT2
   Ute Becker             : Parallelization
   Giovanni Bistoni       : ED, misc. LED, open-shell LED, HFLD
   Martin Brehm           : Molecular dynamics
   Dmytro Bykov           : SCF Hessian
   Vijay G. Chilkuri      : MRCI spin determinant printing, contributions to CSF-ICE
   Dipayan Datta          : RHF DLPNO-CCSD density
   Achintya Kumar Dutta   : EOM-CC, STEOM-CC
   Dmitry Ganyushin       : Spin-Orbit,Spin-Spin,Magnetic field MRCI
   Miquel Garcia          : C-PCM Hessian, Gaussian charge scheme
   Yang Guo               : DLPNO-NEVPT2, CIM, IAO-localization
   Andreas Hansen         : Spin unrestricted coupled pair/coupled cluster methods
   Benjamin Helmich-Paris : CASSCF linear response (MC-RPA)
   Lee Huntington         : MR-EOM, pCC
   Robert Izsak           : Overlap fitted RIJCOSX, COSX-SCS-MP3, EOM
   Christian Kollmar      : KDIIS, OOCD, Brueckner-CCSD(T), CCSD density
   Simone Kossmann        : Meta GGA functionals, TD-DFT gradient, OOMP2, MP2 Hessian
   Martin Krupicka        : AUTO-CI
   Lucas Lang             : DCDCAS
   Dagmar Lenk            : GEPOL surface, SMD
   Dimitrios Liakos       : Extrapolation schemes; Compound Job, initial MDCI parallelization
   Dimitrios Manganas     : Further ROCIS development; embedding schemes
   Dimitrios Pantazis     : SARC Basis sets
   Taras Petrenko         : DFT Hessian,TD-DFT gradient, ASA, ECA, R-Raman, ABS, FL, XAS/XES, NRVS
   Peter Pinski           : DLPNO-MP2, DLPNO-MP2 Gradient
   Christoph Reimann      : Effective Core Potentials
   Marius Retegan         : Local ZFS, SOC
   Christoph Riplinger    : Optimizer, TS searches, QM/MM, DLPNO-CCSD(T), (RO)-DLPNO pert. Triples
   Tobias Risthaus        : Range-separated hybrids, TD-DFT gradient, RPA, STAB
   Michael Roemelt        : Original ROCIS implementation
   Masaaki Saitow         : Open-shell DLPNO-CCSD energy and density
   Barbara Sandhoefer     : DKH picture change effects
   Avijit Sen             : IP-ROCIS
   Kantharuban Sivalingam : CASSCF convergence, NEVPT2, FIC-MRCI
   Bernardo de Souza      : ESD, SOC TD-DFT
   Georgi Stoychev        : AutoAux, RI-MP2 NMR
   Willem Van den Heuvel  : Paramagnetic NMR
   Boris Wezisla          : Elementary symmetry handling
   Frank Wennmohs         : Technical directorship


 We gratefully acknowledge several colleagues who have allowed us to
 interface, adapt or use parts of their codes:
   Stefan Grimme, W. Hujo, H. Kruse,             : VdW corrections, initial TS optimization,
                  C. Bannwarth                     DFT functionals, gCP, sTDA/sTD-DF
   Ed Valeev, F. Pavosevic, A. Kumar             : LibInt (2-el integral package), F12 methods
   Garnet Chan, S. Sharma, J. Yang, R. Olivares  : DMRG
   Ulf Ekstrom                                   : XCFun DFT Library
   Mihaly Kallay                                 : mrcc  (arbitrary order and MRCC methods)
   Andreas Klamt, Michael Diedenhofen            : otool_cosmo (COSMO solvation model)
   Jiri Pittner, Ondrej Demel                    : Mk-CCSD
   Frank Weinhold                                : gennbo (NPA and NBO analysis)
   Christopher J. Cramer and Donald G. Truhlar   : smd solvation model
   Lars Goerigk                                  : TD-DFT with DH, B97 family of functionals
   V. Asgeirsson, H. Jonsson                     : NEB implementation
   FAccTs GmbH                                   : IRC, NEB, NEB-TS, Multilevel, MM, QM/MM, CI optimization
   S Lehtola, MJT Oliveira, MAL Marques          : LibXC Library


 Your calculation uses the libint2 library for the computation of 2-el integrals
 For citations please refer to: http://libint.valeyev.net

 Your ORCA version has been built with support for libXC version: 4.2.3
 For citations please refer to: https://tddft.org/programs/libxc/

 This ORCA versions uses:
   CBLAS   interface :  Fast vector & matrix operations
   LAPACKE interface :  Fast linear algebra routines
   SCALAPACK package :  Parallel linear algebra routines


----- Orbital basis set information -----
Your calculation utilizes the basis: 6-311G(3df,3pd)
   H, Li - Ne  : R. Krishnan, J. S. Binkley, R. Seeger and J. A. Pople, J. Chem. Phys. 72, 650 (1980).
   Na - Ar     : A. D. McLean and G. S. Chandler J. Chem. Phys. 72, 5639, (1980).
   K  - Ca     : J.-P. Blaudeau, M. P. McGrath, L. A. Curtiss and L. Radom, J. Chem. Phys. 107, 5016 (1997).
   Ga - Kr     : L. A. Curtiss, M. P. McGrath, J.-P. Blandeau, N. E. Davis, R. C. Binning and L. Radom, J. Chem. Phys. 103, 6104 (1995).
   Pol./Diff.
   H, Li - Cl  : T. Clark, J. Chandrasekhar and P. v. R. Schleyer, J. Comp. Chem. 4, 294 (1983).
   H - Ne      : M. J. Frisch, J. A. Pople and J. S. Binkley, J. Chem. Phys. 80, 3265 (1984).

================================================================================
                                        WARNINGS
                       Please study these warnings very carefully!
================================================================================


WARNING: Geometry Optimization
  ===> : Switching off AutoStart
         For restart on a previous wavefunction, please use MOREAD

WARNING: Post HF methods need fully converged wavefunctions
  ===> : Setting SCFConvForced true
         You can overwrite this default with %scf ConvForced false 


INFO   : the flag for use of LIBINT has been found!

================================================================================
                                       INPUT FILE
================================================================================
NAME = methane.inp
|  1> ! UHF MP2 6-311G(3df,3pd) Opt Freq NoFrozenCore TightOpt TightSCF Grid4 FinalGrid5 PrintBasis PrintMOs NBO
|  2> %maxcore 3000
|  3> 
|  4> *xyz 0 1
|  5> C        0.000000000      0.000000000      0.000000000
|  6> H       -0.625911000     -0.625911000      0.625911000
|  7> H        0.625911000     -0.625911000     -0.625911000
|  8> H       -0.625911000      0.625911000     -0.625911000
|  9> H        0.625911000      0.625911000      0.625911000
| 10> *
| 11> 
| 12> %pal
| 13>  nprocs 12
| 14> end
| 15> 
| 16>                          ****END OF INPUT****
================================================================================

                       *****************************
                       * Geometry Optimization Run *
                       *****************************

Geometry optimization settings:
Update method            Update   .... BFGS
Choice of coordinates    CoordSys .... Z-matrix Internals
Initial Hessian          InHess   .... Almoef's Model

Convergence Tolerances:
Energy Change            TolE     ....  1.0000e-06 Eh
Max. Gradient            TolMAXG  ....  1.0000e-04 Eh/bohr
RMS Gradient             TolRMSG  ....  3.0000e-05 Eh/bohr
Max. Displacement        TolMAXD  ....  1.0000e-03 bohr
RMS Displacement         TolRMSD  ....  6.0000e-04 bohr
Strict Convergence                ....  False
------------------------------------------------------------------------------
                        ORCA OPTIMIZATION COORDINATE SETUP
------------------------------------------------------------------------------

The optimization will be done in new redundant internal coordinates
Making redundant internal coordinates   ...  (new redundants) done
Evaluating the initial hessian          ...  (Almloef) done
Evaluating the coordinates              ...  done
Calculating the B-matrix                .... done
Calculating the G-matrix                .... done
Diagonalizing the G-matrix              .... done
The first mode is                       ....    1
The number of degrees of freedom        ....    9

    -----------------------------------------------------------------
                    Redundant Internal Coordinates


    -----------------------------------------------------------------
         Definition                    Initial Value    Approx d2E/dq
    -----------------------------------------------------------------
      1. B(H   1,C   0)                  1.0841         0.367977   
      2. B(H   2,C   0)                  1.0841         0.367977   
      3. B(H   3,C   0)                  1.0841         0.367977   
      4. B(H   4,C   0)                  1.0841         0.367977   
      5. A(H   1,C   0,H   3)          109.4712         0.292826   
      6. A(H   2,C   0,H   3)          109.4712         0.292826   
      7. A(H   1,C   0,H   4)          109.4712         0.292826   
      8. A(H   2,C   0,H   4)          109.4712         0.292826   
      9. A(H   3,C   0,H   4)          109.4712         0.292826   
     10. A(H   1,C   0,H   2)          109.4712         0.292826   
    -----------------------------------------------------------------

Number of atoms                         .... 5
Number of degrees of freedom            .... 10

         *************************************************************
         *                GEOMETRY OPTIMIZATION CYCLE   1            *
         *************************************************************
---------------------------------
CARTESIAN COORDINATES (ANGSTROEM)
---------------------------------
  C      0.000000    0.000000    0.000000
  H     -0.625911   -0.625911    0.625911
  H      0.625911   -0.625911   -0.625911
  H     -0.625911    0.625911   -0.625911
  H      0.625911    0.625911    0.625911

----------------------------
CARTESIAN COORDINATES (A.U.)
----------------------------
  NO LB      ZA    FRAG     MASS         X           Y           Z
   0 C     6.0000    0    12.011    0.000000    0.000000    0.000000
   1 H     1.0000    0     1.008   -1.182800   -1.182800    1.182800
   2 H     1.0000    0     1.008    1.182800   -1.182800   -1.182800
   3 H     1.0000    0     1.008   -1.182800    1.182800   -1.182800
   4 H     1.0000    0     1.008    1.182800    1.182800    1.182800

--------------------------------
INTERNAL COORDINATES (ANGSTROEM)
--------------------------------
 C      0   0   0     0.000000000000     0.00000000     0.00000000
 H      1   0   0     1.084109653016     0.00000000     0.00000000
 H      1   2   0     1.084109653016   109.47122063     0.00000000
 H      1   2   3     1.084109653016   109.47122063   120.00000000
 H      1   2   3     1.084109653016   109.47122063   240.00000000

---------------------------
INTERNAL COORDINATES (A.U.)
---------------------------
 C      0   0   0     0.000000000000     0.00000000     0.00000000
 H      1   0   0     2.048670343341     0.00000000     0.00000000
 H      1   2   0     2.048670343341   109.47122063     0.00000000
 H      1   2   3     2.048670343341   109.47122063   120.00000000
 H      1   2   3     2.048670343341   109.47122063   240.00000000

---------------------
BASIS SET INFORMATION
---------------------
There are 2 groups of distinct atoms

 Group   1 Type C   : 11s5p3d1f contracted to 4s3p3d1f pattern {6311/311/111/1}
 Group   2 Type H   : 5s3p1d contracted to 3s3p1d pattern {311/111/1}

Atom   0C    basis set group =>   1
Atom   1H    basis set group =>   2
Atom   2H    basis set group =>   2
Atom   3H    basis set group =>   2
Atom   4H    basis set group =>   2

-------------------------
BASIS SET IN INPUT FORMAT
-------------------------

 # Basis set for element : H 
 NewGTO H 
 S 3 
   1      33.8650000000      0.0254938145
   2       5.0947900000      0.1903731086
   3       1.1587900000      0.8521614860
 S 1 
   1       0.3258400000      1.0000000000
 S 1 
   1       0.1027410000      1.0000000000
 P 1 
   1       3.0000000000      1.0000000000
 P 1 
   1       0.7500000000      1.0000000000
 P 1 
   1       0.1875000000      1.0000000000
 D 1 
   1       1.0000000000      1.0000000000
  end;

 # Basis set for element : C 
 NewGTO C 
 S 6 
   1    4563.2400000000      0.0019666502
   2     682.0240000000      0.0152306019
   3     154.9730000000      0.0761269097
   4      44.4553000000      0.2608010331
   5      13.0290000000      0.6164620782
   6       1.8277300000      0.2210060280
 S 3 
   1      20.9642000000      0.1146600807
   2       4.8033100000      0.9199996477
   3       1.4593300000     -0.0030306821
 P 3 
   1      20.9642000000      0.0402486927
   2       4.8033100000      0.2375939567
   3       1.4593300000      0.8158538515
 S 1 
   1       0.4834560000      1.0000000000
 P 1 
   1       0.4834560000      1.0000000000
 S 1 
   1       0.1455850000      1.0000000000
 P 1 
   1       0.1455850000      1.0000000000
 D 1 
   1       2.5040000000      1.0000000000
 D 1 
   1       0.6260000000      1.0000000000
 D 1 
   1       0.1565000000      1.0000000000
 F 1 
   1       0.8000000000      1.0000000000
  end;



           ************************************************************
           *        Program running with 12 parallel MPI-processes    *
           *              working on a common directory               *
           ************************************************************
------------------------------------------------------------------------------
                           ORCA GTO INTEGRAL CALCULATION
------------------------------------------------------------------------------

                         BASIS SET STATISTICS AND STARTUP INFO

 # of primitive gaussian shells          ...   56
 # of primitive gaussian functions       ...  124
 # of contracted shells                  ...   39
 # of contracted basis functions         ...  103
 Highest angular momentum                ...    3
 Maximum contraction depth               ...    6
 Integral package used                   ... LIBINT
 Integral threshhold            Thresh   ...  2.500e-11
 Primitive cut-off              TCut     ...  2.500e-12


------------------------------ INTEGRAL EVALUATION ----------------------------


 * One electron integrals 
 Pre-screening matrix                    ... done
 Shell pair data                         ... done (   0.000 sec)



           ************************************************************
           *        Program running with 12 parallel MPI-processes    *
           *              working on a common directory               *
           ************************************************************
-------------------------------------------------------------------------------
                                 ORCA SCF
-------------------------------------------------------------------------------

------------
SCF SETTINGS
------------
Hamiltonian:
 Ab initio Hamiltonian  Method          .... Hartree-Fock(GTOs)


General Settings:
 Integral files         IntName         .... methane
 Hartree-Fock type      HFTyp           .... UHF
 Total Charge           Charge          ....    0
 Multiplicity           Mult            ....    1
 Number of Electrons    NEL             ....   10
 Basis Dimension        Dim             ....  103
 Nuclear Repulsion      ENuc            ....     13.5083883574 Eh

Convergence Acceleration:
 DIIS                   CNVDIIS         .... on
   Start iteration      DIISMaxIt       ....    12
   Startup error        DIISStart       ....  0.200000
   # of expansion vecs  DIISMaxEq       ....     5
   Bias factor          DIISBfac        ....   1.050
   Max. coefficient     DIISMaxC        ....  10.000
 Newton-Raphson         CNVNR           .... off
 SOSCF                  CNVSOSCF        .... off
 Level Shifting         CNVShift        .... on
   Level shift para.    LevelShift      ....    0.2500
   Turn off err/grad.   ShiftErr        ....    0.0010
 Zerner damping         CNVZerner       .... off
 Static damping         CNVDamp         .... on
   Fraction old density DampFac         ....    0.7000
   Max. Damping (<1)    DampMax         ....    0.9800
   Min. Damping (>=0)   DampMin         ....    0.0000
   Turn off err/grad.   DampErr         ....    0.1000
 Fernandez-Rico         CNVRico         .... off

SCF Procedure:
 Maximum # iterations   MaxIter         ....   125
 SCF integral mode      SCFMode         .... Direct
   Integral package                     .... LIBINT
 Reset frequency        DirectResetFreq ....    20
 Integral Threshold     Thresh          ....  2.500e-11 Eh
 Primitive CutOff       TCut            ....  2.500e-12 Eh

Convergence Tolerance:
 Convergence Check Mode ConvCheckMode   .... Total+1el-Energy
 Convergence forced     ConvForced      .... 1
 Energy Change          TolE            ....  1.000e-08 Eh
 1-El. energy change                    ....  1.000e-05 Eh
 DIIS Error             TolErr          ....  5.000e-07


Diagonalization of the overlap matrix:
Smallest eigenvalue                        ... 1.393e-03
Time for diagonalization                   ...    0.003 sec
Threshold for overlap eigenvalues          ... 1.000e-08
Number of eigenvalues below threshold      ... 0
Time for construction of square roots      ...    0.011 sec
Total time needed                          ...    0.014 sec

-------------------
DFT GRID GENERATION
-------------------

General Integration Accuracy     IntAcc      ...  4.670
Radial Grid Type                 RadialGrid  ... Gauss-Chebyshev
Angular Grid (max. acc.)         AngularGrid ... Lebedev-302
Angular grid pruning method      GridPruning ... 3 (G Style)
Weight generation scheme         WeightScheme... Becke
Basis function cutoff            BFCut       ...    1.0000e-11
Integration weight cutoff        WCut        ...    1.0000e-14
Grids for H and He will be reduced by one unit

# of grid points (after initial pruning)     ...  19788 (   0.0 sec)
# of grid points (after weights+screening)   ...  19276 (   0.0 sec)
nearest neighbour list constructed           ...    0.0 sec
Grid point re-assignment to atoms done       ...    0.0 sec
Grid point division into batches done        ...    0.1 sec
Reduced shell lists constructed in    0.1 sec

Total number of grid points                  ...    19276
Total number of batches                      ...      303
Average number of points per batch           ...       63
Average number of grid points per atom       ...     3855
Average number of shells per batch           ...    37.41 (95.92%)
Average number of basis functions per batch  ...    98.74 (95.86%)
Average number of large shells per batch     ...    36.52 (97.62%)
Average number of large basis fcns per batch ...    96.07 (97.30%)
Maximum spatial batch extension              ...   1.44,  1.38,  1.38 au
Average spatial batch extension              ...   0.09,  0.09,  0.09 au

Time for grid setup =    0.143 sec

------------------------------
INITIAL GUESS: MODEL POTENTIAL
------------------------------
Loading Hartree-Fock densities                     ... done
Calculating cut-offs                               ... done
Setting up the integral package                    ... done
Initializing the effective Hamiltonian             ... done
Starting the Coulomb interaction                   ... done (   0.0 sec)
Reading the grid                                   ... done
Mapping shells                                     ... done
Starting the XC term evaluation                    ... done (   0.0 sec)
Transforming the Hamiltonian                       ... done (   0.0 sec)
Diagonalizing the Hamiltonian                      ... done (   0.0 sec)
Back transforming the eigenvectors                 ... done (   0.0 sec)
Now organizing SCF variables                       ... done
                      ------------------
                      INITIAL GUESS DONE (   0.3 sec)
                      ------------------
--------------
SCF ITERATIONS
--------------
ITER       Energy         Delta-E        Max-DP      RMS-DP      [F,P]     Damp
               ***  Starting incremental Fock matrix formation  ***
  0    -40.0957810350   0.000000000000 0.03457163  0.00052635  0.3125249 0.7000
  1    -40.1382134764  -0.042432441419 0.02343718  0.00040116  0.1997899 0.7000
                               ***Turning on DIIS***
  2    -40.1634732506  -0.025259774120 0.01341318  0.00025695  0.1171194 0.7000
  3    -40.3438042155  -0.180330964928 0.01617871  0.00045891  0.0669438 0.0000
  4    -40.1848056367   0.158998578815 0.00489281  0.00007515  0.0109781 0.0000
  5    -40.2095673077  -0.024761671018 0.00091515  0.00001975  0.0029622 0.0000
  6    -40.2119686679  -0.002401360201 0.00028368  0.00001246  0.0009846 0.0000
  7    -40.2125669615  -0.000598293604 0.00004651  0.00000217  0.0001109 0.0000
  8    -40.2125841987  -0.000017237215 0.00000570  0.00000028  0.0000080 0.0000
                            ***DIIS convergence achieved***

               *****************************************************
               *                     SUCCESS                       *
               *           SCF CONVERGED AFTER   9 CYCLES          *
               *****************************************************


----------------
TOTAL SCF ENERGY
----------------

Total Energy       :          -40.21257327 Eh           -1094.23975 eV

Components:
Nuclear Repulsion  :           13.50838836 Eh             367.58193 eV
Electronic Energy  :          -53.72096162 Eh           -1461.82168 eV
One Electron Energy:          -79.86853907 Eh           -2173.33344 eV
Two Electron Energy:           26.14757745 Eh             711.51175 eV

Virial components:
Potential Energy   :          -80.40374555 Eh           -2187.89715 eV
Kinetic Energy     :           40.19117228 Eh            1093.65740 eV
Virial Ratio       :            2.00053248


---------------
SCF CONVERGENCE
---------------

  Last Energy change         ...    1.0933e-05  Tolerance :   1.0000e-08
  Last MAX-Density change    ...    5.2319e-07  Tolerance :   1.0000e-07
  Last RMS-Density change    ...    2.8260e-08  Tolerance :   5.0000e-09
  Last DIIS Error            ...    3.9839e-07  Tolerance :   5.0000e-07

             **** THE GBW FILE WAS UPDATED (methane.gbw) ****
             **** DENSITY FILE WAS UPDATED (methane.scfp) ****
             **** ENERGY FILE WAS UPDATED (methane.en.tmp) ****
----------------------
UHF SPIN CONTAMINATION
----------------------

Expectation value of <S**2>     :    -0.000000
Ideal value S*(S+1) for S=0.0   :     0.000000
Deviation                       :    -0.000000

             **** THE GBW FILE WAS UPDATED (methane.gbw) ****
             **** DENSITY FILE WAS UPDATED (methane.scfp) ****
----------------
ORBITAL ENERGIES
----------------
                 SPIN UP ORBITALS
  NO   OCC          E(Eh)            E(eV) 
   0   1.0000     -11.203304      -304.8574 
   1   1.0000      -0.944736       -25.7076 
   2   1.0000      -0.546217       -14.8633 
   3   1.0000      -0.546217       -14.8633 
   4   1.0000      -0.546217       -14.8633 
   5   0.0000       0.137875         3.7518 
   6   0.0000       0.194009         5.2793 
   7   0.0000       0.194009         5.2793 
   8   0.0000       0.194009         5.2793 
   9   0.0000       0.337907         9.1949 
  10   0.0000       0.337907         9.1949 
  11   0.0000       0.337907         9.1949 
  12   0.0000       0.413781        11.2596 
  13   0.0000       0.413781        11.2596 
  14   0.0000       0.500654        13.6235 
  15   0.0000       0.643976        17.5235 
  16   0.0000       0.643976        17.5235 
  17   0.0000       0.643976        17.5235 
  18   0.0000       0.644251        17.5310 
  19   0.0000       0.644251        17.5310 
  20   0.0000       0.644251        17.5310 
  21   0.0000       0.701456        19.0876 
  22   0.0000       0.701456        19.0876 
  23   0.0000       0.701456        19.0876 
  24   0.0000       0.857890        23.3444 
  25   0.0000       0.910634        24.7796 
  26   0.0000       0.910634        24.7796 
  27   0.0000       0.910634        24.7796 
  28   0.0000       0.918745        25.0003 
  29   0.0000       0.918745        25.0003 
  30   0.0000       0.993397        27.0317 
  31   0.0000       0.993397        27.0317 
  32   0.0000       0.993397        27.0317 
  33   0.0000       1.094836        29.7920 
  34   0.0000       1.604444        43.6591 
  35   0.0000       1.604444        43.6591 
  36   0.0000       1.905478        51.8507 
  37   0.0000       1.905478        51.8507 
  38   0.0000       1.905478        51.8507 
  39   0.0000       2.038023        55.4574 
  40   0.0000       2.038023        55.4574 
  41   0.0000       2.038023        55.4574 
  42   0.0000       2.331068        63.4316 
  43   0.0000       2.331068        63.4316 
  44   0.0000       2.331068        63.4316 
  45   0.0000       2.675338        72.7996 
  46   0.0000       2.675338        72.7996 
  47   0.0000       2.675338        72.7996 
  48   0.0000       2.740119        74.5624 
  49   0.0000       2.740119        74.5624 
  50   0.0000       2.741549        74.6013 
  51   0.0000       2.869702        78.0886 
  52   0.0000       2.869702        78.0886 
  53   0.0000       2.869702        78.0886 
  54   0.0000       2.893411        78.7337 
  55   0.0000       3.283391        89.3456 
  56   0.0000       3.283391        89.3456 
  57   0.0000       3.283391        89.3456 
  58   0.0000       3.316250        90.2397 
  59   0.0000       3.316250        90.2397 
  60   0.0000       3.316250        90.2397 
  61   0.0000       3.491930        95.0202 
  62   0.0000       3.491930        95.0202 
  63   0.0000       3.860422       105.0474 
  64   0.0000       3.860422       105.0474 
  65   0.0000       3.860422       105.0474 
  66   0.0000       4.283993       116.5734 
  67   0.0000       4.283993       116.5734 
  68   0.0000       4.283993       116.5734 
  69   0.0000       4.293491       116.8318 
  70   0.0000       4.600033       125.1733 
  71   0.0000       4.600033       125.1733 
  72   0.0000       4.600033       125.1733 
  73   0.0000       5.048961       137.3892 
  74   0.0000       5.048961       137.3892 
  75   0.0000       5.048961       137.3892 
  76   0.0000       5.148762       140.1049 
  77   0.0000       5.252857       142.9375 
  78   0.0000       5.252857       142.9375 
  79   0.0000       5.252857       142.9375 
  80   0.0000       5.323710       144.8655 
  81   0.0000       5.323710       144.8655 
  82   0.0000       5.677430       154.4907 
  83   0.0000       5.677430       154.4907 
  84   0.0000       5.677430       154.4907 
  85   0.0000       7.953435       216.4240 
  86   0.0000       7.953435       216.4240 
  87   0.0000       8.290432       225.5941 
  88   0.0000       8.290432       225.5941 
  89   0.0000       8.290432       225.5941 
  90   0.0000       8.762743       238.4464 
  91   0.0000       8.762743       238.4464 
  92   0.0000       8.762743       238.4464 
  93   0.0000       8.941560       243.3122 
  94   0.0000       8.941560       243.3122 
  95   0.0000       8.941560       243.3122 
  96   0.0000       9.142708       248.7857 
  97   0.0000       9.142708       248.7857 
  98   0.0000       9.734094       264.8782 
  99   0.0000      10.290150       280.0092 
 100   0.0000      10.290150       280.0092 
 101   0.0000      10.290150       280.0092 
 102   0.0000      27.416878       746.0512 

                 SPIN DOWN ORBITALS
  NO   OCC          E(Eh)            E(eV) 
   0   1.0000     -11.203304      -304.8574 
   1   1.0000      -0.944736       -25.7076 
   2   1.0000      -0.546217       -14.8633 
   3   1.0000      -0.546217       -14.8633 
   4   1.0000      -0.546217       -14.8633 
   5   0.0000       0.137875         3.7518 
   6   0.0000       0.194009         5.2793 
   7   0.0000       0.194009         5.2793 
   8   0.0000       0.194009         5.2793 
   9   0.0000       0.337907         9.1949 
  10   0.0000       0.337907         9.1949 
  11   0.0000       0.337907         9.1949 
  12   0.0000       0.413781        11.2596 
  13   0.0000       0.413781        11.2596 
  14   0.0000       0.500654        13.6235 
  15   0.0000       0.643976        17.5235 
  16   0.0000       0.643976        17.5235 
  17   0.0000       0.643976        17.5235 
  18   0.0000       0.644251        17.5310 
  19   0.0000       0.644251        17.5310 
  20   0.0000       0.644251        17.5310 
  21   0.0000       0.701456        19.0876 
  22   0.0000       0.701456        19.0876 
  23   0.0000       0.701456        19.0876 
  24   0.0000       0.857890        23.3444 
  25   0.0000       0.910634        24.7796 
  26   0.0000       0.910634        24.7796 
  27   0.0000       0.910634        24.7796 
  28   0.0000       0.918745        25.0003 
  29   0.0000       0.918745        25.0003 
  30   0.0000       0.993397        27.0317 
  31   0.0000       0.993397        27.0317 
  32   0.0000       0.993397        27.0317 
  33   0.0000       1.094836        29.7920 
  34   0.0000       1.604444        43.6591 
  35   0.0000       1.604444        43.6591 
  36   0.0000       1.905478        51.8507 
  37   0.0000       1.905478        51.8507 
  38   0.0000       1.905478        51.8507 
  39   0.0000       2.038023        55.4574 
  40   0.0000       2.038023        55.4574 
  41   0.0000       2.038023        55.4574 
  42   0.0000       2.331068        63.4316 
  43   0.0000       2.331068        63.4316 
  44   0.0000       2.331068        63.4316 
  45   0.0000       2.675338        72.7996 
  46   0.0000       2.675338        72.7996 
  47   0.0000       2.675338        72.7996 
  48   0.0000       2.740119        74.5624 
  49   0.0000       2.740119        74.5624 
  50   0.0000       2.741549        74.6013 
  51   0.0000       2.869702        78.0886 
  52   0.0000       2.869702        78.0886 
  53   0.0000       2.869702        78.0886 
  54   0.0000       2.893411        78.7337 
  55   0.0000       3.283391        89.3456 
  56   0.0000       3.283391        89.3456 
  57   0.0000       3.283391        89.3456 
  58   0.0000       3.316250        90.2397 
  59   0.0000       3.316250        90.2397 
  60   0.0000       3.316250        90.2397 
  61   0.0000       3.491930        95.0202 
  62   0.0000       3.491930        95.0202 
  63   0.0000       3.860422       105.0474 
  64   0.0000       3.860422       105.0474 
  65   0.0000       3.860422       105.0474 
  66   0.0000       4.283993       116.5734 
  67   0.0000       4.283993       116.5734 
  68   0.0000       4.283993       116.5734 
  69   0.0000       4.293491       116.8318 
  70   0.0000       4.600033       125.1733 
  71   0.0000       4.600033       125.1733 
  72   0.0000       4.600033       125.1733 
  73   0.0000       5.048961       137.3892 
  74   0.0000       5.048961       137.3892 
  75   0.0000       5.048961       137.3892 
  76   0.0000       5.148762       140.1049 
  77   0.0000       5.252857       142.9375 
  78   0.0000       5.252857       142.9375 
  79   0.0000       5.252857       142.9375 
  80   0.0000       5.323710       144.8655 
  81   0.0000       5.323710       144.8655 
  82   0.0000       5.677430       154.4907 
  83   0.0000       5.677430       154.4907 
  84   0.0000       5.677430       154.4907 
  85   0.0000       7.953435       216.4240 
  86   0.0000       7.953435       216.4240 
  87   0.0000       8.290432       225.5941 
  88   0.0000       8.290432       225.5941 
  89   0.0000       8.290432       225.5941 
  90   0.0000       8.762743       238.4464 
  91   0.0000       8.762743       238.4464 
  92   0.0000       8.762743       238.4464 
  93   0.0000       8.941560       243.3122 
  94   0.0000       8.941560       243.3122 
  95   0.0000       8.941560       243.3122 
  96   0.0000       9.142708       248.7857 
  97   0.0000       9.142708       248.7857 
  98   0.0000       9.734094       264.8782 
  99   0.0000      10.290150       280.0092 
 100   0.0000      10.290150       280.0092 
 101   0.0000      10.290150       280.0092 
 102   0.0000      27.416878       746.0512 
------------------
MOLECULAR ORBITALS
------------------
                      0         1         2         3         4         5   
                 -11.20330  -0.94474  -0.54622  -0.54622  -0.54622   0.13787
                   1.00000   1.00000   1.00000   1.00000   1.00000   0.00000
                  --------  --------  --------  --------  --------  --------
  0C   1s         0.563362 -0.103029 -0.000000  0.000000 -0.000000 -0.042642
  0C   2s         0.466150 -0.169531  0.000000  0.000000  0.000000 -0.082007
  0C   1pz        0.000000  0.000000  0.093807  0.161856  0.040765 -0.000000
  0C   1px        0.000000  0.000000  0.094509 -0.012963 -0.166009  0.000000
  0C   1py        0.000000 -0.000000 -0.137576  0.101457 -0.086245 -0.000000
  0C   3s         0.006538  0.418098 -0.000000  0.000000  0.000000  0.083082
  0C   2pz       -0.000000 -0.000000  0.135168  0.233222  0.058739  0.000000
  0C   2px       -0.000000 -0.000000  0.136180 -0.018679 -0.239205 -0.000000
  0C   2py       -0.000000  0.000000 -0.198237  0.146191 -0.124272 -0.000000
  0C   4s         0.005903  0.184077 -0.000000  0.000000 -0.000000  5.928515
  0C   3pz       -0.000000 -0.000000  0.079148  0.136564  0.034395  0.000000
  0C   3px       -0.000000 -0.000000  0.079741 -0.010938 -0.140068  0.000000
  0C   3py       -0.000000  0.000000 -0.116078  0.085603 -0.072768 -0.000000
  0C   1dz2      -0.000000  0.000000  0.000000 -0.000000  0.000000 -0.000000
  0C   1dxz       0.000000 -0.000000 -0.004308  0.003177 -0.002701  0.000000
  0C   1dyz       0.000000  0.000000  0.002960 -0.000406 -0.005199  0.000000
  0C   1dx2y2     0.000000 -0.000000  0.000000  0.000000  0.000000  0.000000
  0C   1dxy       0.000000  0.000000  0.002938  0.005069  0.001277 -0.000000
  0C   2dz2       0.000000 -0.000000  0.000000  0.000000  0.000000  0.000000
  0C   2dxz      -0.000000  0.000000 -0.015581  0.011490 -0.009768 -0.000000
  0C   2dyz      -0.000000 -0.000000  0.010704 -0.001468 -0.018801 -0.000000
  0C   2dx2y2     0.000000  0.000000 -0.000000 -0.000000 -0.000000 -0.000000
  0C   2dxy      -0.000000 -0.000000  0.010624  0.018331  0.004617  0.000000
  0C   3dz2      -0.000000 -0.000000 -0.000000 -0.000000 -0.000000  0.000000
  0C   3dxz      -0.000000  0.000000 -0.006882  0.005075 -0.004314 -0.000000
  0C   3dyz      -0.000000 -0.000000  0.004728 -0.000648 -0.008304  0.000000
  0C   3dx2y2     0.000000  0.000000  0.000000  0.000000  0.000000  0.000000
  0C   3dxy      -0.000000 -0.000000  0.004693  0.008097  0.002039  0.000000
  0C   1f0        0.000000  0.000000 -0.000670 -0.001155 -0.000291 -0.000000
  0C   1f+1      -0.000000 -0.000000  0.000413 -0.000057 -0.000726 -0.000000
  0C   1f-1      -0.000000  0.000000 -0.000601  0.000443 -0.000377 -0.000000
  0C   1f+2      -0.000000  0.000000 -0.000000 -0.000000 -0.000000  0.000000
  0C   1f-2       0.000899  0.004796 -0.000000  0.000000 -0.000000  0.057415
  0C   1f+3      -0.000000 -0.000000  0.000533 -0.000073 -0.000937 -0.000000
  0C   1f-3       0.000000 -0.000000  0.000776 -0.000572  0.000487  0.000000
  1H   1s         0.000285  0.081965  0.071466  0.038305  0.152994  0.016496
  1H   2s        -0.001723  0.118838  0.122242  0.065520  0.261695 -0.433073
  1H   3s        -0.000586  0.021927  0.066507  0.035647  0.142379 -1.379697
  1H   1pz       -0.000068 -0.001284 -0.000555  0.000433 -0.002237 -0.002252
  1H   1px        0.000068  0.001284  0.001789  0.000542  0.001416  0.002252
  1H   1py        0.000068  0.001284  0.000268  0.001292  0.001939  0.002252
  1H   2pz        0.000441 -0.008866 -0.002780  0.004673 -0.014792  0.025075
  1H   2px       -0.000441  0.008866  0.013182  0.003551  0.007874 -0.025075
  1H   2py       -0.000441  0.008866  0.000362  0.009871  0.012280 -0.025075
  1H   3pz        0.000290 -0.007787 -0.006906 -0.000988 -0.018677  0.245266
  1H   3px       -0.000290  0.007787  0.011486  0.004609  0.015631 -0.245266
  1H   3py       -0.000290  0.007787  0.005842  0.007392  0.017571 -0.245266
  1H   1dz2       0.000000 -0.000000 -0.000552 -0.001575  0.000652  0.000000
  1H   1dxz       0.000168 -0.001299 -0.002173  0.000326 -0.002881  0.007247
  1H   1dyz       0.000168 -0.001299 -0.000198 -0.000648 -0.003559  0.007247
  1H   1dx2y2    -0.000000 -0.000000  0.001536 -0.000757 -0.000528  0.000000
  1H   1dxy      -0.000168  0.001299  0.001801  0.001915  0.002494 -0.007247
  2H   1s         0.000285  0.081965  0.072200 -0.144252 -0.062932  0.016496
  2H   2s        -0.001723  0.118838  0.123497 -0.246742 -0.107645 -0.433073
  2H   3s        -0.000586  0.021927  0.067190 -0.134243 -0.058565 -1.379697
  2H   1pz        0.000068  0.001284  0.001796 -0.001301 -0.000763  0.002252
  2H   1px       -0.000068 -0.001284 -0.000563  0.002276 -0.000058 -0.002252
  2H   1py        0.000068  0.001284  0.000280 -0.001696 -0.001595  0.002252
  2H   2pz       -0.000441  0.008866  0.013225 -0.007129 -0.004759 -0.025075
  2H   2px        0.000441 -0.008866 -0.002823  0.015354 -0.002159  0.025075
  2H   2py       -0.000441  0.008866  0.000444 -0.010466 -0.011775 -0.025075
  2H   3pz       -0.000290  0.007787  0.011563 -0.014608 -0.007099 -0.245266
  2H   3px        0.000290 -0.007787 -0.006983  0.018230  0.004053  0.245266
  2H   3py       -0.000290  0.007787  0.005936 -0.016077 -0.010188 -0.245266
  2H   1dz2      -0.000000 -0.000000  0.001603  0.000800  0.000007  0.000000
  2H   1dxz       0.000168 -0.001299 -0.002184  0.002887  0.000149  0.007247
  2H   1dyz      -0.000168  0.001299  0.001817 -0.002134 -0.002296 -0.007247
  2H   1dx2y2     0.000000 -0.000000  0.000285 -0.000586  0.001669  0.000000
  2H   1dxy       0.000168 -0.001299 -0.000215  0.003401  0.001230  0.007247
  3H   1s         0.000285  0.081965 -0.170158 -0.024768  0.020362  0.016496
  3H   2s        -0.001723  0.118838 -0.291054 -0.042365  0.034830 -0.433073
  3H   3s        -0.000586  0.021927 -0.158352 -0.023049  0.018950 -1.379697
  3H   1pz        0.000068  0.001284 -0.002170  0.000655  0.000600  0.002252
  3H   1px        0.000068  0.001284 -0.002166 -0.000490 -0.000754  0.002252
  3H   1py       -0.000068 -0.001284  0.001884  0.001070 -0.000898 -0.002252
  3H   2pz       -0.000441  0.008866 -0.013774  0.006181  0.004520 -0.025075
  3H   2px       -0.000441  0.008866 -0.013736 -0.003475 -0.006902 -0.025075
  3H   2py        0.000441 -0.008866  0.011357  0.008363 -0.007032  0.025075
  3H   3pz       -0.000290  0.007787 -0.019594  0.000752  0.003609 -0.245266
  3H   3px       -0.000290  0.007787 -0.019577 -0.003499 -0.001420 -0.245266
  3H   3py        0.000290 -0.007787  0.018529  0.005652 -0.004715  0.245266
  3H   1dz2      -0.000000 -0.000000 -0.000170  0.001674  0.000616  0.000000
  3H   1dxz      -0.000168  0.001299 -0.003558  0.000516 -0.000448 -0.007247
  3H   1dyz       0.000168 -0.001299  0.003192  0.000237 -0.001698  0.007247
  3H   1dx2y2    -0.000000  0.000000 -0.000285  0.000586 -0.001669 -0.000000
  3H   1dxy       0.000168 -0.001299  0.003186  0.001725  0.000061  0.007247
  4H   1s         0.000285  0.081965  0.026493  0.130715 -0.110425  0.016496
  4H   2s        -0.001723  0.118838  0.045315  0.223587 -0.188880 -0.433073
  4H   3s        -0.000586  0.021927  0.024654  0.121645 -0.102763 -1.379697
  4H   1pz       -0.000068 -0.001284  0.000181 -0.001079  0.002074 -0.002252
  4H   1px       -0.000068 -0.001284  0.000186 -0.002224  0.000720 -0.002252
  4H   1py       -0.000068 -0.001284 -0.001335 -0.001475  0.001242 -0.002252
  4H   2pz        0.000441 -0.008866  0.002230 -0.005621  0.014553  0.025075
  4H   2px        0.000441 -0.008866  0.002269 -0.015278  0.003132  0.025075
  4H   2py        0.000441 -0.008866 -0.010551 -0.008958  0.007538  0.025075
  4H   3pz        0.000290 -0.007787 -0.001124 -0.012868  0.015188  0.245266
  4H   3px        0.000290 -0.007787 -0.001107 -0.017120  0.010158  0.245266
  4H   3py        0.000290 -0.007787 -0.006752 -0.014337  0.012099  0.245266
  4H   1dz2       0.000000 -0.000000 -0.000881 -0.000899 -0.001275  0.000000
  4H   1dxz      -0.000168  0.001299 -0.000799  0.002697 -0.002283 -0.007247
  4H   1dyz      -0.000168  0.001299  0.001176  0.001724 -0.002962 -0.007247
  4H   1dx2y2     0.000000  0.000000 -0.001536  0.000757  0.000528 -0.000000
  4H   1dxy      -0.000168  0.001299  0.001170  0.003211 -0.001202 -0.007247
                      6         7         8         9        10        11   
                   0.19401   0.19401   0.19401   0.33791   0.33791   0.33791
                   0.00000   0.00000   0.00000   0.00000   0.00000   0.00000
                  --------  --------  --------  --------  --------  --------
  0C   1s        -0.000000  0.000000 -0.000000  0.000000  0.000000 -0.000000
  0C   2s        -0.000000  0.000000 -0.000000  0.000000  0.000000  0.000000
  0C   1pz       -0.007776 -0.078268 -0.001870  0.093107 -0.013750 -0.004665
  0C   1px       -0.056240  0.004277  0.054851  0.004666 -0.000335  0.094116
  0C   1py        0.054466 -0.006758  0.056371  0.013750  0.093223 -0.000350
  0C   3s         0.000000  0.000000  0.000000  0.000000 -0.000000  0.000000
  0C   2pz       -0.039775 -0.400368 -0.009567 -0.247237  0.036513  0.012386
  0C   2px       -0.287686  0.021876  0.280583 -0.012389  0.000890 -0.249916
  0C   2py        0.278610 -0.034570  0.288357 -0.036512 -0.247545  0.000929
  0C   4s        -0.000000  0.000000 -0.000000  0.000000  0.000000 -0.000000
  0C   3pz       -0.323127 -3.252515 -0.077723 -1.413467  0.208746  0.070814
  0C   3px       -2.337102  0.177714  2.279403 -0.070830  0.005086 -1.428788
  0C   3py        2.263371 -0.280837  2.342560 -0.208740 -1.415231  0.005311
  0C   1dz2       0.000000  0.000000  0.000000  0.000000 -0.000000  0.000000
  0C   1dxz      -0.005071  0.000629 -0.005248 -0.000534 -0.003619  0.000014
  0C   1dyz       0.005236 -0.000398 -0.005107 -0.000181  0.000013 -0.003653
  0C   1dx2y2    -0.000000  0.000000 -0.000000 -0.000000  0.000000 -0.000000
  0C   1dxy       0.000724  0.007287  0.000174 -0.003614  0.000534  0.000181
  0C   2dz2      -0.000000 -0.000000 -0.000000 -0.000000  0.000000  0.000000
  0C   2dxz       0.126374 -0.015680  0.130796 -0.029329 -0.198848  0.000746
  0C   2dyz      -0.130491  0.009923  0.127269 -0.009952  0.000715 -0.200752
  0C   2dx2y2     0.000000 -0.000000  0.000000 -0.000000 -0.000000  0.000000
  0C   2dxy      -0.018042 -0.181603 -0.004340 -0.198600  0.029330  0.009950
  0C   3dz2       0.000000  0.000000  0.000000  0.000000  0.000000 -0.000000
  0C   3dxz       0.445556 -0.055284  0.461145 -0.110345 -0.748121  0.002807
  0C   3dyz      -0.460070  0.034984  0.448712 -0.037442  0.002688 -0.755288
  0C   3dx2y2    -0.000000  0.000000 -0.000000  0.000000  0.000000 -0.000000
  0C   3dxy      -0.063609 -0.640274 -0.015300 -0.747189  0.110348  0.037434
  0C   1f0        0.004280  0.043086  0.001030  0.048885 -0.007220 -0.002449
  0C   1f+1      -0.018959  0.001442  0.018491 -0.001500  0.000108 -0.030260
  0C   1f-1       0.018361 -0.002278  0.019003 -0.004421 -0.029973  0.000112
  0C   1f+2      -0.000000  0.000000 -0.000000  0.000000  0.000000  0.000000
  0C   1f-2      -0.000000  0.000000 -0.000000  0.000000  0.000000 -0.000000
  0C   1f+3      -0.024476  0.001861  0.023871 -0.001937  0.000139 -0.039066
  0C   1f-3      -0.023704  0.002941 -0.024533  0.005707  0.038695 -0.000145
  1H   1s        -0.002618 -0.033062 -0.049337 -0.054344  0.077588  0.071616
  1H   2s         0.044882  0.566767  0.845759  0.322637 -0.460637 -0.425184
  1H   3s         0.208770  2.636367  3.934122  0.664452 -0.948653 -0.875639
  1H   1pz        0.000066  0.001236  0.004140  0.006006  0.000392  0.000966
  1H   1px       -0.001345 -0.002714 -0.003081  0.001350 -0.001452  0.005764
  1H   1py        0.000866 -0.002934 -0.003051  0.002034  0.005587 -0.001343
  1H   2pz       -0.003204 -0.040115 -0.057902 -0.054515  0.056047  0.050266
  1H   2px        0.002112  0.038853  0.058805  0.036643 -0.053472 -0.066617
  1H   2py        0.004000  0.038665  0.058831  0.034982 -0.070574 -0.049349
  1H   3pz       -0.019956 -0.274782 -0.541394  0.044994  0.331469  0.332611
  1H   3px        0.093121  0.359348  0.480841  0.279635 -0.378236 -0.035609
  1H   3py       -0.033406  0.371960  0.479104  0.309797 -0.067600 -0.349260
  1H   1dz2       0.000651  0.005979 -0.004041  0.001743  0.000557  0.000719
  1H   1dxz      -0.001215 -0.017317 -0.025651 -0.013347  0.022113  0.018071
  1H   1dyz      -0.001530 -0.017285 -0.025656 -0.013593  0.019579  0.020630
  1H   1dx2y2    -0.007210  0.000719 -0.000099  0.000134  0.001380 -0.001394
  1H   1dxy       0.001348  0.017074  0.025807  0.016242 -0.019961 -0.018207
  2H   1s        -0.044903  0.038958  0.000153  0.074352  0.058066 -0.072125
  2H   2s         0.769755 -0.667847 -0.002621 -0.441427 -0.344739  0.428206
  2H   3s         3.580581 -3.106546 -0.012193 -0.909091 -0.709968  0.881863
  2H   1pz       -0.003957  0.001735 -0.000024  0.005638 -0.002102  0.000975
  2H   1px        0.002678 -0.003213  0.001083  0.001718  0.001043  0.005755
  2H   1py       -0.002714  0.003163  0.001139 -0.000333  0.005946  0.001300
  2H   2pz        0.052537 -0.047031 -0.000211 -0.068320 -0.037551  0.050617
  2H   2px       -0.053628  0.045769  0.001115  0.050448  0.040125 -0.066968
  2H   2py        0.053598 -0.045812  0.000782 -0.053814 -0.057104  0.049828
  2H   3pz        0.503574 -0.339741  0.000453 -0.052258 -0.327892  0.335085
  2H   3px       -0.430409  0.424307 -0.061006  0.376888  0.281125 -0.038084
  2H   3py        0.432437 -0.421471 -0.066112 -0.315743  0.027286  0.349411
  2H   1dz2      -0.004747 -0.005471 -0.000198 -0.001509  0.001031 -0.000725
  2H   1dxz      -0.023337  0.020363  0.000241  0.019144  0.017185 -0.018218
  2H   1dyz       0.023332 -0.020370  0.000076 -0.018645 -0.014669  0.020759
  2H   1dx2y2     0.000116  0.000162 -0.007243  0.000272  0.001370  0.001383
  2H   1dxy      -0.023515  0.020159  0.000075  0.021293  0.014287 -0.018335
  3H   1s         0.051688  0.029331  0.001479  0.061133 -0.078075  0.065337
  3H   2s        -0.886055 -0.502804 -0.025353 -0.362945  0.463531 -0.387907
  3H   3s        -4.121562 -2.338836 -0.117931 -0.747463  0.954614 -0.798871
  3H   1pz        0.004221  0.000920  0.000088  0.005881  0.000401 -0.001552
  3H   1px        0.003253  0.002569  0.001221 -0.000773  0.001411  0.005880
  3H   1py       -0.003288 -0.002618  0.001001  0.002159  0.005578  0.001175
  3H   2pz       -0.060760 -0.035738 -0.001767 -0.059199  0.056383 -0.044228
  3H   2px       -0.061586 -0.034331 -0.000799 -0.043033  0.053931 -0.062285
  3H   2py        0.061556  0.034288  0.002696  0.039667 -0.070910  0.045145
  3H   3pz       -0.560541 -0.233676 -0.014156  0.011994  0.333839 -0.333068
  3H   3px       -0.505150 -0.328017 -0.078984 -0.281652  0.378381 -0.005091
  3H   3py        0.507178  0.330853 -0.048134  0.342797 -0.069970  0.316418
  3H   1dz2       0.003578 -0.006300 -0.000084 -0.001664 -0.000563  0.000884
  3H   1dxz      -0.026887 -0.015364 -0.000613 -0.015061  0.022237 -0.016505
  3H   1dyz       0.026882  0.015357  0.000930  0.015560 -0.019720  0.019045
  3H   1dx2y2    -0.000116 -0.000162  0.007243 -0.000272 -0.001370 -0.001383
  3H   1dxy       0.027020  0.015122  0.000768  0.017956 -0.020084  0.016369
  4H   1s        -0.004166 -0.035227  0.047705 -0.081141 -0.057579 -0.064828
  4H   2s         0.071419  0.603883 -0.817785  0.481735  0.341845  0.384885
  4H   3s         0.332211  2.809015 -3.803998  0.992103  0.704007  0.792647
  4H   1pz        0.000197  0.001419 -0.004076  0.005513 -0.002093 -0.001543
  4H   1px       -0.000771  0.003068 -0.002943 -0.001141 -0.001084  0.005889
  4H   1py        0.001441  0.002847 -0.002913 -0.000458  0.005955 -0.001218
  4H   2pz       -0.005019 -0.042655  0.055924 -0.073004 -0.037214 -0.043877
  4H   2px       -0.005846 -0.041247  0.056891 -0.056838 -0.039666 -0.061933
  4H   2py       -0.003958 -0.041435  0.056917 -0.058498 -0.056768 -0.044666
  4H   3pz       -0.037011 -0.298635  0.527691 -0.085259 -0.325523 -0.330593
  4H   3px        0.018380 -0.392976  0.462863 -0.378905 -0.280981 -0.002617
  4H   3py       -0.108147 -0.380365  0.461126 -0.348743  0.029655 -0.316267
  4H   1dz2       0.000518  0.005792  0.004322  0.001429 -0.001025 -0.000878
  4H   1dxz       0.002335  0.018411 -0.024798  0.020858  0.017062  0.016357
  4H   1dyz       0.002019  0.018442 -0.024802  0.020612  0.014528  0.018916
  4H   1dx2y2     0.007210 -0.000719  0.000099 -0.000134 -0.001380  0.001394
  4H   1dxy       0.002157  0.018207 -0.024964  0.023007  0.014164  0.016240
                     12        13        14        15        16        17   
                   0.41378   0.41378   0.50065   0.64398   0.64398   0.64398
                   0.00000   0.00000   0.00000   0.00000   0.00000   0.00000
                  --------  --------  --------  --------  --------  --------
  0C   1s        -0.000000  0.000000 -0.057155 -0.000000 -0.000000  0.000000
  0C   2s        -0.000000  0.000000 -0.087916 -0.000000 -0.000000  0.000000
  0C   1pz       -0.000000  0.000000  0.000000 -0.000000 -0.000000  0.000000
  0C   1px        0.000000  0.000000 -0.000000  0.000000  0.000000 -0.000000
  0C   1py        0.000000  0.000000 -0.000000  0.000000  0.000000 -0.000000
  0C   3s         0.000000 -0.000000  0.349864  0.000000 -0.000000 -0.000000
  0C   2pz        0.000000 -0.000000 -0.000000 -0.000000 -0.000000  0.000000
  0C   2px       -0.000000 -0.000000  0.000000  0.000000  0.000000 -0.000000
  0C   2py        0.000000  0.000000  0.000000  0.000000  0.000000 -0.000000
  0C   4s        -0.000000  0.000000-10.113000  0.000000 -0.000000 -0.000000
  0C   3pz        0.000000 -0.000000 -0.000000  0.000000  0.000000 -0.000000
  0C   3px       -0.000000  0.000000  0.000000 -0.000000 -0.000000  0.000000
  0C   3py        0.000000 -0.000000  0.000000 -0.000000 -0.000000  0.000000
  0C   1dz2       0.011093 -0.002460  0.000000  0.000000  0.000000  0.000000
  0C   1dxz      -0.000000  0.000000 -0.000000  0.000000  0.000000 -0.000000
  0C   1dyz       0.000000  0.000000 -0.000000  0.000000  0.000000 -0.000000
  0C   1dx2y2    -0.002460 -0.011093 -0.000000 -0.000000  0.000000 -0.000000
  0C   1dxy      -0.000000  0.000000  0.000000 -0.000000 -0.000000  0.000000
  0C   2dz2       0.013192 -0.002925 -0.000000 -0.000000 -0.000000  0.000000
  0C   2dxz       0.000000  0.000000  0.000000 -0.000000 -0.000000  0.000000
  0C   2dyz      -0.000000 -0.000000  0.000000 -0.000000 -0.000000  0.000000
  0C   2dx2y2    -0.002925 -0.013192  0.000000  0.000000 -0.000000  0.000000
  0C   2dxy       0.000000 -0.000000 -0.000000  0.000000  0.000000 -0.000000
  0C   3dz2      -0.063871  0.014164 -0.000000  0.000000  0.000000  0.000000
  0C   3dxz       0.000000  0.000000  0.000000 -0.000000  0.000000 -0.000000
  0C   3dyz      -0.000000 -0.000000  0.000000  0.000000  0.000000 -0.000000
  0C   3dx2y2     0.014164  0.063871 -0.000000 -0.000000  0.000000 -0.000000
  0C   3dxy      -0.000000 -0.000000 -0.000000 -0.000000  0.000000  0.000000
  0C   1f0       -0.000000  0.000000  0.000000 -0.000000 -0.000000  0.000000
  0C   1f+1      -0.000000 -0.000000  0.000000  0.000701 -0.004563  0.006691
  0C   1f-1       0.000000  0.000000  0.000000 -0.004807 -0.005640 -0.003342
  0C   1f+2      -0.000000 -0.000000 -0.000000  0.008244 -0.004640 -0.004028
  0C   1f-2      -0.000000  0.000000 -0.064438  0.000000  0.000000 -0.000000
  0C   1f+3      -0.000000 -0.000000  0.000000 -0.000543  0.003534 -0.005183
  0C   1f-3      -0.000000 -0.000000 -0.000000 -0.003723 -0.004368 -0.002589
  1H   1s        -0.000000  0.000000 -0.077346  0.000000  0.000000 -0.000000
  1H   2s        -0.000000 -0.000000  0.642640 -0.000000 -0.000000  0.000000
  1H   3s         0.000000 -0.000000  1.808629 -0.000000 -0.000000  0.000000
  1H   1pz        0.007969 -0.001767 -0.002425  0.004801  0.011931 -0.003917
  1H   1px        0.005515  0.006018  0.002425 -0.002001  0.010885  0.007632
  1H   1py        0.002454 -0.007785  0.002425  0.006802  0.001046 -0.011549
  1H   2pz       -0.025072  0.005560 -0.029414 -0.025126 -0.062434  0.020496
  1H   2px       -0.017351 -0.018933  0.029414  0.010470 -0.056962 -0.039939
  1H   2py       -0.007721  0.024493  0.029414 -0.035596 -0.005473  0.060435
  1H   3pz        0.432406 -0.095892 -0.762684  0.358805  0.891585 -0.292686
  1H   3px        0.299248  0.326529  0.762684 -0.149521  0.813436  0.570348
  1H   3py        0.133158 -0.422421  0.762684  0.508327  0.078150 -0.863034
  1H   1dz2      -0.003976  0.000882 -0.000000 -0.001960 -0.004870  0.001599
  1H   1dxz       0.000841 -0.002668 -0.013255  0.002768  0.000426 -0.004700
  1H   1dyz       0.001890  0.002062 -0.013255 -0.000814  0.004430  0.003106
  1H   1dx2y2     0.000882  0.003976 -0.000000 -0.002074  0.002319  0.004520
  1H   1dxy       0.002731 -0.000606  0.013255  0.001954  0.004856 -0.001594
  2H   1s         0.000000  0.000000 -0.077346 -0.000000 -0.000000  0.000000
  2H   2s         0.000000 -0.000000  0.642640  0.000000  0.000000 -0.000000
  2H   3s         0.000000 -0.000000  1.808629  0.000000  0.000000 -0.000000
  2H   1pz       -0.007969  0.001767  0.002425 -0.006441 -0.001259 -0.011733
  2H   1px       -0.005515 -0.006018 -0.002425 -0.013244 -0.002305 -0.000184
  2H   1py        0.002454 -0.007785  0.002425 -0.006802 -0.001046  0.011549
  2H   2pz        0.025072 -0.005560  0.029414  0.033707  0.006591  0.061399
  2H   2px        0.017351  0.018933 -0.029414  0.069304  0.012063  0.000964
  2H   2py       -0.007721  0.024493  0.029414  0.035596  0.005473 -0.060435
  2H   3pz       -0.432406  0.095892  0.762684 -0.481353 -0.094118 -0.876797
  2H   3px       -0.299248 -0.326529 -0.762684 -0.989679 -0.172268 -0.013763
  2H   3py        0.133158 -0.422421  0.762684 -0.508327 -0.078150  0.863034
  2H   1dz2      -0.003976  0.000882 -0.000000 -0.002629 -0.000514 -0.004789
  2H   1dxz       0.000841 -0.002668 -0.013255 -0.002768 -0.000426  0.004700
  2H   1dyz      -0.001890 -0.002062  0.013255 -0.005390 -0.000938 -0.000075
  2H   1dx2y2     0.000882  0.003976 -0.000000  0.004724  0.000790 -0.002678
  2H   1dxy      -0.002731  0.000606 -0.013255 -0.002622 -0.000513 -0.004775
  3H   1s         0.000000  0.000000 -0.077346 -0.000000  0.000000  0.000000
  3H   2s        -0.000000 -0.000000  0.642640  0.000000 -0.000000 -0.000000
  3H   3s         0.000000 -0.000000  1.808629  0.000000 -0.000000 -0.000000
  3H   1pz       -0.007969  0.001767  0.002425  0.006441  0.001259  0.011733
  3H   1px        0.005515  0.006018  0.002425  0.002001 -0.010885 -0.007632
  3H   1py       -0.002454  0.007785 -0.002425  0.008442 -0.009626  0.004101
  3H   2pz        0.025072 -0.005560  0.029414 -0.033707 -0.006591 -0.061399
  3H   2px       -0.017351 -0.018933  0.029414 -0.010470  0.056962  0.039939
  3H   2py        0.007721 -0.024493 -0.029414 -0.044178  0.050371 -0.021459
  3H   3pz       -0.432406  0.095892  0.762684  0.481353  0.094118  0.876797
  3H   3px        0.299248  0.326529  0.762684  0.149521 -0.813436 -0.570348
  3H   3py       -0.133158  0.422421 -0.762684  0.630874 -0.719318  0.306449
  3H   1dz2      -0.003976  0.000882 -0.000000  0.002629  0.000514  0.004789
  3H   1dxz      -0.000841  0.002668  0.013255  0.003436 -0.003918  0.001669
  3H   1dyz       0.001890  0.002062 -0.013255  0.000814 -0.004430 -0.003106
  3H   1dx2y2     0.000882  0.003976  0.000000  0.002461 -0.004833 -0.000832
  3H   1dxy      -0.002731  0.000606 -0.013255  0.002622  0.000513  0.004775
  4H   1s        -0.000000  0.000000 -0.077346 -0.000000 -0.000000  0.000000
  4H   2s        -0.000000 -0.000000  0.642640  0.000000  0.000000 -0.000000
  4H   3s         0.000000 -0.000000  1.808629  0.000000  0.000000 -0.000000
  4H   1pz        0.007969 -0.001767 -0.002425 -0.004801 -0.011931  0.003917
  4H   1px       -0.005515 -0.006018 -0.002425  0.013244  0.002305  0.000184
  4H   1py       -0.002454  0.007785 -0.002425 -0.008442  0.009626 -0.004101
  4H   2pz       -0.025072  0.005560 -0.029414  0.025126  0.062434 -0.020496
  4H   2px        0.017351  0.018933 -0.029414 -0.069304 -0.012063 -0.000964
  4H   2py        0.007721 -0.024493 -0.029414  0.044178 -0.050371  0.021459
  4H   3pz        0.432406 -0.095892 -0.762684 -0.358805 -0.891585  0.292686
  4H   3px       -0.299248 -0.326529 -0.762684  0.989679  0.172268  0.013763
  4H   3py       -0.133158  0.422421 -0.762684 -0.630874  0.719318 -0.306449
  4H   1dz2      -0.003976  0.000882 -0.000000  0.001960  0.004870 -0.001599
  4H   1dxz      -0.000841  0.002668  0.013255 -0.003436  0.003918 -0.001669
  4H   1dyz      -0.001890 -0.002062  0.013255  0.005390  0.000938  0.000075
  4H   1dx2y2     0.000882  0.003976 -0.000000 -0.005110  0.001725 -0.001010
  4H   1dxy       0.002731 -0.000606  0.013255 -0.001954 -0.004856  0.001594
                     18        19        20        21        22        23   
                   0.64425   0.64425   0.64425   0.70146   0.70146   0.70146
                   0.00000   0.00000   0.00000   0.00000   0.00000   0.00000
                  --------  --------  --------  --------  --------  --------
  0C   1s        -0.000000  0.000000 -0.000000 -0.000000 -0.000000 -0.000000
  0C   2s        -0.000000  0.000000 -0.000000 -0.000000  0.000000  0.000000
  0C   1pz        0.200525 -0.006087 -0.015840  0.079597  0.018588  0.020449
  0C   1px        0.015626  0.139487  0.144213  0.016677 -0.082025  0.009648
  0C   1py        0.006617 -0.144930  0.139463  0.022036 -0.005067 -0.081167
  0C   3s         0.000000 -0.000000  0.000000 -0.000000  0.000000  0.000000
  0C   2pz        0.072911 -0.002213 -0.005759 -0.027900 -0.006515 -0.007168
  0C   2px        0.005682  0.050718  0.052436 -0.005845  0.028751 -0.003382
  0C   2py        0.002406 -0.052697  0.050709 -0.007724  0.001776  0.028450
  0C   4s        -0.000000 -0.000000  0.000000  0.000000 -0.000000 -0.000000
  0C   3pz       -3.872593  0.117562  0.305907  0.884987  0.206668  0.227362
  0C   3px       -0.301779 -2.693808 -2.785086  0.185416 -0.911988  0.107266
  0C   3py       -0.127786  2.798920 -2.693343  0.245003 -0.056333 -0.902445
  0C   1dz2       0.000000 -0.000000 -0.000000 -0.000000  0.000000  0.000000
  0C   1dxz       0.000545 -0.011936  0.011486  0.000556 -0.000128 -0.002050
  0C   1dyz       0.001287  0.011488  0.011877  0.000421 -0.002071  0.000244
  0C   1dx2y2     0.000000 -0.000000  0.000000  0.000000 -0.000000  0.000000
  0C   1dxy       0.016515 -0.000501 -0.001305  0.002010  0.000469  0.000516
  0C   2dz2      -0.000000 -0.000000  0.000000  0.000000 -0.000000 -0.000000
  0C   2dxz      -0.007308  0.160058 -0.154020 -0.034473  0.007926  0.126978
  0C   2dyz      -0.017257 -0.154047 -0.159266 -0.026089  0.128321 -0.015093
  0C   2dx2y2     0.000000  0.000000 -0.000000 -0.000000  0.000000 -0.000000
  0C   2dxy      -0.221456  0.006723  0.017493 -0.124522 -0.029079 -0.031991
  0C   3dz2       0.000000 -0.000000 -0.000000 -0.000000  0.000000  0.000000
  0C   3dxz       0.000272 -0.005955  0.005730 -0.703789  0.161820  2.592341
  0C   3dyz       0.000642  0.005731  0.005926 -0.532621  2.619753 -0.308131
  0C   3dx2y2     0.000000 -0.000000  0.000000  0.000000 -0.000000  0.000000
  0C   3dxy       0.008239 -0.000250 -0.000651 -2.542190 -0.593670 -0.653116
  0C   1f0        0.033828 -0.001027 -0.002672  0.050002  0.011677  0.012846
  0C   1f+1      -0.001614 -0.014410 -0.014898 -0.006415  0.031554 -0.003711
  0C   1f-1      -0.000684  0.014972 -0.014407 -0.008477  0.001949  0.031224
  0C   1f+2       0.000000  0.000000 -0.000000 -0.000000 -0.000000  0.000000
  0C   1f-2       0.000000 -0.000000  0.000000  0.000000 -0.000000 -0.000000
  0C   1f+3      -0.002084 -0.018603 -0.019233 -0.008282  0.040736 -0.004791
  0C   1f-3       0.000882 -0.019329  0.018599  0.010944 -0.002516 -0.040310
  1H   1s        -0.020741  0.000075  0.034845 -0.005337 -0.013796 -0.012006
  1H   2s         0.579337 -0.002095 -0.973295  0.372163  0.961983  0.837172
  1H   3s         2.609561 -0.009437 -4.384100  0.330433  0.854120  0.743303
  1H   1pz       -0.006466  0.000193  0.000684 -0.006956  0.005579  0.004317
  1H   1px       -0.000387 -0.004423 -0.004754 -0.005163  0.002407 -0.008106
  1H   1py       -0.000102  0.004594 -0.004603 -0.005837 -0.007281  0.003326
  1H   2pz       -0.012679 -0.000985  0.083008  0.020439 -0.082258 -0.068502
  1H   2px        0.054225  0.026625 -0.058333  0.049051  0.036469  0.090226
  1H   2py        0.052493 -0.028042 -0.059247  0.052919  0.092018  0.024676
  1H   3pz       -0.798371  0.003891  1.281198 -1.247392  0.410274  0.274063
  1H   3px        0.757923 -0.028853 -1.305220 -0.622232  0.821676 -0.858544
  1H   3py        0.759609  0.024369 -1.304332 -0.726310 -0.672858  0.905073
  1H   1dz2       0.003390 -0.000141  0.002018  0.018609 -0.004694 -0.002879
  1H   1dxz      -0.023139  0.002495  0.036368 -0.004551 -0.012393 -0.011565
  1H   1dyz      -0.023289 -0.002238  0.036289 -0.004605 -0.013175 -0.010642
  1H   1dx2y2    -0.000125 -0.003945 -0.000066  0.000873  0.012534 -0.014790
  1H   1dxy       0.019692  0.000018 -0.038425  0.005583  0.012530  0.010948
  2H   1s         0.022281 -0.033797 -0.002395  0.011090  0.012473 -0.009186
  2H   2s        -0.622341  0.944009  0.066910 -0.773339 -0.869742  0.640522
  2H   3s        -2.803267  4.252187  0.301389 -0.686627 -0.772222  0.568703
  2H   1pz       -0.006474  0.000369  0.000515 -0.003654  0.004820 -0.007847
  2H   1px       -0.000379 -0.004599 -0.004585 -0.008465  0.003166  0.004058
  2H   1py       -0.000326  0.004771 -0.004409  0.003592  0.007797  0.004945
  2H   2pz       -0.016481  0.082293  0.002871 -0.019460 -0.073084  0.078464
  2H   2px        0.058027 -0.056653  0.021803  0.088950  0.027295 -0.056740
  2H   2py       -0.053751  0.055607  0.032721 -0.061008 -0.090158  0.005118
  2H   3pz       -0.854848  1.240912  0.090838 -0.925756  0.336321 -0.910650
  2H   3px        0.814400 -1.265875 -0.114860 -0.943867  0.895628  0.326169
  2H   3py       -0.818562  1.266894  0.061776  0.192074  0.795693  1.062733
  2H   1dz2      -0.003284 -0.002180  0.000216 -0.014465  0.003741 -0.012385
  2H   1dxz       0.024628 -0.035113 -0.004981  0.010145  0.011106 -0.009042
  2H   1dyz      -0.024998  0.035203  0.000260 -0.009752 -0.011992  0.008315
  2H   1dx2y2     0.000309 -0.000075  0.003935  0.006305 -0.014184 -0.011648
  2H   1dxy       0.021401 -0.037423 -0.002396  0.010730  0.011347 -0.008009
  3H   1s         0.024377  0.032380 -0.001290  0.009691 -0.007620  0.014525
  3H   2s        -0.680894 -0.904446  0.036036 -0.675769  0.531337 -1.012814
  3H   3s        -3.067014 -4.073980  0.162320 -0.599997  0.471760 -0.899251
  3H   1pz       -0.006485  0.000024  0.000509 -0.004457 -0.006714  0.005763
  3H   1px       -0.000623 -0.004591 -0.004565  0.003463  0.005952  0.007123
  3H   1py       -0.000083  0.004764 -0.004428 -0.008337  0.005012  0.001880
  3H   2pz       -0.021658 -0.081135  0.000142 -0.009756  0.066262 -0.085970
  3H   2px       -0.057197 -0.053155  0.030905 -0.055172 -0.006361 -0.093767
  3H   2py        0.061472  0.052109  0.023620  0.083115 -0.056502  0.042144
  3H   3pz       -0.931747 -1.186676  0.050290 -1.003981 -0.786967  0.414880
  3H   3px       -0.897147 -1.213917  0.020340  0.217927  1.166939  0.624647
  3H   3py        0.892984  1.214935 -0.073424 -0.969720  0.524383  0.764256
  3H   1dz2      -0.003140  0.002375  0.000292 -0.015473 -0.010732  0.004694
  3H   1dxz      -0.027176 -0.033540 -0.000889 -0.008446  0.006765 -0.013818
  3H   1dyz       0.026806  0.033631 -0.003833  0.008839 -0.007650  0.013092
  3H   1dx2y2    -0.000309  0.000075 -0.003935 -0.006305  0.014184  0.011648
  3H   1dxy       0.023728  0.036053 -0.001169  0.009478 -0.006628  0.013201
  4H   1s        -0.025916  0.001341 -0.031160 -0.015444  0.008943  0.006667
  4H   2s         0.723898 -0.037468  0.870349  1.076945 -0.623578 -0.464881
  4H   3s         3.260719 -0.168771  3.920390  0.956191 -0.553658 -0.412756
  4H   1pz       -0.006493  0.000200  0.000340 -0.001155 -0.007473 -0.006401
  4H   1px       -0.000631 -0.004415 -0.004735  0.006766  0.005192 -0.005041
  4H   1py       -0.000345  0.004602 -0.004584  0.006091 -0.004495  0.006391
  4H   2pz       -0.025460  0.002143 -0.079995 -0.049656  0.075435  0.060996
  4H   2px       -0.060999  0.030123 -0.049232 -0.095072  0.002813  0.053199
  4H   2py       -0.062730 -0.024544 -0.050145 -0.091203  0.058362 -0.012351
  4H   3pz       -0.988224  0.050346 -1.140070 -0.682346 -0.860919 -0.769833
  4H   3px       -0.953624  0.023105 -1.170021  0.539563  1.092986 -0.560067
  4H   3py       -0.951938  0.076327 -1.169132  0.435484 -0.401548  1.203550
  4H   1dz2       0.003034 -0.000054 -0.002525  0.011329  0.011685  0.010571
  4H   1dxz       0.028665  0.000923  0.032276  0.014040 -0.008051 -0.006789
  4H   1dyz       0.028515 -0.003811  0.032197  0.013986 -0.008834 -0.005866
  4H   1dx2y2     0.000125  0.003945  0.000066 -0.000873 -0.012534  0.014790
  4H   1dxy       0.025438 -0.001388  0.034860  0.014625 -0.007811 -0.005756
                     24        25        26        27        28        29   
                   0.85789   0.91063   0.91063   0.91063   0.91875   0.91875
                   0.00000   0.00000   0.00000   0.00000   0.00000   0.00000
                  --------  --------  --------  --------  --------  --------
  0C   1s        -0.064591  0.000000  0.000000 -0.000000  0.000000  0.000000
  0C   2s        -0.092495  0.000000  0.000000 -0.000000  0.000000  0.000000
  0C   1pz        0.000000  0.022031  0.003945 -0.006664 -0.000000  0.000000
  0C   1px        0.000000 -0.005141 -0.007580 -0.021481  0.000000 -0.000000
  0C   1py        0.000000  0.005792 -0.021733  0.006282  0.000000  0.000000
  0C   3s         1.217309 -0.000000 -0.000000  0.000000 -0.000000 -0.000000
  0C   2pz       -0.000000 -0.745146 -0.133439  0.225405  0.000000 -0.000000
  0C   2px       -0.000000  0.173875  0.256371  0.726566  0.000000  0.000000
  0C   2py        0.000000 -0.195911  0.735068 -0.212487  0.000000 -0.000000
  0C   4s        -9.594401  0.000000  0.000000 -0.000000  0.000000  0.000000
  0C   3pz       -0.000000 -7.357332 -1.317529  2.225580  0.000000 -0.000000
  0C   3px       -0.000000  1.716783  2.531322  7.173876  0.000000  0.000000
  0C   3py        0.000000 -1.934359  7.257820 -2.098029  0.000000 -0.000000
  0C   1dz2       0.000000  0.000000 -0.000000 -0.000000  0.007623 -0.009022
  0C   1dxz      -0.000000  0.008403 -0.031527  0.009114 -0.000000  0.000000
  0C   1dyz       0.000000 -0.007457 -0.010996 -0.031162 -0.000000 -0.000000
  0C   1dx2y2    -0.000000  0.000000 -0.000000  0.000000 -0.009022 -0.007623
  0C   1dxy       0.000000  0.031959  0.005723 -0.009668 -0.000000  0.000000
  0C   2dz2      -0.000000 -0.000000  0.000000  0.000000 -0.005102  0.006039
  0C   2dxz       0.000000 -0.120731  0.452988 -0.130946  0.000000 -0.000000
  0C   2dyz      -0.000000  0.107151  0.157989  0.447749  0.000000  0.000000
  0C   2dx2y2     0.000000 -0.000000  0.000000 -0.000000  0.006039  0.005102
  0C   2dxy      -0.000000 -0.459199 -0.082232  0.138907  0.000000 -0.000000
  0C   3dz2      -0.000000  0.000000 -0.000000 -0.000000  4.614727 -5.462080
  0C   3dxz       0.000000 -0.304857  1.143840 -0.330652  0.000000 -0.000000
  0C   3dyz      -0.000000  0.270567  0.398939  1.130611  0.000000  0.000000
  0C   3dx2y2    -0.000000  0.000000 -0.000000  0.000000 -5.462080 -4.614727
  0C   3dxy      -0.000000 -1.159524 -0.207644  0.350754  0.000000 -0.000000
  0C   1f0        0.000000  0.142553  0.025528 -0.043122 -0.000000  0.000000
  0C   1f+1      -0.000000  0.020370  0.030034  0.085119  0.000000  0.000000
  0C   1f-1       0.000000 -0.022951  0.086115 -0.024893  0.000000 -0.000000
  0C   1f+2       0.000000  0.000000 -0.000000 -0.000000  0.000000 -0.000000
  0C   1f-2      -0.236940  0.000000  0.000000 -0.000000  0.000000  0.000000
  0C   1f+3      -0.000000  0.026297  0.038774  0.109888  0.000000  0.000000
  0C   1f-3      -0.000000  0.029630 -0.111173  0.032137 -0.000000  0.000000
  1H   1s         0.012017  0.028800  0.044801  0.011497  0.000000 -0.000000
  1H   2s         1.745465  2.377670  3.698726  0.949191  0.000000 -0.000000
  1H   3s         1.107011  1.382179  2.150131  0.551781  0.000000 -0.000000
  1H   1pz        0.009241  0.013435  0.010527  0.000076 -0.003577  0.004234
  1H   1px       -0.009241 -0.007658 -0.011770 -0.009703 -0.005456 -0.000981
  1H   1py       -0.009241 -0.003919 -0.016611 -0.000206  0.001878  0.005215
  1H   2pz       -0.174622 -0.232490 -0.232507 -0.026973  0.034974 -0.041396
  1H   2px        0.174622  0.160557  0.247987  0.146844  0.053337  0.009591
  1H   2py        0.174622  0.113994  0.308263  0.028599 -0.018363 -0.050987
  1H   3pz       -0.196468  0.874794 -0.589131 -0.644800 -1.867850  2.210824
  1H   3px        0.196468  0.211237  0.355428 -1.164971 -2.848555 -0.512194
  1H   3py        0.196468  0.914228 -0.554613  0.620242  0.980704  2.723018
  1H   1dz2      -0.000000  0.010676 -0.005115 -0.006812  0.007103 -0.008407
  1H   1dxz      -0.029252 -0.040927 -0.068565 -0.015706  0.005832  0.016192
  1H   1dyz      -0.029252 -0.042669 -0.066309 -0.020130 -0.016938 -0.003046
  1H   1dx2y2    -0.000000  0.004522 -0.005853  0.011482 -0.008407 -0.007103
  1H   1dxy       0.029252  0.045360  0.065730  0.015645 -0.011107  0.013146
  2H   1s         0.012017 -0.044405  0.013751 -0.028423 -0.000000 -0.000000
  2H   2s         1.745465 -3.666025  1.135250 -2.346556 -0.000000 -0.000000
  2H   3s         1.107011 -2.131121  0.659939 -1.364092 -0.000000 -0.000000
  2H   1pz       -0.009241  0.016632 -0.001467  0.003543  0.003577 -0.004234
  2H   1px        0.009241 -0.010855  0.000224 -0.013170  0.005456  0.000981
  2H   1py       -0.009241  0.011078 -0.010251  0.007971  0.001878  0.005215
  2H   2pz        0.174622 -0.307625  0.049404 -0.108465 -0.034974  0.041396
  2H   2px       -0.174622  0.235692 -0.033924  0.228336 -0.053337 -0.009591
  2H   2py        0.174622 -0.238466  0.158765 -0.163604 -0.018363 -0.050987
  2H   3pz        0.196468  0.581224  0.512360 -0.963210  1.867850 -2.210824
  2H   3px       -0.196468  0.504808 -0.746064 -0.846562  2.848555  0.512194
  2H   3py        0.196468 -0.462915 -1.138738 -0.130742  0.980704  2.723018
  2H   1dz2      -0.000000 -0.007910 -0.005263  0.009812  0.007103 -0.008407
  2H   1dxz      -0.029252  0.065449 -0.023445  0.042303  0.005832  0.016192
  2H   1dyz       0.029252 -0.065345  0.018774 -0.044725  0.016938  0.003046
  2H   1dx2y2    -0.000000  0.000269 -0.012123 -0.006286 -0.008407 -0.007103
  2H   1dxy      -0.029252  0.068037 -0.019353  0.040240  0.011107 -0.013146
  3H   1s         0.012017 -0.014950 -0.024380  0.046378  0.000000  0.000000
  3H   2s         1.745465 -1.234230 -2.012773  3.828875  0.000000  0.000000
  3H   3s         1.107011 -0.717478 -1.170058  2.225789  0.000000  0.000000
  3H   1pz       -0.009241  0.010598  0.006344 -0.011780  0.003577 -0.004234
  3H   1px       -0.009241  0.001304  0.002402 -0.016848 -0.005456 -0.000981
  3H   1py        0.009241 -0.001081 -0.012428  0.011650 -0.001878 -0.005215
  3H   2pz        0.174622 -0.165806 -0.134185  0.251677 -0.034974  0.041396
  3H   2px        0.174622 -0.050084 -0.085100  0.314783  0.053337  0.009591
  3H   2py       -0.174622  0.047310  0.209941 -0.250051  0.018363  0.050987
  3H   3pz        0.196468  1.135344 -0.204962  0.443951  1.867850 -2.210824
  3H   3px        0.196468 -0.611787 -0.946020 -0.508794 -2.848555 -0.512194
  3H   3py       -0.196468  0.653679 -0.938782 -0.468510 -0.980704 -2.723018
  3H   1dz2      -0.000000 -0.013131  0.001495 -0.003447  0.007103 -0.008407
  3H   1dxz       0.029252 -0.020801 -0.038890  0.068393 -0.005832 -0.016192
  3H   1dyz      -0.029252  0.020905  0.034219 -0.070815 -0.016938 -0.003046
  3H   1dx2y2    -0.000000 -0.000269  0.012123  0.006286 -0.008407 -0.007103
  3H   1dxy      -0.029252  0.025234  0.036056 -0.068454  0.011107 -0.013146
  4H   1s         0.012017  0.030555 -0.034172 -0.029452 -0.000000  0.000000
  4H   2s         1.745465  2.522584 -2.821203 -2.431510 -0.000000  0.000000
  4H   3s         1.107011  1.466420 -1.640012 -1.413477 -0.000000  0.000000
  4H   1pz        0.009241  0.013795 -0.005651 -0.008313 -0.003577  0.004234
  4H   1px        0.009241  0.004501 -0.009593 -0.013381  0.005456  0.000981
  4H   1py        0.009241  0.008241 -0.014434 -0.003885 -0.001878 -0.005215
  4H   2pz       -0.174622 -0.240942  0.147726  0.170185  0.034974 -0.041396
  4H   2px       -0.174622 -0.125220  0.196811  0.233291 -0.053337 -0.009591
  4H   2py       -0.174622 -0.171782  0.257088  0.115046  0.018363  0.050987
  4H   3pz       -0.196468  0.841774  0.896529  0.125542 -1.867850  2.210824
  4H   3px       -0.196468 -0.905357  0.155471 -0.827204  2.848555  0.512194
  4H   3py       -0.196468 -0.202366 -0.754569  0.958010 -0.980704 -2.723018
  4H   1dz2      -0.000000  0.010365  0.008883  0.000447  0.007103 -0.008407
  4H   1dxz       0.029252  0.045323 -0.053119 -0.041796 -0.005832 -0.016192
  4H   1dyz       0.029252  0.043581 -0.050864 -0.046220  0.016938  0.003046
  4H   1dx2y2     0.000000 -0.004522  0.005853 -0.011482 -0.008407 -0.007103
  4H   1dxy       0.029252  0.047911 -0.049027 -0.043859 -0.011107  0.013146
                     30        31        32        33        34        35   
                   0.99340   0.99340   0.99340   1.09484   1.60444   1.60444
                   0.00000   0.00000   0.00000   0.00000   0.00000   0.00000
                  --------  --------  --------  --------  --------  --------
  0C   1s         0.000000  0.000000 -0.000000 -0.086754 -0.000000  0.000000
  0C   2s         0.000000  0.000000 -0.000000 -0.175222 -0.000000 -0.000000
  0C   1pz       -0.156779 -0.000129  0.017374 -0.000000  0.000000  0.000000
  0C   1px       -0.005082  0.151176 -0.044740  0.000000 -0.000000  0.000000
  0C   1py       -0.016614 -0.045027 -0.150260  0.000000  0.000000 -0.000000
  0C   3s        -0.000000 -0.000000  0.000000  0.942661  0.000000  0.000000
  0C   2pz       -1.504966 -0.001234  0.166773  0.000000 -0.000000 -0.000000
  0C   2px       -0.048781  1.451177 -0.429467 -0.000000  0.000000 -0.000000
  0C   2py       -0.159484 -0.432227 -1.442387  0.000000 -0.000000  0.000000
  0C   4s         0.000000  0.000000  0.000000 10.532218  0.000000 -0.000000
  0C   3pz        0.090909  0.000075 -0.010074 -0.000000  0.000000 -0.000000
  0C   3px        0.002947 -0.087659  0.025942 -0.000000  0.000000 -0.000000
  0C   3py        0.009634  0.026109  0.087129  0.000000 -0.000000  0.000000
  0C   1dz2      -0.000000 -0.000000  0.000000 -0.000000 -0.002667  0.000072
  0C   1dxz       0.001302  0.003529  0.011776 -0.000000  0.000000 -0.000000
  0C   1dyz       0.000398 -0.011848  0.003506  0.000000 -0.000000  0.000000
  0C   1dx2y2    -0.000000  0.000000 -0.000000 -0.000000 -0.000072 -0.002667
  0C   1dxy       0.012287  0.000010 -0.001362 -0.000000 -0.000000  0.000000
  0C   2dz2      -0.000000 -0.000000  0.000000  0.000000 -0.668024  0.018014
  0C   2dxz      -0.016175 -0.043836 -0.146285  0.000000 -0.000000 -0.000000
  0C   2dyz      -0.004947  0.147176 -0.043556 -0.000000  0.000000 -0.000000
  0C   2dx2y2     0.000000  0.000000 -0.000000 -0.000000 -0.018014 -0.668024
  0C   2dxy      -0.152631 -0.000125  0.016914  0.000000 -0.000000 -0.000000
  0C   3dz2      -0.000000 -0.000000  0.000000 -0.000000  1.537384 -0.041456
  0C   3dxz      -0.082071 -0.222424 -0.742254  0.000000 -0.000000  0.000000
  0C   3dyz      -0.025103  0.746777 -0.221004 -0.000000  0.000000 -0.000000
  0C   3dx2y2    -0.000000  0.000000 -0.000000 -0.000000  0.041456  1.537384
  0C   3dxy      -0.774457 -0.000635  0.085822 -0.000000 -0.000000 -0.000000
  0C   1f0        0.060478  0.000050 -0.006702 -0.000000  0.000000  0.000000
  0C   1f+1      -0.001200  0.035711 -0.010569 -0.000000  0.000000 -0.000000
  0C   1f-1      -0.003925 -0.010636 -0.035495  0.000000 -0.000000  0.000000
  0C   1f+2       0.000000 -0.000000  0.000000  0.000000 -0.000000  0.000000
  0C   1f-2       0.000000  0.000000 -0.000000 -0.039206  0.000000  0.000000
  0C   1f+3      -0.001550  0.046103 -0.013644 -0.000000  0.000000 -0.000000
  0C   1f-3       0.005067  0.013732  0.045824 -0.000000  0.000000 -0.000000
  1H   1s         0.043213  0.033998 -0.067938 -0.077018  0.000000  0.000000
  1H   2s         0.839840  0.660748 -1.320368 -1.658660 -0.000000 -0.000000
  1H   3s         1.433561  1.127860 -2.253796 -1.434059  0.000000  0.000000
  1H   1pz        0.002361  0.000344 -0.000897  0.003451  0.020191 -0.000544
  1H   1px       -0.000372 -0.002200  0.001233 -0.003451  0.009624 -0.017758
  1H   1py       -0.000231  0.000211  0.002530 -0.003451  0.010567  0.017213
  1H   2pz       -0.086022 -0.023069  0.052295 -0.064266 -0.286381  0.007722
  1H   2px        0.027422  0.077754 -0.062202  0.064266 -0.136503  0.251875
  1H   2py        0.023247  0.006720 -0.100405  0.064266 -0.149878 -0.244152
  1H   3pz       -1.321175 -0.402339  0.892495  0.787481 -0.326497  0.008804
  1H   3px        0.484272  1.183331 -1.033991 -0.787481 -0.155624  0.287156
  1H   3py        0.424643  0.168862 -1.579586 -0.787481 -0.170873 -0.278352
  1H   1dz2       0.011805 -0.003729  0.005643  0.000000 -0.012372  0.000334
  1H   1dxz      -0.039703 -0.032281  0.056655  0.006436 -0.004307 -0.007016
  1H   1dyz      -0.039326 -0.025869  0.060104  0.006436 -0.003923  0.007238
  1H   1dx2y2     0.000703  0.011966  0.006436 -0.000000 -0.000334 -0.012372
  1H   1dxy       0.034036  0.030805 -0.060998 -0.006436 -0.008230  0.000222
  2H   1s        -0.053843 -0.062806 -0.028198 -0.077018  0.000000  0.000000
  2H   2s        -1.046428 -1.220633 -0.548028 -1.658660 -0.000000  0.000000
  2H   3s        -1.786196 -2.083553 -0.935454 -1.434059 -0.000000  0.000000
  2H   1pz        0.002468  0.000634  0.000070 -0.003451 -0.020191  0.000544
  2H   1px       -0.000479 -0.002489  0.000266  0.003451 -0.009624  0.017758
  2H   1py        0.000746  0.001185  0.002130 -0.003451  0.010567  0.017213
  2H   2pz       -0.093220 -0.042576 -0.012805  0.064266  0.286381 -0.007722
  2H   2px        0.034620  0.097262  0.002897 -0.064266  0.136503 -0.251875
  2H   2py       -0.042475 -0.058831 -0.073495  0.064266 -0.149878 -0.244152
  2H   3pz       -1.446762 -0.742699 -0.243321 -0.787481  0.326497 -0.008804
  2H   3px        0.609859  1.523690  0.101825  0.787481  0.155624 -0.287156
  2H   3py       -0.722038 -0.974848 -1.110073 -0.787481 -0.170873 -0.278352
  2H   1dz2      -0.010635  0.006900  0.004939  0.000000 -0.012372  0.000334
  2H   1dxz       0.048250  0.055444  0.020643  0.006436 -0.004307 -0.007016
  2H   1dyz      -0.048959 -0.051975 -0.027016 -0.006436  0.003923 -0.007238
[...]
   62. RY ( 7) H  3             0.00009
   63. RY ( 8) H  3             0.00004
   64. RY ( 9) H  3             0.00004
   65. RY (10) H  3             0.00004
   66. RY (11) H  3             0.00002
   67. RY (12) H  3             0.00002
   68. RY (13) H  3             0.00002
   69. RY (14) H  3             0.00001
   70. RY (15) H  3             0.00001
   71. RY (16) H  3             0.00001
   72. RY ( 1) H  4             0.00133
   73. RY ( 2) H  4             0.00063
   74. RY ( 3) H  4             0.00063
   75. RY ( 4) H  4             0.00021
   76. RY ( 5) H  4             0.00013
   77. RY ( 6) H  4             0.00013
   78. RY ( 7) H  4             0.00009
   79. RY ( 8) H  4             0.00004
   80. RY ( 9) H  4             0.00004
   81. RY (10) H  4             0.00004
   82. RY (11) H  4             0.00002
   83. RY (12) H  4             0.00002
   84. RY (13) H  4             0.00002
   85. RY (14) H  4             0.00001
   86. RY (15) H  4             0.00001
   87. RY (16) H  4             0.00001
   88. RY ( 1) H  5             0.00133
   89. RY ( 2) H  5             0.00063
   90. RY ( 3) H  5             0.00063
   91. RY ( 4) H  5             0.00021
   92. RY ( 5) H  5             0.00013
   93. RY ( 6) H  5             0.00013
   94. RY ( 7) H  5             0.00009
   95. RY ( 8) H  5             0.00004
   96. RY ( 9) H  5             0.00004
   97. RY (10) H  5             0.00004
   98. RY (11) H  5             0.00002
   99. RY (12) H  5             0.00002
  100. RY (13) H  5             0.00002
  101. RY (14) H  5             0.00001
  102. RY (15) H  5             0.00001
  103. RY (16) H  5             0.00001
          -------------------------------
                 Total Lewis    4.93684  ( 98.7369%)
           Valence non-Lewis    0.02784  (  0.5567%)
           Rydberg non-Lewis    0.03532  (  0.7064%)
          -------------------------------
               Total unit  1    5.00000  (100.0000%)
              Charge unit  1    0.00000

 $CHOOSE
  ALPHA
   BOND S 1 2 S 1 3 S 1 4 S 1 5 END
  END
  BETA
   BOND S 1 2 S 1 3 S 1 4 S 1 5 END
  END
 $END

 NBO analysis completed in 0.22 CPU seconds (0 wall seconds)
 Maximum scratch memory used by NBO was 538908 words (4.11 MB)
Stopping NBO...Storing NBOs: methane.pmp2re.nbo

                                *** returned from   NBO  program ***


----------------------------------
MP2 DERIVATIVE INTEGRAL GENERATION
----------------------------------


Input Wavefunction Amplitudes       ... methane.mp2tbb.tmp
Input Correlated Electron Density   ... methane.pmp2re
Input Energy Weighted Density       ... methane.wmp2.tmp
Input SCF Electron Density          ... methane.scfp

One-Electron Terms    ...
                        ... One-Electron Terms done
Prescreening matrices              ... done

Batch handling in the gradient evaluation:
Memory available                      ... 3000.0 MB
Memory per occupied orbital in Q2     ...    0.8 MB
Memory per occupied orbital in Q3     ...    0.0 MB
Total memory requirement per |i>      ...    0.8 MB
Max. Number of orbitals possible      ...   3538
Number of orbitals treated per batch  ...     10
Number of batches to be done          ...      1
Batch   0: i=    0 ...     9

---------------------------------------
MP2 TOTAL ENERGY:      -40.433821536 Eh
---------------------------------------

-----------------------------------
NORM OF THE MP2 GRADIENT:  0.000001
-----------------------------------

-------------------------   --------------------
FINAL SINGLE POINT ENERGY       -40.433821535524
-------------------------   --------------------

                                *** OPTIMIZATION RUN DONE ***

                            ***************************************
                            *     ORCA property calculations      *
                            ***************************************

                                    ---------------------
                                    Active property flags
                                    ---------------------
   (+) Dipole Moment


------------------------------------------------------------------------------
                       ORCA ELECTRIC PROPERTIES CALCULATION
------------------------------------------------------------------------------

Dipole Moment Calculation                       ... on
Quadrupole Moment Calculation                   ... off
Polarizability Calculation                      ... off
GBWName                                         ... methane.gbw
Electron density file                           ... methane.scfp
The origin for moment calculation is the CENTER OF MASS  = (-0.000000, -0.000000 -0.000000)

-------------
DIPOLE MOMENT
-------------
                                X             Y             Z
Electronic contribution:     -0.00000      -0.00000      -0.00000
Nuclear contribution   :      0.00000       0.00000       0.00000
                        -----------------------------------------
Total Dipole Moment    :     -0.00000      -0.00000       0.00000
                        -----------------------------------------
Magnitude (a.u.)       :      0.00000
Magnitude (Debye)      :      0.00000



--------------------
Rotational spectrum 
--------------------
 
Rotational constants in cm-1:     5.332705     5.332705     5.332705 
Rotational constants in MHz : 159870.475947 159870.475942 159870.475927 

 Dipole components along the rotational axes: 
x,y,z [a.u.] :     0.000000     0.000000     0.000000 
x,y,z [Debye]:     0.000000     0.000000     0.000000 

 

                         *** MP2 UNRELAXED DENSITY ***

------------------------------------------------------------------------------
                       ORCA ELECTRIC PROPERTIES CALCULATION
------------------------------------------------------------------------------

Dipole Moment Calculation                       ... on
Quadrupole Moment Calculation                   ... off
Polarizability Calculation                      ... off
GBWName                                         ... methane.gbw
Electron density file                           ... methane.pmp2ur
The origin for moment calculation is the CENTER OF MASS  = (-0.000000, -0.000000 -0.000000)

-------------
DIPOLE MOMENT
-------------
                                X             Y             Z
Electronic contribution:     -0.00000      -0.00000      -0.00000
Nuclear contribution   :      0.00000       0.00000       0.00000
                        -----------------------------------------
Total Dipole Moment    :     -0.00000      -0.00000       0.00000
                        -----------------------------------------
Magnitude (a.u.)       :      0.00000
Magnitude (Debye)      :      0.00000



--------------------
Rotational spectrum 
--------------------
 
Rotational constants in cm-1:     5.332705     5.332705     5.332705 
Rotational constants in MHz : 159870.475947 159870.475942 159870.475927 

 Dipole components along the rotational axes: 
x,y,z [a.u.] :    -0.000000     0.000000     0.000000 
x,y,z [Debye]:    -0.000000     0.000000     0.000000 

 

                           *** MP2 RELAXED DENSITY ***

------------------------------------------------------------------------------
                       ORCA ELECTRIC PROPERTIES CALCULATION
------------------------------------------------------------------------------

Dipole Moment Calculation                       ... on
Quadrupole Moment Calculation                   ... off
Polarizability Calculation                      ... off
GBWName                                         ... methane.gbw
Electron density file                           ... methane.pmp2re
The origin for moment calculation is the CENTER OF MASS  = (-0.000000, -0.000000 -0.000000)

-------------
DIPOLE MOMENT
-------------
                                X             Y             Z
Electronic contribution:     -0.00000      -0.00000      -0.00000
Nuclear contribution   :      0.00000       0.00000       0.00000
                        -----------------------------------------
Total Dipole Moment    :      0.00000      -0.00000       0.00000
                        -----------------------------------------
Magnitude (a.u.)       :      0.00000
Magnitude (Debye)      :      0.00000



--------------------
Rotational spectrum 
--------------------
 
Rotational constants in cm-1:     5.332705     5.332705     5.332705 
Rotational constants in MHz : 159870.475947 159870.475942 159870.475927 

 Dipole components along the rotational axes: 
x,y,z [a.u.] :     0.000000     0.000000     0.000000 
x,y,z [Debye]:     0.000000     0.000000     0.000000 

 
------------------------------------------------------------------------------
                         ORCA MP2 H E S S I A N CALCULATION
------------------------------------------------------------------------------

Calculating analytic MP2 second derivatives ... (>methane.last_mp2) done

-----------------------
VIBRATIONAL FREQUENCIES
-----------------------

Scaling factor for frequencies =  1.000000000  (already applied!)

   0:         0.00 cm**-1
   1:         0.00 cm**-1
   2:         0.00 cm**-1
   3:         0.00 cm**-1
   4:         0.00 cm**-1
   5:         0.00 cm**-1
   6:      1353.79 cm**-1
   7:      1353.79 cm**-1
   8:      1353.79 cm**-1
   9:      1585.75 cm**-1
  10:      1585.75 cm**-1
  11:      3058.21 cm**-1
  12:      3196.99 cm**-1
  13:      3196.99 cm**-1
  14:      3196.99 cm**-1


------------
NORMAL MODES
------------

These modes are the Cartesian displacements weighted by the diagonal matrix
M(i,i)=1/sqrt(m[i]) where m[i] is the mass of the displaced atom
Thus, these vectors are normalized but *not* orthogonal

                  0          1          2          3          4          5    
      0       0.000000   0.000000   0.000000   0.000000   0.000000   0.000000
      1       0.000000   0.000000   0.000000   0.000000   0.000000   0.000000
      2       0.000000   0.000000   0.000000   0.000000   0.000000   0.000000
      3       0.000000   0.000000   0.000000   0.000000   0.000000   0.000000
      4       0.000000   0.000000   0.000000   0.000000   0.000000   0.000000
      5       0.000000   0.000000   0.000000   0.000000   0.000000   0.000000
      6       0.000000   0.000000   0.000000   0.000000   0.000000   0.000000
      7       0.000000   0.000000   0.000000   0.000000   0.000000   0.000000
      8       0.000000   0.000000   0.000000   0.000000   0.000000   0.000000
      9       0.000000   0.000000   0.000000   0.000000   0.000000   0.000000
     10       0.000000   0.000000   0.000000   0.000000   0.000000   0.000000
     11       0.000000   0.000000   0.000000   0.000000   0.000000   0.000000
     12       0.000000   0.000000   0.000000   0.000000   0.000000   0.000000
     13       0.000000   0.000000   0.000000   0.000000   0.000000   0.000000
     14       0.000000   0.000000   0.000000   0.000000   0.000000   0.000000
                  6          7          8          9         10         11    
      0       0.121795   0.019334   0.018974   0.000000  -0.000000   0.000000
      1      -0.013271   0.118774  -0.035840   0.000000   0.000000  -0.000000
      2      -0.023615   0.032967   0.117997   0.000000   0.000000   0.000000
      3      -0.343555   0.102186  -0.342981  -0.404010   0.058676  -0.288675
      4       0.310303  -0.379202  -0.077628   0.252819   0.320545  -0.288675
      5      -0.131733  -0.355376  -0.320097  -0.151190   0.379220   0.288675
      6      -0.294130  -0.340151  -0.209506   0.404010  -0.058676   0.288675
      7      -0.231234  -0.328432   0.291155   0.252819   0.320545  -0.288675
      8      -0.181159   0.086961  -0.453572   0.151190  -0.379220  -0.288675
      9      -0.382078  -0.217376   0.229938  -0.404010   0.058675  -0.288676
     10      -0.143285  -0.451207  -0.148290  -0.252819  -0.320545   0.288676
     11       0.321855  -0.283371  -0.249435   0.151190  -0.379221  -0.288676
     12      -0.431504   0.224960   0.096464   0.404010  -0.058675   0.288675
     13       0.222354  -0.256427   0.361817  -0.252819  -0.320545   0.288675
     14       0.272430   0.158966  -0.382910  -0.151190   0.379221   0.288675
                  12         13         14    
      0       0.042910   0.031933  -0.075149
      1      -0.049839   0.077489   0.004469
      2       0.064678   0.038525   0.053301
      3       0.236644  -0.219135   0.379279
      4       0.217747  -0.209853   0.395501
      5      -0.214724   0.233490  -0.383731
      6      -0.080598   0.274107   0.407728
      7       0.079187  -0.251813  -0.422129
      8       0.102519  -0.259752  -0.412180
      9      -0.492294   0.028883   0.068449
     10       0.490882  -0.006589  -0.082850
     11      -0.487859   0.030226   0.094620
     12      -0.175053  -0.464359   0.040001
     13      -0.193950  -0.455077   0.056222
     14      -0.170618  -0.463016   0.066172


-----------
IR SPECTRUM
-----------

 Mode    freq (cm**-1)   T**2         TX         TY         TZ
-------------------------------------------------------------------
   6:      1353.79   11.121994  ( -3.255417   0.354728   0.631208)
   7:      1353.79   11.121990  ( -0.516780  -3.174664  -0.881157)
   8:      1353.79   11.121998  ( -0.507143   0.957951  -3.153908)
   9:      1585.75    0.000000  (  0.000001   0.000001  -0.000000)
  10:      1585.75    0.000000  ( -0.000000  -0.000001   0.000001)
  11:      3058.21    0.000000  (  0.000006  -0.000004   0.000004)
  12:      3196.99   15.501546  (  1.831558  -2.127317   2.760700)
  13:      3196.99   15.501534  (  1.363023   3.307516   1.644396)
  14:      3196.99   15.501535  ( -3.207663   0.190767   2.275092)

The first frequency considered to be a vibration is 6
The total number of vibrations considered is 9


--------------------------
THERMOCHEMISTRY AT 298.15K
--------------------------

Temperature         ... 298.15 K
Pressure            ... 1.00 atm
Total Mass          ... 16.04 AMU

Throughout the following assumptions are being made:
  (1) The electronic state is orbitally nondegenerate
  (2) There are no thermally accessible electronically excited states
  (3) Hindered rotations indicated by low frequency modes are not
      treated as such but are treated as vibrations and this may
      cause some error
  (4) All equations used are the standard statistical mechanics
      equations for an ideal gas
  (5) All vibrations are strictly harmonic

freq.    1353.79  E(vib)   ...       0.01 
freq.    1353.79  E(vib)   ...       0.01 
freq.    1353.79  E(vib)   ...       0.01 
freq.    1585.75  E(vib)   ...       0.00 
freq.    1585.75  E(vib)   ...       0.00 
freq.    3058.21  E(vib)   ...       0.00 
freq.    3196.99  E(vib)   ...       0.00 
freq.    3196.99  E(vib)   ...       0.00 
freq.    3196.99  E(vib)   ...       0.00 

------------
INNER ENERGY
------------

The inner energy is: U= E(el) + E(ZPE) + E(vib) + E(rot) + E(trans)
    E(el)   - is the total energy from the electronic structure calculation
              = E(kin-el) + E(nuc-el) + E(el-el) + E(nuc-nuc)
    E(ZPE)  - the the zero temperature vibrational energy from the frequency calculation
    E(vib)  - the the finite temperature correction to E(ZPE) due to population
              of excited vibrational states
    E(rot)  - is the rotational thermal energy
    E(trans)- is the translational thermal energy

Summary of contributions to the inner energy U:
Electronic energy                ...    -40.43382154 Eh
Zero point energy                ...      0.04529465 Eh      28.42 kcal/mol
Thermal vibrational correction   ...      0.00003384 Eh       0.02 kcal/mol
Thermal rotational correction    ...      0.00141627 Eh       0.89 kcal/mol
Thermal translational correction ...      0.00141627 Eh       0.89 kcal/mol
-----------------------------------------------------------------------
Total thermal energy                    -40.38566049 Eh


Summary of corrections to the electronic energy:
(perhaps to be used in another calculation)
Total thermal correction                  0.00286639 Eh       1.80 kcal/mol
Non-thermal (ZPE) correction              0.04529465 Eh      28.42 kcal/mol
-----------------------------------------------------------------------
Total correction                          0.04816104 Eh      30.22 kcal/mol


--------
ENTHALPY
--------

The enthalpy is H = U + kB*T
                kB is Boltzmann's constant
Total free energy                 ...    -40.38566049 Eh 
Thermal Enthalpy correction       ...      0.00094421 Eh       0.59 kcal/mol
-----------------------------------------------------------------------
Total Enthalpy                    ...    -40.38471628 Eh


Note: Rotational entropy computed according to Herzberg 
Infrared and Raman Spectra, Chapter V,1, Van Nostrand Reinhold, 1945 
Point Group:  Td, Symmetry Number:  12  
Rotational constants in cm-1:     5.332705     5.332705     5.332705 

Vibrational entropy computed according to the QRRHO of S. Grimme
Chem.Eur.J. 2012 18 9955


-------
ENTROPY
-------

The entropy contributions are T*S = T*(S(el)+S(vib)+S(rot)+S(trans))
     S(el)   - electronic entropy
     S(vib)  - vibrational entropy
     S(rot)  - rotational entropy
     S(trans)- translational entropy
The entropies will be listed as mutliplied by the temperature to get
units of energy

Electronic entropy                ...      0.00000000 Eh      0.00 kcal/mol
Vibrational entropy               ...      0.00003888 Eh      0.02 kcal/mol
Rotational entropy                ...      0.00479397 Eh      3.01 kcal/mol
Translational entropy             ...      0.01627961 Eh     10.22 kcal/mol
-----------------------------------------------------------------------
Final entropy term                ...      0.02111246 Eh     13.25 kcal/mol

In case the symmetry of your molecule has not been determined correctly
or in case you have a reason to use a different symmetry number we print 
out the resulting rotational entropy values for sn=1,12 :
 --------------------------------------------------------
|  sn= 1 | S(rot)=       0.00714017 Eh      4.48 kcal/mol|
|  sn= 2 | S(rot)=       0.00648572 Eh      4.07 kcal/mol|
|  sn= 3 | S(rot)=       0.00610288 Eh      3.83 kcal/mol|
|  sn= 4 | S(rot)=       0.00583126 Eh      3.66 kcal/mol|
|  sn= 5 | S(rot)=       0.00562057 Eh      3.53 kcal/mol|
|  sn= 6 | S(rot)=       0.00544843 Eh      3.42 kcal/mol|
|  sn= 7 | S(rot)=       0.00530288 Eh      3.33 kcal/mol|
|  sn= 8 | S(rot)=       0.00517680 Eh      3.25 kcal/mol|
|  sn= 9 | S(rot)=       0.00506559 Eh      3.18 kcal/mol|
|  sn=10 | S(rot)=       0.00496612 Eh      3.12 kcal/mol|
|  sn=11 | S(rot)=       0.00487613 Eh      3.06 kcal/mol|
|  sn=12 | S(rot)=       0.00479397 Eh      3.01 kcal/mol|
 --------------------------------------------------------


-------------------
GIBBS FREE ENERGY
-------------------

The Gibbs free energy is G = H - T*S

Total enthalpy                    ...    -40.38471628 Eh 
Total entropy correction          ...     -0.02111246 Eh    -13.25 kcal/mol
-----------------------------------------------------------------------
Final Gibbs free energy         ...    -40.40582874 Eh

For completeness - the Gibbs free energy minus the electronic energy
G-E(el)                           ...      0.02799279 Eh     17.57 kcal/mol


Timings for individual modules:

Sum of individual times         ...      341.644 sec (=   5.694 min)
GTO integral calculation        ...        2.228 sec (=   0.037 min)   0.7 %
SCF iterations                  ...       10.326 sec (=   0.172 min)   3.0 %
MP2 module                      ...       25.160 sec (=   0.419 min)   7.4 %
Geometry relaxation             ...        0.050 sec (=   0.001 min)   0.0 %
Analytical frequency calculation...      303.879 sec (=   5.065 min)  88.9 %
                             ****ORCA TERMINATED NORMALLY****
TOTAL RUN TIME: 0 days 0 hours 5 minutes 42 seconds 335 msec
