
                                 *****************
                                 * O   R   C   A *
                                 *****************

           --- An Ab Initio, DFT and Semiempirical electronic structure package ---

                  #######################################################
                  #                        -***-                        #
                  #          Department of theory and spectroscopy      #
                  #               Directorship: Frank Neese             #
                  #        Max Planck Institute fuer Kohlenforschung    #
                  #                Kaiser Wilhelm Platz 1               #
                  #                 D-45470 Muelheim/Ruhr               #
                  #                      Germany                        #
                  #                                                     #
                  #                  All rights reserved                #
                  #                        -***-                        #
                  #######################################################


                         Program Version 4.2.1 -  RELEASE  -


 With contributions from (in alphabetic order):
   Daniel Aravena         : Magnetic Suceptibility
   Michael Atanasov       : Ab Initio Ligand Field Theory (pilot matlab implementation)
   Alexander A. Auer      : GIAO ZORA, VPT2
   Ute Becker             : Parallelization
   Giovanni Bistoni       : ED, misc. LED, open-shell LED, HFLD
   Martin Brehm           : Molecular dynamics
   Dmytro Bykov           : SCF Hessian
   Vijay G. Chilkuri      : MRCI spin determinant printing, contributions to CSF-ICE
   Dipayan Datta          : RHF DLPNO-CCSD density
   Achintya Kumar Dutta   : EOM-CC, STEOM-CC
   Dmitry Ganyushin       : Spin-Orbit,Spin-Spin,Magnetic field MRCI
   Miquel Garcia          : C-PCM Hessian, Gaussian charge scheme
   Yang Guo               : DLPNO-NEVPT2, CIM, IAO-localization
   Andreas Hansen         : Spin unrestricted coupled pair/coupled cluster methods
   Benjamin Helmich-Paris : CASSCF linear response (MC-RPA)
   Lee Huntington         : MR-EOM, pCC
   Robert Izsak           : Overlap fitted RIJCOSX, COSX-SCS-MP3, EOM
   Christian Kollmar      : KDIIS, OOCD, Brueckner-CCSD(T), CCSD density
   Simone Kossmann        : Meta GGA functionals, TD-DFT gradient, OOMP2, MP2 Hessian
   Martin Krupicka        : AUTO-CI
   Lucas Lang             : DCDCAS
   Dagmar Lenk            : GEPOL surface, SMD
   Dimitrios Liakos       : Extrapolation schemes; Compound Job, initial MDCI parallelization
   Dimitrios Manganas     : Further ROCIS development; embedding schemes
   Dimitrios Pantazis     : SARC Basis sets
   Taras Petrenko         : DFT Hessian,TD-DFT gradient, ASA, ECA, R-Raman, ABS, FL, XAS/XES, NRVS
   Peter Pinski           : DLPNO-MP2, DLPNO-MP2 Gradient
   Christoph Reimann      : Effective Core Potentials
   Marius Retegan         : Local ZFS, SOC
   Christoph Riplinger    : Optimizer, TS searches, QM/MM, DLPNO-CCSD(T), (RO)-DLPNO pert. Triples
   Tobias Risthaus        : Range-separated hybrids, TD-DFT gradient, RPA, STAB
   Michael Roemelt        : Original ROCIS implementation
   Masaaki Saitow         : Open-shell DLPNO-CCSD energy and density
   Barbara Sandhoefer     : DKH picture change effects
   Avijit Sen             : IP-ROCIS
   Kantharuban Sivalingam : CASSCF convergence, NEVPT2, FIC-MRCI
   Bernardo de Souza      : ESD, SOC TD-DFT
   Georgi Stoychev        : AutoAux, RI-MP2 NMR
   Willem Van den Heuvel  : Paramagnetic NMR
   Boris Wezisla          : Elementary symmetry handling
   Frank Wennmohs         : Technical directorship


 We gratefully acknowledge several colleagues who have allowed us to
 interface, adapt or use parts of their codes:
   Stefan Grimme, W. Hujo, H. Kruse,             : VdW corrections, initial TS optimization,
                  C. Bannwarth                     DFT functionals, gCP, sTDA/sTD-DF
   Ed Valeev, F. Pavosevic, A. Kumar             : LibInt (2-el integral package), F12 methods
   Garnet Chan, S. Sharma, J. Yang, R. Olivares  : DMRG
   Ulf Ekstrom                                   : XCFun DFT Library
   Mihaly Kallay                                 : mrcc  (arbitrary order and MRCC methods)
   Andreas Klamt, Michael Diedenhofen            : otool_cosmo (COSMO solvation model)
   Jiri Pittner, Ondrej Demel                    : Mk-CCSD
   Frank Weinhold                                : gennbo (NPA and NBO analysis)
   Christopher J. Cramer and Donald G. Truhlar   : smd solvation model
   Lars Goerigk                                  : TD-DFT with DH, B97 family of functionals
   V. Asgeirsson, H. Jonsson                     : NEB implementation
   FAccTs GmbH                                   : IRC, NEB, NEB-TS, Multilevel, MM, QM/MM, CI optimization
   S Lehtola, MJT Oliveira, MAL Marques          : LibXC Library


 Your calculation uses the libint2 library for the computation of 2-el integrals
 For citations please refer to: http://libint.valeyev.net

 Your ORCA version has been built with support for libXC version: 4.2.3
 For citations please refer to: https://tddft.org/programs/libxc/

 This ORCA versions uses:
   CBLAS   interface :  Fast vector & matrix operations
   LAPACKE interface :  Fast linear algebra routines
   SCALAPACK package :  Parallel linear algebra routines




***************************************
The coordinates will be read from file: init.xyz
***************************************


----- Orbital basis set information -----
Your calculation utilizes the basis: cc-pVTZ 
       H, B-Ne : Obtained from the ccRepo (grant-hill.group.shef.ac.uk/ccrepo) Feb. 2017
                 T. H. Dunning, Jr., J. Chem. Phys. 90, 1007 (1989)
            He : Obtained from the ccRepo (grant-hill.group.shef.ac.uk/ccrepo) Feb. 2017
                 D. E. Woon, T. H. Dunning, Jr., J. Chem. Phys. 100, 2975 (1994)
  Li-Be, Na-Mg : Obtained from the ccRepo (grant-hill.group.shef.ac.uk/ccrepo) Feb. 2017
                 B. P. Prascher, D. E. Woon, K. A. Peterson, T. H. Dunning, Jr., A. K. Wilson, Theor. Chem. Acc. 128, 69 (2011)
         Al-Ar : Obtained from the ccRepo (grant-hill.group.shef.ac.uk/ccrepo) Feb. 2017
                 D. E. Woon, T. H. Dunning, Jr., J. Chem. Phys. 98, 1358 (1993)
            Ca : Obtained from the Peterson Research Group Website (tyr0.chem.wsu.edu/~kipeters) Feb. 2017
                 J. Koput, K. A. Peterson, J. Phys. Chem. 106, 9595 (2002)
         Sc-Zn : Obtained from the ccRepo (grant-hill.group.shef.ac.uk/ccrepo) Feb. 2017
                 N. B. Balabanov, K. A. Peterson, J. Chem. Phys. 123, 064107 (2005)
                 N. B. Balabanov, K. A. Peterson, J. Chem. Phys. 125, 074110 (2006)
         Ga-Kr : Obtained from the ccRepo (grant-hill.group.shef.ac.uk/ccrepo) Feb. 2017
                 A. K. Wilson, D. E. Woon, K. A. Peterson, T. H. Dunning, Jr., J. Chem. Phys. 110, 7667 (1999)
             Y : Obtained from the ccRepo (grant-hill.group.shef.ac.uk/ccrepo) Feb. 2017
                 K. A. Peterson, D. Figgen, M. Dolg, H. Stoll, J. Chem. Phys. 126, 124101 (2007)
        Ag, Au : Obtained from the Peterson Research Group Website (tyr0.chem.wsu.edu/~kipeters) Feb. 2017
                 K. A. Peterson, C. Puzzarini, Theor. Chem. Acc. 114, 283 (2005)

================================================================================
                                        WARNINGS
                       Please study these warnings very carefully!
================================================================================


WARNING: MDCI localization with Augmented Hessian Foster-Boys
  ===> : Switching off randomization!

WARNING: Analytical Frequencies for this method not available!
  ===> : Switching to Numerical Frequencies!

WARNING: The environment variable RSH_COMMAND is not set!
  ===> : All Displacements for the Numerical Hessian calculation
         will be started on localhost

WARNING: Numerical Frequencies Analysis needs Gradient calculation
  ===> : Will do Numerical Gradient calculation !!!

WARNING: Geometry Optimization
  ===> : Switching off AutoStart
         For restart on a previous wavefunction, please use MOREAD

WARNING: Post HF methods need fully converged wavefunctions
  ===> : Setting SCFConvForced true
         You can overwrite this default with %scf ConvForced false 


INFO   : the flag for use of LIBINT has been found!

================================================================================
                                       INPUT FILE
================================================================================
NAME = NH3.inp
|  1> ! CCSD(T) cc-pVTZ Opt Freq NumGrad TightOpt TightSCF Grid4 FinalGrid5 PrintBasis PrintMOs NBO
|  2> 
|  3> %pal
|  4>  nprocs 10
|  5> end
|  6> 
|  7> *xyzfile 0 1 init.xyz
|  8> 
|  9>                          ****END OF INPUT****
================================================================================

                       *****************************
                       * Geometry Optimization Run *
                       *****************************

Geometry optimization settings:
Update method            Update   .... BFGS
Choice of coordinates    CoordSys .... Z-matrix Internals
Initial Hessian          InHess   .... Almoef's Model

Convergence Tolerances:
Energy Change            TolE     ....  1.0000e-06 Eh
Max. Gradient            TolMAXG  ....  1.0000e-04 Eh/bohr
RMS Gradient             TolRMSG  ....  3.0000e-05 Eh/bohr
Max. Displacement        TolMAXD  ....  1.0000e-03 bohr
RMS Displacement         TolRMSD  ....  6.0000e-04 bohr
Strict Convergence                ....  False
------------------------------------------------------------------------------
                        ORCA OPTIMIZATION COORDINATE SETUP
------------------------------------------------------------------------------

The optimization will be done in new redundant internal coordinates
Making redundant internal coordinates   ...  (new redundants) done
Evaluating the initial hessian          ...  (Almloef) done
Evaluating the coordinates              ...  done
Calculating the B-matrix                .... done
Calculating the G-matrix                .... done
Diagonalizing the G-matrix              .... done
The first mode is                       ....    1
The number of degrees of freedom        ....    6

    -----------------------------------------------------------------
                    Redundant Internal Coordinates


    -----------------------------------------------------------------
         Definition                    Initial Value    Approx d2E/dq
    -----------------------------------------------------------------
      1. B(H   1,N   0)                  1.0231         0.412327   
      2. B(H   2,N   0)                  1.0231         0.412331   
      3. B(H   3,N   0)                  1.0231         0.412328   
      4. A(H   1,N   0,H   3)          106.6059         0.298629   
      5. A(H   2,N   0,H   3)          106.6091         0.298629   
      6. A(H   1,N   0,H   2)          106.6057         0.298629   
      7. I(H   1,H   3,H   2,N   0)    -61.4286         0.003695   
    -----------------------------------------------------------------

Number of atoms                         .... 4
Number of degrees of freedom            .... 7

         *************************************************************
         *                GEOMETRY OPTIMIZATION CYCLE   1            *
         *************************************************************
---------------------------------
CARTESIAN COORDINATES (ANGSTROEM)
---------------------------------
  N     -2.446414   -2.768264    0.015150
  H     -1.424443   -2.811571   -0.007254
  H     -2.764064   -3.609170    0.503792
  H     -2.764069   -2.855325   -0.953517

----------------------------
CARTESIAN COORDINATES (A.U.)
----------------------------
  NO LB      ZA    FRAG     MASS         X           Y           Z
   0 N     7.0000    0    14.007   -4.623052   -5.231260    0.028629
   1 H     1.0000    0     1.008   -2.691808   -5.313100   -0.013708
   2 H     1.0000    0     1.008   -5.223323   -6.820343    0.952029
   3 H     1.0000    0     1.008   -5.223334   -5.395782   -1.801887

--------------------------------
INTERNAL COORDINATES (ANGSTROEM)
--------------------------------
 N      0   0   0     0.000000000000     0.00000000     0.00000000
 H      1   0   0     1.023133070030     0.00000000     0.00000000
 H      1   2   0     1.023130595969   106.60571120     0.00000000
 H      1   2   3     1.023132664861   106.60590465   246.40930292

---------------------------
INTERNAL COORDINATES (A.U.)
---------------------------
 N      0   0   0     0.000000000000     0.00000000     0.00000000
 H      1   0   0     1.933441300914     0.00000000     0.00000000
 H      1   2   0     1.933436625617   106.60571120     0.00000000
 H      1   2   3     1.933440535256   106.60590465   246.40930292

---------------------
BASIS SET INFORMATION
---------------------
There are 2 groups of distinct atoms

 Group   1 Type N   : 18s5p2d1f contracted to 4s3p2d1f pattern {8811/311/11/1}
 Group   2 Type H   : 5s2p1d contracted to 3s2p1d pattern {311/11/1}

Atom   0N    basis set group =>   1
Atom   1H    basis set group =>   2
Atom   2H    basis set group =>   2
Atom   3H    basis set group =>   2

-------------------------
BASIS SET IN INPUT FORMAT
-------------------------

 # Basis set for element : H 
 NewGTO H 
 S 3 
   1      33.8700000000      0.0254948632
   2       5.0950000000      0.1903627659
   3       1.1590000000      0.8521620222
 S 1 
   1       0.3258000000      1.0000000000
 S 1 
   1       0.1027000000      1.0000000000
 P 1 
   1       1.4070000000      1.0000000000
 P 1 
   1       0.3880000000      1.0000000000
 D 1 
   1       1.0570000000      1.0000000000
  end;

 # Basis set for element : N 
 NewGTO N 
 S 8 
   1   11420.0000000000      0.0005349809
   2    1712.0000000000      0.0041376631
   3     389.3000000000      0.0212509149
   4     110.0000000000      0.0825762988
   5      35.5700000000      0.2384132727
   6      12.5400000000      0.4434316661
   7       4.6440000000      0.3554319088
   8       0.5118000000     -0.0087029018
 S 8 
   1   11420.0000000000     -0.0001987770
   2    1712.0000000000     -0.0015470035
   3     389.3000000000     -0.0079925633
   4     110.0000000000     -0.0320255651
   5      35.5700000000     -0.0991102048
   6      12.5400000000     -0.2282927747
   7       4.6440000000     -0.2981827627
   8       0.5118000000      1.0370005182
 S 1 
   1       1.2930000000      1.0000000000
 S 1 
   1       0.1787000000      1.0000000000
 P 3 
   1      26.6300000000      0.0398072123
   2       5.9480000000      0.2490026605
   3       1.7420000000      0.8104797267
 P 1 
   1       0.5550000000      1.0000000000
 P 1 
   1       0.1725000000      1.0000000000
 D 1 
   1       1.6540000000      1.0000000000
 D 1 
   1       0.4690000000      1.0000000000
 F 1 
   1       1.0930000000      1.0000000000
  end;



           ************************************************************
           *        Program running with 10 parallel MPI-processes    *
           *              working on a common directory               *
           ************************************************************
------------------------------------------------------------------------------
                           ORCA GTO INTEGRAL CALCULATION
------------------------------------------------------------------------------

                         BASIS SET STATISTICS AND STARTUP INFO

 # of primitive gaussian shells          ...   50
 # of primitive gaussian functions       ...   98
 # of contracted shells                  ...   28
 # of contracted basis functions         ...   72
 Highest angular momentum                ...    3
 Maximum contraction depth               ...    8
 Integral package used                   ... LIBINT
 Integral threshhold            Thresh   ...  2.500e-11
 Primitive cut-off              TCut     ...  2.500e-12


------------------------------ INTEGRAL EVALUATION ----------------------------


 * One electron integrals 
 Pre-screening matrix                    ... done
 Shell pair data                         ... done (   0.000 sec)



           ************************************************************
           *        Program running with 10 parallel MPI-processes    *
           *              working on a common directory               *
           ************************************************************
-------------------------------------------------------------------------------
                                 ORCA SCF
-------------------------------------------------------------------------------

------------
SCF SETTINGS
------------
Hamiltonian:
 Ab initio Hamiltonian  Method          .... Hartree-Fock(GTOs)


General Settings:
 Integral files         IntName         .... NH3
 Hartree-Fock type      HFTyp           .... RHF
 Total Charge           Charge          ....    0
 Multiplicity           Mult            ....    1
 Number of Electrons    NEL             ....   10
 Basis Dimension        Dim             ....   72
 Nuclear Repulsion      ENuc            ....     11.8290556944 Eh

Convergence Acceleration:
 DIIS                   CNVDIIS         .... on
   Start iteration      DIISMaxIt       ....    12
   Startup error        DIISStart       ....  0.200000
   # of expansion vecs  DIISMaxEq       ....     5
   Bias factor          DIISBfac        ....   1.050
   Max. coefficient     DIISMaxC        ....  10.000
 Newton-Raphson         CNVNR           .... off
 SOSCF                  CNVSOSCF        .... on
   Start iteration      SOSCFMaxIt      ....   150
   Startup grad/error   SOSCFStart      ....  0.003300
 Level Shifting         CNVShift        .... on
   Level shift para.    LevelShift      ....    0.2500
   Turn off err/grad.   ShiftErr        ....    0.0010
 Zerner damping         CNVZerner       .... off
 Static damping         CNVDamp         .... on
   Fraction old density DampFac         ....    0.7000
   Max. Damping (<1)    DampMax         ....    0.9800
   Min. Damping (>=0)   DampMin         ....    0.0000
   Turn off err/grad.   DampErr         ....    0.1000
 Fernandez-Rico         CNVRico         .... off

SCF Procedure:
 Maximum # iterations   MaxIter         ....   125
 SCF integral mode      SCFMode         .... Direct
   Integral package                     .... LIBINT
 Reset frequency        DirectResetFreq ....    20
 Integral Threshold     Thresh          ....  2.500e-11 Eh
 Primitive CutOff       TCut            ....  2.500e-12 Eh

Convergence Tolerance:
 Convergence Check Mode ConvCheckMode   .... Total+1el-Energy
 Convergence forced     ConvForced      .... 1
 Energy Change          TolE            ....  1.000e-08 Eh
 1-El. energy change                    ....  1.000e-05 Eh
 Orbital Gradient       TolG            ....  1.000e-05
 Orbital Rotation angle TolX            ....  1.000e-05
 DIIS Error             TolErr          ....  5.000e-07


Diagonalization of the overlap matrix:
Smallest eigenvalue                        ... 1.810e-03
Time for diagonalization                   ...    0.005 sec
Threshold for overlap eigenvalues          ... 1.000e-08
Number of eigenvalues below threshold      ... 0
Time for construction of square roots      ...    0.003 sec
Total time needed                          ...    0.008 sec

-------------------
DFT GRID GENERATION
-------------------

General Integration Accuracy     IntAcc      ...  4.670
Radial Grid Type                 RadialGrid  ... Gauss-Chebyshev
Angular Grid (max. acc.)         AngularGrid ... Lebedev-302
Angular grid pruning method      GridPruning ... 3 (G Style)
Weight generation scheme         WeightScheme... Becke
Basis function cutoff            BFCut       ...    1.0000e-11
Integration weight cutoff        WCut        ...    1.0000e-14
Grids for H and He will be reduced by one unit

# of grid points (after initial pruning)     ...  16394 (   0.0 sec)
# of grid points (after weights+screening)   ...  16134 (   0.0 sec)
nearest neighbour list constructed           ...    0.0 sec
Grid point re-assignment to atoms done       ...    0.0 sec
Grid point division into batches done        ...    0.2 sec
Reduced shell lists constructed in    0.2 sec

Total number of grid points                  ...    16134
Total number of batches                      ...      255
Average number of points per batch           ...       63
Average number of grid points per atom       ...     4034
Average number of shells per batch           ...    24.44 (87.30%)
Average number of basis functions per batch  ...    62.15 (86.32%)
Average number of large shells per batch     ...    22.74 (93.03%)
Average number of large basis fcns per batch ...    57.63 (92.73%)
Maximum spatial batch extension              ...  12.33, 11.10, 13.13 au
Average spatial batch extension              ...   0.30,  0.29,  0.29 au

Time for grid setup =    0.214 sec

------------------------------
INITIAL GUESS: MODEL POTENTIAL
------------------------------
Loading Hartree-Fock densities                     ... done
Calculating cut-offs                               ... done
Setting up the integral package                    ... done
Initializing the effective Hamiltonian             ... done
Starting the Coulomb interaction                   ... done (   0.0 sec)
Reading the grid                                   ... done
Mapping shells                                     ... done
Starting the XC term evaluation                    ... done (   0.0 sec)
Transforming the Hamiltonian                       ... done (   0.0 sec)
Diagonalizing the Hamiltonian                      ... done (   0.0 sec)
Back transforming the eigenvectors                 ... done (   0.0 sec)
Now organizing SCF variables                       ... done
                      ------------------
                      INITIAL GUESS DONE (   0.5 sec)
                      ------------------
--------------
SCF ITERATIONS
--------------
ITER       Energy         Delta-E        Max-DP      RMS-DP      [F,P]     Damp
               ***  Starting incremental Fock matrix formation  ***
  0    -56.0770170589   0.000000000000 0.03693783  0.00155758  0.3936392 0.7000
  1    -56.1316755579  -0.054658499010 0.02879373  0.00115503  0.2359433 0.7000
                               ***Turning on DIIS***
  2    -56.1612988477  -0.029623289782 0.01545544  0.00067399  0.1277842 0.7000
  3    -56.3499546461  -0.188655798480 0.03288594  0.00106504  0.0787504 0.0000
  4    -56.1826958020   0.167258844107 0.00763968  0.00025158  0.0153755 0.0000
                      *** Initiating the SOSCF procedure ***
                           *** Shutting down DIIS ***
                      *** Re-Reading the Fockian *** 
                      *** Removing any level shift *** 
ITER      Energy       Delta-E        Grad      Rot      Max-DP    RMS-DP
  5    -56.21578787  -0.0330920700  0.001949  0.001949  0.002674  0.000115
               *** Restarting incremental Fock matrix formation ***
  6    -56.21686194  -0.0010740634  0.000690  0.000998  0.001836  0.000077
  7    -56.21686692  -0.0000049850  0.000276  0.000813  0.001258  0.000053
  8    -56.21686800  -0.0000010834  0.000021  0.000045  0.000037  0.000002
  9    -56.21686801  -0.0000000071  0.000014  0.000035  0.000023  0.000001
 10    -56.21686801  -0.0000000017  0.000003  0.000004  0.000003  0.000000
                 **** Energy Check signals convergence ****
              ***Rediagonalizing the Fockian in SOSCF/NRSCF***

               *****************************************************
               *                     SUCCESS                       *
               *           SCF CONVERGED AFTER  11 CYCLES          *
               *****************************************************


----------------
TOTAL SCF ENERGY
----------------

Total Energy       :          -56.21686801 Eh           -1529.73875 eV

Components:
Nuclear Repulsion  :           11.82905569 Eh             321.88497 eV
Electronic Energy  :          -68.04592371 Eh           -1851.62372 eV
One Electron Energy:          -99.42513237 Eh           -2705.49540 eV
Two Electron Energy:           31.37920866 Eh             853.87168 eV

Virial components:
Potential Energy   :         -112.31914676 Eh           -3056.35937 eV
Kinetic Energy     :           56.10227875 Eh            1526.62062 eV
Virial Ratio       :            2.00204251


---------------
SCF CONVERGENCE
---------------

  Last Energy change         ...   -1.0237e-10  Tolerance :   1.0000e-08
  Last MAX-Density change    ...    2.3042e-06  Tolerance :   1.0000e-07
  Last RMS-Density change    ...    8.2637e-08  Tolerance :   5.0000e-09
  Last Orbital Gradient      ...    6.2371e-07  Tolerance :   1.0000e-05
  Last Orbital Rotation      ...    8.0653e-07  Tolerance :   1.0000e-05

             **** THE GBW FILE WAS UPDATED (NH3.gbw) ****
             **** DENSITY FILE WAS UPDATED (NH3.scfp) ****
             **** ENERGY FILE WAS UPDATED (NH3.en.tmp) ****
             **** THE GBW FILE WAS UPDATED (NH3.gbw) ****
             **** DENSITY FILE WAS UPDATED (NH3.scfp) ****
----------------
ORBITAL ENERGIES
----------------

  NO   OCC          E(Eh)            E(eV) 
   0   2.0000     -15.537472      -422.7961 
   1   2.0000      -1.131926       -30.8013 
   2   2.0000      -0.618984       -16.8434 
   3   2.0000      -0.618974       -16.8431 
   4   2.0000      -0.426001       -11.5921 
   5   0.0000       0.136377         3.7110 
   6   0.0000       0.216212         5.8834 
   7   0.0000       0.216214         5.8835 
   8   0.0000       0.476365        12.9626 
   9   0.0000       0.476373        12.9628 
  10   0.0000       0.599163        16.3041 
  11   0.0000       0.631486        17.1836 
  12   0.0000       0.705523        19.1983 
  13   0.0000       0.705527        19.1984 
  14   0.0000       0.755786        20.5660 
  15   0.0000       0.755794        20.5662 
  16   0.0000       0.783350        21.3160 
  17   0.0000       1.119042        30.4507 
  18   0.0000       1.145829        31.1796 
  19   0.0000       1.210453        32.9381 
  20   0.0000       1.210461        32.9383 
  21   0.0000       1.441362        39.2215 
  22   0.0000       1.441371        39.2217 
  23   0.0000       1.582062        43.0501 
  24   0.0000       1.756446        47.7953 
  25   0.0000       1.756451        47.7955 
  26   0.0000       1.788604        48.6704 
  27   0.0000       1.788606        48.6704 
  28   0.0000       1.886350        51.3302 
  29   0.0000       2.608453        70.9796 
  30   0.0000       2.608458        70.9798 
  31   0.0000       2.673913        72.7609 
  32   0.0000       3.339536        90.8734 
  33   0.0000       3.468604        94.3855 
  34   0.0000       3.468641        94.3865 
  35   0.0000       3.526214        95.9532 
  36   0.0000       3.530223        96.0622 
  37   0.0000       3.531671        96.1016 
  38   0.0000       3.531688        96.1021 
  39   0.0000       3.708435       100.9116 
  40   0.0000       3.797847       103.3447 
  41   0.0000       3.797848       103.3447 
  42   0.0000       3.823752       104.0496 
  43   0.0000       3.823763       104.0499 
  44   0.0000       3.955371       107.6311 
  45   0.0000       3.955389       107.6316 
  46   0.0000       3.996032       108.7375 
  47   0.0000       4.126301       112.2824 
  48   0.0000       4.231789       115.1528 
  49   0.0000       4.231804       115.1532 
  50   0.0000       4.382738       119.2604 
  51   0.0000       4.382752       119.2607 
  52   0.0000       4.527527       123.2003 
  53   0.0000       4.527547       123.2008 
  54   0.0000       4.562050       124.1397 
  55   0.0000       4.701254       127.9276 
  56   0.0000       4.984140       135.6254 
  57   0.0000       5.252762       142.9349 
  58   0.0000       5.252774       142.9352 
  59   0.0000       5.333114       145.1214 
  60   0.0000       5.707034       155.2963 
  61   0.0000       5.707061       155.2970 
  62   0.0000       5.872684       159.8038 
  63   0.0000       6.133053       166.8889 
  64   0.0000       6.133096       166.8900 
  65   0.0000       6.233113       169.6116 
  66   0.0000       6.309551       171.6916 
  67   0.0000       6.328314       172.2022 
  68   0.0000       6.328318       172.2023 
  69   0.0000       7.226273       196.6369 
  70   0.0000       7.226303       196.6377 
  71   0.0000      13.757794       374.3686 
------------------
MOLECULAR ORBITALS
------------------
                      0         1         2         3         4         5   
                 -15.53747  -1.13193  -0.61898  -0.61897  -0.42600   0.13638
                   2.00000   2.00000   2.00000   2.00000   2.00000   0.00000
                  --------  --------  --------  --------  --------  --------
  0N   1s         0.977021  0.012229 -0.000000 -0.000000  0.001208 -0.006974
  0N   2s         0.000077 -0.468923 -0.000001 -0.000005  0.162042 -0.200717
  0N   3s         0.042343 -0.111883 -0.000000 -0.000001  0.046456 -0.036538
  0N   4s         0.001513 -0.235149 -0.000001 -0.000006  0.182189 -2.815363
  0N   1pz       -0.000867  0.017514  0.223955  0.038756  0.130680  0.019833
  0N   1px        0.000667 -0.013478 -0.000144  0.237750 -0.100557 -0.015263
  0N   1py       -0.001676  0.033858 -0.115907  0.074589  0.252624  0.038340
  0N   2pz        0.000493  0.026144  0.268720  0.046503  0.167377  0.097255
  0N   2px       -0.000380 -0.020120 -0.000173  0.285274 -0.128796 -0.074841
  0N   2py        0.000953  0.050541 -0.139075  0.089498  0.323567  0.188010
  0N   3pz        0.000021  0.004890  0.135195  0.023397  0.167870  0.274232
  0N   3px       -0.000016 -0.003764 -0.000087  0.143527 -0.129176 -0.211041
  0N   3py        0.000041  0.009454 -0.069970  0.045029  0.324520  0.530135
  0N   1dz2       0.000027 -0.000782 -0.009926 -0.007535  0.000866  0.000409
  0N   1dxz       0.000030 -0.000895 -0.004392 -0.002797  0.000992  0.000468
  0N   1dyz      -0.000076  0.002249 -0.008119  0.001259 -0.002491 -0.001176
  0N   1dx2y2     0.000062 -0.001829 -0.005740  0.011248  0.002026  0.000956
  0N   1dxy       0.000059 -0.001730  0.002276 -0.005401  0.001917  0.000904
  0N   2dz2      -0.000027 -0.001112 -0.014377 -0.007782  0.003547 -0.014708
  0N   2dxz      -0.000031 -0.001271 -0.001620 -0.005410  0.004059 -0.016825
  0N   2dyz       0.000078  0.003195 -0.011756 -0.000914 -0.010198  0.042276
  0N   2dx2y2    -0.000064 -0.002598 -0.008312  0.014742  0.008295 -0.034383
  0N   2dxy      -0.000060 -0.002458  0.000846 -0.010456  0.007848 -0.032525
  0N   1f0       -0.000114  0.002659  0.000038 -0.000053  0.001947  0.010359
  0N   1f+1      -0.000178  0.002658  0.000532  0.000157  0.000110  0.010716
  0N   1f-1      -0.000028  0.000491 -0.001507 -0.000264  0.000156  0.001954
  0N   1f+2      -0.000060  0.001936  0.000311  0.000809  0.002097  0.007411
  0N   1f-2       0.000091 -0.000387  0.000477 -0.000727  0.001850 -0.001927
  0N   1f+3      -0.000125  0.002984 -0.000412 -0.000639  0.002280  0.011607
  0N   1f-3      -0.000038  0.000068  0.000509 -0.001273 -0.000970  0.000464
  1H   1s         0.000275 -0.086204 -0.000100  0.163995 -0.044055  0.001035
  1H   2s         0.000619 -0.084077 -0.000163  0.267879 -0.045974  0.462465
  1H   3s        -0.000182 -0.008563 -0.000061  0.099876 -0.021494  0.917106
  1H   1pz       -0.000023 -0.000033  0.004798  0.001417  0.003657  0.002114
  1H   1px        0.000143  0.010053  0.000010 -0.016600  0.002789  0.008576
  1H   1py       -0.000044 -0.000063 -0.002484  0.002732  0.007069  0.004086
  1H   2pz       -0.000040  0.001124  0.013528  0.001572  0.008776 -0.009016
  1H   2px       -0.000337  0.007638  0.000019 -0.030498 -0.005127 -0.238311
  1H   2py       -0.000077  0.002172 -0.007000  0.003018  0.016965 -0.017429
  1H   1dz2       0.000166  0.000785 -0.000020 -0.003486 -0.000033 -0.008926
  1H   1dxz       0.000054  0.000015 -0.001898 -0.000556 -0.001479 -0.000758
  1H   1dyz      -0.000010 -0.000059 -0.000018 -0.000305  0.000448 -0.000318
  1H   1dx2y2    -0.000273 -0.001276 -0.000017  0.006471 -0.000577  0.015911
  1H   1dxy       0.000105  0.000029  0.000983 -0.001072 -0.002858 -0.001466
  2H   1s         0.000275 -0.086204  0.142074 -0.081910 -0.044057  0.001035
  2H   2s         0.000620 -0.084076  0.232070 -0.133796 -0.045977  0.462475
  2H   3s        -0.000182 -0.008563  0.086521 -0.049885 -0.021496  0.917106
  2H   1pz        0.000041  0.005068 -0.004054  0.005934  0.006507  0.007304
  2H   1px       -0.000024 -0.003317  0.005740  0.001783 -0.004682 -0.005027
  2H   1py       -0.000143 -0.008024  0.013109 -0.007391  0.002621 -0.004012
  2H   2pz       -0.000227  0.005448 -0.007166  0.014272  0.009603 -0.133764
  2H   2px        0.000153 -0.003698  0.013629  0.006499 -0.007295  0.088684
  2H   2py        0.000215 -0.004577  0.022969 -0.012773  0.015674  0.177265
  2H   1dz2       0.000101  0.000181 -0.001875 -0.000195 -0.001722 -0.002997
  2H   1dxz       0.000050  0.000480 -0.001387  0.000241  0.001175 -0.004309
  2H   1dyz       0.000195  0.001014 -0.003896  0.003329  0.001181 -0.012577
  2H   1dx2y2     0.000224  0.000724 -0.003124  0.002435 -0.002064 -0.009098
  2H   1dxy      -0.000122 -0.000659  0.003531 -0.000432 -0.000943  0.008198
  3H   1s         0.000275 -0.086203 -0.141975 -0.082083 -0.044057  0.001036
  3H   2s         0.000620 -0.084076 -0.231907 -0.134078 -0.045978  0.462473
  3H   3s        -0.000182 -0.008563 -0.086461 -0.049990 -0.021496  0.917107
  3H   1pz       -0.000141 -0.009477 -0.013030 -0.009477 -0.001620 -0.007495
  3H   1px       -0.000024 -0.003317 -0.005742  0.001776 -0.004682 -0.005027
  3H   1py       -0.000049 -0.000500 -0.004266  0.000567  0.006825  0.003643
  3H   2pz        0.000307 -0.006884 -0.022864 -0.018699  0.007244  0.221968
  3H   2px        0.000153 -0.003698 -0.013637  0.006482 -0.007295  0.088685
  3H   2py       -0.000061  0.001802 -0.007428  0.004259  0.016894 -0.006750
  3H   1dz2      -0.000288 -0.001246 -0.004978 -0.004130  0.000225  0.015519
  3H   1dxz      -0.000128 -0.000815 -0.003683 -0.000496 -0.001449  0.009180
  3H   1dyz      -0.000124 -0.000152 -0.001710  0.000115  0.002773  0.002560
  3H   1dx2y2    -0.000001 -0.000100 -0.000836  0.000165 -0.000940  0.001592
  3H   1dxy      -0.000030  0.000011 -0.000908 -0.000054  0.000414  0.001220
                      6         7         8         9        10        11   
                   0.21621   0.21621   0.47637   0.47637   0.59916   0.63149
                   0.00000   0.00000   0.00000   0.00000   0.00000   0.00000
                  --------  --------  --------  --------  --------  --------
  0N   1s        -0.000000 -0.000000  0.000001 -0.000000 -0.067978  0.031756
  0N   2s         0.000000 -0.000003  0.000007  0.000000 -0.023541  0.294609
  0N   3s        -0.000000 -0.000001  0.000001  0.000000  0.070756  0.046185
  0N   4s        -0.000006 -0.000009 -0.000010 -0.000017 -5.037064  0.578983
  0N   1pz       -0.120706  0.014027 -0.002134 -0.013359 -0.110877  0.006662
  0N   1px       -0.006996  0.126922 -0.014152 -0.000176  0.085323 -0.005136
  0N   1py        0.059655  0.043266 -0.004532  0.006840 -0.214342  0.012882
  0N   2pz       -0.231387  0.026889 -0.052311 -0.327727 -0.100162  0.083110
  0N   2px       -0.013410  0.243300 -0.347114 -0.004324  0.077075 -0.063914
  0N   2py        0.114356  0.082939 -0.111110  0.167809 -0.193628  0.160657
  0N   3pz       -1.040261  0.120883 -0.273744 -1.715005  0.977357 -0.299223
  0N   3px       -0.060289  1.093801 -1.816436 -0.022629 -0.752125  0.230542
  0N   3py        0.514116  0.372865 -0.581432  0.878149  1.889379 -0.578515
  0N   1dz2      -0.002749  0.001803 -0.018072 -0.020277 -0.001764 -0.003173
  0N   1dxz      -0.001129  0.000707 -0.004114 -0.013650 -0.002020 -0.003628
  0N   1dyz      -0.002143 -0.000408  0.005486 -0.016323  0.005073  0.009122
  0N   1dx2y2    -0.001361 -0.003050  0.024400 -0.011273 -0.004127 -0.007419
  0N   1dxy       0.000481  0.001513 -0.008368  0.006930 -0.003906 -0.007014
  0N   2dz2       0.074631 -0.044832  0.188147  0.222416 -0.030818 -0.008600
  0N   2dxz       0.024385 -0.021469  0.049779  0.134428 -0.035246 -0.009841
  0N   2dyz       0.058582  0.007372 -0.051291  0.179263  0.088572  0.024678
  0N   2dx2y2     0.037200  0.080960 -0.262760  0.123788 -0.072031 -0.020059
  0N   2dxy      -0.009542 -0.044626  0.100312 -0.067967 -0.068132 -0.019022
  0N   1f0       -0.000573  0.001257 -0.024110 -0.009162  0.021179 -0.006593
  0N   1f+1      -0.001433 -0.000577  0.011028 -0.021314  0.018346 -0.009840
  0N   1f-1       0.000544  0.000226 -0.006251 -0.005353  0.003601 -0.001578
  0N   1f+2       0.000481  0.001104 -0.011654  0.013019  0.016469 -0.003601
  0N   1f-2      -0.001266 -0.000839  0.006885 -0.019123  0.000199  0.004733
  0N   1f+3       0.001215 -0.001465  0.021368  0.016882  0.023915 -0.007232
  0N   1f-3       0.000259 -0.000162 -0.009969  0.009697 -0.001030 -0.001970
  1H   1s         0.000710 -0.012880  0.087608  0.001091 -0.071785 -0.061024
  1H   2s         0.010467 -0.189902  2.052524  0.025565  1.394763 -0.972901
  1H   3s         0.122735 -2.226882 -0.030538 -0.000378  0.696420  0.359004
  1H   1pz       -0.005896  0.001601 -0.002847 -0.011108  0.006109  0.003339
  1H   1px        0.001118 -0.020276 -0.061644 -0.000768  0.002100  0.016484
  1H   1py        0.002791  0.003876 -0.005841  0.005655  0.011810  0.006455
  1H   2pz        0.036999 -0.002640  0.006719 -0.021646 -0.079783 -0.061939
  1H   2px       -0.012138  0.220235 -0.325260 -0.004052 -0.736883 -0.159108
  1H   2py       -0.018509 -0.010064  0.012326  0.011393 -0.154236 -0.119727
  1H   1dz2      -0.001105  0.006624 -0.027403 -0.011829 -0.020273 -0.004363
  1H   1dxz      -0.000260 -0.001325  0.001518  0.004352  0.006003  0.000833
  1H   1dyz      -0.000646  0.000751  0.002825 -0.009355 -0.000223  0.005940
  1H   1dx2y2     0.000272 -0.012678  0.043959 -0.006085  0.035429 -0.000853
  1H   1dxy       0.000311 -0.002517  0.003066 -0.002203  0.011605  0.001610
  2H   1s         0.010797  0.007055 -0.044755  0.075323 -0.071784 -0.061029
  2H   2s         0.159231  0.104015 -1.048424  1.764816  1.394785 -0.972677
  2H   3s         1.867154  1.219742  0.015618 -0.026198  0.696406  0.359130
  2H   1pz        0.004348  0.007338  0.011956 -0.034202  0.009570  0.013031
  2H   1px       -0.006931  0.001840 -0.020811  0.015101 -0.006968 -0.008917
  2H   1py       -0.015720 -0.010061 -0.023267  0.038512  0.006412 -0.008667
  2H   2pz       -0.075414 -0.077807  0.067778 -0.141752 -0.485819 -0.167207
  2H   2px        0.076038  0.009267 -0.069165  0.077320  0.327480  0.116580
  2H   2py        0.152368  0.098213 -0.136806  0.229006  0.479486  0.044448
  2H   1dz2      -0.000520  0.000685 -0.004926 -0.007172  0.002771  0.001344
  2H   1dxz      -0.004165 -0.002309  0.007306 -0.018126 -0.017693 -0.006865
  2H   1dyz      -0.009274 -0.005798  0.011212 -0.034809 -0.031243  0.001337
  2H   1dx2y2    -0.003254 -0.002738  0.016012 -0.016585 -0.009887 -0.002449
  2H   1dxy       0.006007  0.004235 -0.021408  0.014376  0.021037 -0.001268
  3H   1s        -0.011508  0.005826 -0.042865 -0.076415 -0.071784 -0.061030
  3H   2s        -0.169695  0.085885 -1.004142 -1.790374  1.394789 -0.972643
  3H   3s        -1.989886  1.007155  0.014963  0.026588  0.696407  0.359158
  3H   1pz        0.016618 -0.010690 -0.024615 -0.051823 -0.000296 -0.014602
  3H   1px        0.006686  0.002591 -0.020428 -0.015615 -0.006968 -0.008917
  3H   1py        0.005482  0.000784 -0.003825  0.005569  0.011516  0.005628
  3H   2pz       -0.180665  0.105903 -0.144076 -0.272482  0.672055  0.132902
  3H   2px       -0.076596  0.000855 -0.067220 -0.079018  0.327483  0.116592
  3H   2py       -0.025585 -0.009626 -0.023306 -0.017212 -0.119463 -0.110788
  3H   1dz2      -0.010088  0.005239 -0.017447 -0.038441  0.031226  0.000323
  3H   1dxz      -0.007792  0.003958 -0.021134 -0.022740  0.027393  0.002933
  3H   1dyz       0.001247 -0.001064  0.000251 -0.002107 -0.007982  0.000501
  3H   1dx2y2    -0.002545  0.000235  0.008467 -0.009284  0.006542 -0.003039
  3H   1dxy      -0.000133  0.000551 -0.006566  0.006326 -0.002285 -0.006335
                     12        13        14        15        16        17   
                   0.70552   0.70553   0.75579   0.75579   0.78335   1.11904
                   0.00000   0.00000   0.00000   0.00000   0.00000   0.00000
                  --------  --------  --------  --------  --------  --------
  0N   1s        -0.000000  0.000006 -0.000001 -0.000006  0.050702 -0.000000
  0N   2s        -0.000005  0.000035 -0.000003 -0.000043  0.371676 -0.000000
  0N   3s        -0.000001  0.000011 -0.000001 -0.000019  0.177794 -0.000000
  0N   4s         0.000033 -0.000207  0.000023  0.000556 -6.136977  0.000000
  0N   1pz       -0.223950  0.022476  0.166604  0.023290  0.010482  0.000001
  0N   1px       -0.016645  0.234868  0.005597  0.175854 -0.008059 -0.000000
  0N   1py        0.109220  0.081873 -0.083955  0.057944  0.020264 -0.000001
  0N   2pz        0.185909 -0.018627  0.063150  0.008798  0.315261 -0.000010
  0N   2px        0.013819 -0.194972  0.002125  0.066724 -0.242590 -0.000000
  0N   2py       -0.090679 -0.067907 -0.031828  0.021905  0.609458  0.000005
  0N   3pz        2.518079 -0.252673 -0.809944 -0.113219  0.122999  0.000128
  0N   3px        0.187148 -2.640706 -0.027205 -0.854686 -0.094680 -0.000013
  0N   3py       -1.228069 -0.920484  0.408146 -0.281672  0.237777 -0.000071
  0N   1dz2       0.012039  0.011492  0.007192 -0.012359  0.004519 -0.000001
  0N   1dxz      -0.024170 -0.014198 -0.023374  0.010659  0.005174 -0.000001
  0N   1dyz       0.011596 -0.015366  0.006661  0.014459 -0.012993 -0.000000
  0N   1dx2y2     0.007067  0.004993  0.004383  0.000098  0.010570 -0.000000
  0N   1dxy       0.014660 -0.023096  0.012863  0.018758  0.010002  0.000000
  0N   2dz2      -0.387225  0.216533  0.187710  0.252998 -0.065362  0.000003
  0N   2dxz      -0.114993  0.113027  0.265016 -0.011296 -0.074788  0.000004
  0N   2dyz      -0.301485 -0.035471  0.142575 -0.134778  0.187895  0.000002
  0N   2dx2y2    -0.185244 -0.415738  0.095225 -0.267173 -0.152826  0.000001
  0N   2dxy       0.038544  0.236987 -0.137311 -0.001171 -0.144575 -0.000003
  0N   1f0        0.006403 -0.015278 -0.007997 -0.018672  0.043341  0.013423
  0N   1f+1       0.008970  0.008624 -0.021312  0.007978  0.059095 -0.006608
  0N   1f-1       0.014982 -0.004911  0.008180 -0.003126  0.009756 -0.011136
  0N   1f+2      -0.010530 -0.001959  0.007424 -0.016130  0.025728 -0.015327
  0N   1f-2       0.008624 -0.000636 -0.018932  0.011950 -0.024626 -0.005917
  0N   1f+3      -0.008009  0.008304  0.017405  0.021990  0.047821  0.005119
  0N   1f-3      -0.008862 -0.016406  0.003719  0.002568  0.009862 -0.007990
  1H   1s         0.005223 -0.073701 -0.000754 -0.023683 -0.026699 -0.000000
  1H   2s        -0.099968  1.410670  0.011833  0.371825  1.615538  0.000009
  1H   3s        -0.124351  1.754649  0.033246  1.044719  0.693544  0.000002
  1H   1pz        0.029028  0.006493  0.028659 -0.016326 -0.009275 -0.055864
  1H   1px        0.001793 -0.025307 -0.000435 -0.013670 -0.037602 -0.000000
  1H   1py       -0.015782  0.007457 -0.016025 -0.029287 -0.017931  0.028897
  1H   2pz       -0.517668 -0.132155 -0.471386  0.280102  0.171171  0.740187
  1H   2px        0.074214 -1.047202 -0.019364 -0.608504 -0.774594  0.000001
  1H   2py        0.284282 -0.164413  0.264491  0.504067  0.330904 -0.382881
  1H   1dz2       0.014338 -0.033950  0.003824 -0.030387 -0.034196  0.006049
  1H   1dxz       0.032400  0.011388  0.035295 -0.012815 -0.014079 -0.004571
  1H   1dyz       0.010305 -0.007769  0.004314  0.012485 -0.009912  0.004945
  1H   1dx2y2     0.001736  0.072720  0.003862  0.034426  0.073263  0.003493
  1H   1dxy      -0.018331  0.016278 -0.019168 -0.021992 -0.027216  0.002364
  2H   1s         0.061209  0.041368 -0.020144  0.012500 -0.026699  0.000001
  2H   2s        -1.171610 -0.791887  0.316345 -0.196365  1.615573 -0.000068
  2H   3s        -1.457239 -0.984944  0.888385 -0.551257  0.693515 -0.000023
  2H   1pz        0.016284 -0.012046 -0.014140  0.031067 -0.032026  0.036279
  2H   1px        0.011899 -0.024594  0.031440  0.012043  0.022051  0.051356
  2H   1py       -0.021036 -0.015284 -0.007616  0.005756  0.017591  0.001681
  2H   2pz        0.361023  0.655964 -0.114333 -0.295953 -0.155908 -0.480716
  2H   2px       -0.641475  0.149717 -0.291207 -0.338708  0.082557 -0.680465
  2H   2py       -0.594878 -0.383030  0.700868 -0.451945  0.841201 -0.022270
  2H   1dz2       0.015417 -0.025426 -0.002546  0.030701 -0.027069 -0.002851
  2H   1dxz       0.027276  0.003312 -0.005975  0.016250 -0.000396 -0.000993
  2H   1dyz       0.047083  0.044348 -0.025681 -0.002140 -0.054781 -0.005433
  2H   1dx2y2     0.006866  0.024090 -0.043112  0.011691 -0.050865  0.002141
  2H   1dxy      -0.045055 -0.010707 -0.002411 -0.025720  0.035395 -0.007521
  3H   1s        -0.066430  0.032322  0.020898  0.011195 -0.026700 -0.000001
  3H   2s         1.271577 -0.618735 -0.328195 -0.175860  1.615567  0.000059
  3H   3s         1.581567 -0.769581 -0.921638 -0.493666  0.693514  0.000021
  3H   1pz        0.027090 -0.001711 -0.002793 -0.013102  0.032862  0.019591
  3H   1px       -0.008311 -0.026026 -0.030612  0.014018  0.022051 -0.051356
  3H   1py        0.001508 -0.018637  0.017733  0.027611 -0.015975 -0.030582
  3H   2pz        0.784717 -0.586830 -0.649386 -0.156896  0.776650 -0.259590
  3H   2px        0.613948  0.238682  0.269081 -0.356539  0.082564  0.680473
  3H   2py        0.004282  0.317848 -0.342975 -0.481856  0.358798  0.405216
  3H   1dz2       0.049054 -0.043660 -0.046069 -0.002048  0.074068 -0.003200
  3H   1dxz       0.053510 -0.003138 -0.003414 -0.030226  0.029118  0.005565
  3H   1dyz      -0.003221  0.023929 -0.015839 -0.030356  0.027895  0.000486
  3H   1dx2y2     0.024869  0.013462  0.014576 -0.009852  0.007527 -0.005635
  3H   1dxy       0.004225 -0.002917  0.006155 -0.001993  0.020128  0.005156
                     18        19        20        21        22        23   
                   1.14583   1.21045   1.21046   1.44136   1.44137   1.58206
                   0.00000   0.00000   0.00000   0.00000   0.00000   0.00000
                  --------  --------  --------  --------  --------  --------
  0N   1s         0.117461  0.000001  0.000001  0.000000 -0.000000 -0.199326
  0N   2s         0.351210  0.000002  0.000002  0.000002 -0.000001 -0.615694
  0N   3s         0.197349  0.000001 -0.000001  0.000001  0.000000 -0.240631
  0N   4s        -6.283343 -0.000000  0.000130  0.000085 -0.000031 -2.371690
  0N   1pz        0.044067  0.055860  0.007302 -0.022025  0.118732  0.062645
  0N   1px       -0.033909  0.002401  0.058885 -0.126302 -0.001600 -0.048208
  0N   1py        0.085189 -0.027940  0.019659 -0.038885 -0.062055  0.121104
  0N   2pz        0.350719  0.280078  0.036612 -0.191984  1.034948  0.252420
  0N   2px       -0.269891  0.012037  0.295265 -1.100951 -0.013948 -0.194286
  0N   2py        0.678011 -0.140088  0.098569 -0.338937 -0.540912  0.487963
  0N   3pz        1.003561  1.628180  0.212831 -0.038924  0.209796  0.527583
  0N   3px       -0.772251  0.069975  1.716166 -0.223132 -0.002827 -0.405982
  0N   3py        1.940058 -0.814383  0.572977 -0.068713 -0.109638  1.019881
  0N   1dz2      -0.002001 -0.006074 -0.004720  0.009825 -0.010284 -0.001554
  0N   1dxz      -0.002289 -0.003425 -0.001294  0.002237 -0.007308 -0.001780
  0N   1dyz       0.005751 -0.004752  0.001387 -0.002793 -0.008544  0.004469
  0N   1dx2y2    -0.004677 -0.003109  0.007042 -0.012606 -0.006169 -0.003637
  0N   1dxy      -0.004424  0.001629 -0.002838  0.004096  0.003847 -0.003441
  0N   2dz2      -0.068197  0.004677 -0.033258 -0.321837  0.253795  0.223923
  0N   2dxz      -0.078037 -0.053475  0.020254 -0.022794  0.300239  0.256262
  0N   2dyz       0.196057  0.006231  0.031893  0.137777  0.212548 -0.643744
  0N   2dx2y2    -0.159468  0.003954  0.011597  0.351040  0.153333  0.523601
  0N   2dxy      -0.150858  0.029463  0.033736 -0.034731 -0.155899  0.495411
  0N   1f0        0.045709 -0.001836 -0.006318  0.023014 -0.007625 -0.044325
  0N   1f+1       0.042957  0.002148  0.004504 -0.011055 -0.015767 -0.058097
  0N   1f-1       0.008144 -0.021231 -0.004085  0.008201 -0.016932 -0.009719
  0N   1f+2       0.034300  0.007509  0.007629  0.003970  0.014783 -0.027176
  0N   1f-2      -0.003474  0.001430 -0.008070 -0.000132 -0.013995  0.022472
  0N   1f+3       0.051441 -0.001654 -0.003266 -0.015038  0.011914 -0.049025
  0N   1f-3      -0.000355  0.008204 -0.019398  0.019226  0.013455 -0.008789
  1H   1s        -0.004955  0.001419  0.034803  0.132467  0.001679  0.096347
  1H   2s         2.374213 -0.043236 -1.060513  0.564544  0.007163  0.717482
  1H   3s         0.383270 -0.009154 -0.224523  0.793172  0.010053  0.330489
  1H   1pz        0.027799  0.060582  0.029595 -0.004092  0.002903  0.013905
  1H   1px       -0.055121  0.000775  0.019021  0.121236  0.001537  0.111915
  1H   1py        0.053739 -0.028140  0.063135 -0.007818 -0.001627  0.026880
  1H   2pz       -0.339854 -0.859290 -0.426811  0.054816 -0.105984 -0.303679
  1H   2px       -0.482496 -0.000951 -0.023261 -1.575057 -0.019963 -0.738742
  1H   2py       -0.656994  0.398432 -0.909084  0.102648  0.056480 -0.587060
  1H   1dz2      -0.036824 -0.000546 -0.001518 -0.035811  0.014176  0.026844
  1H   1dxz       0.002284  0.014425  0.005125 -0.004234  0.031329  0.023961
  1H   1dyz       0.002957 -0.000062  0.008171  0.001159  0.011974 -0.022585
  1H   1dx2y2     0.059594 -0.000641 -0.008870  0.059742  0.009204 -0.014517
  1H   1dxy       0.004415 -0.006892  0.011325 -0.007211 -0.016325  0.046321
  2H   1s        -0.004956  0.029430 -0.018629 -0.064783 -0.115560  0.096359
  2H   2s         2.374251 -0.896800  0.567619 -0.276118 -0.492504  0.717370
  2H   3s         0.383280 -0.189874  0.120180 -0.387896 -0.691923  0.330510
  2H   1pz        0.010645  0.066446  0.003523 -0.029073 -0.047932  0.076277
  2H   1px       -0.010146 -0.003975  0.067056  0.015359  0.032952 -0.051569
  2H   1py        0.080518  0.023981 -0.013071  0.049610  0.088679 -0.070464
  2H   2pz       -0.718335 -0.844630 -0.111692  0.415824  0.600067 -0.798260
  2H   2px        0.509488 -0.006876 -0.910770 -0.144391 -0.458098  0.557765
  2H   2py       -0.066376 -0.513461  0.295129 -0.643238 -1.154001  0.184874
  2H   1dz2      -0.004798  0.011236  0.001987 -0.021125  0.026054  0.030456
  2H   1dxz      -0.025610 -0.007744  0.008920 -0.002631  0.022009  0.005390
  2H   1dyz      -0.048609  0.001227 -0.009480  0.029772  0.036563 -0.002488
  2H   1dx2y2    -0.029772  0.003909 -0.006902  0.033216  0.024144  0.056281
  2H   1dxy       0.031828 -0.009279 -0.006952 -0.003145 -0.032621  0.005568
  3H   1s        -0.004956 -0.030849 -0.016172 -0.067690  0.113883  0.096358
  3H   2s         2.374234  0.940034  0.492728 -0.288508  0.485370  0.717389
  3H   3s         0.383277  0.199028  0.104323 -0.405303  0.681879  0.330512
  3H   1pz        0.059566  0.017724 -0.014194  0.059806 -0.098589 -0.101583
  3H   1px       -0.010146  0.009420  0.066509  0.016189 -0.032553 -0.051570
  3H   1py        0.055212 -0.068242  0.000881  0.005242 -0.011989  0.021541
  3H   2pz        0.360873 -0.043865  0.310011 -0.797661  1.268794  0.612128
  3H   2px        0.509492 -0.067291 -0.908294 -0.155954  0.454303  0.557769
  3H   2py       -0.624643  0.989232 -0.001166 -0.036756  0.176147 -0.544693
  3H   1dz2       0.056875  0.004193  0.011423 -0.044592  0.042657 -0.030412
  3H   1dxz       0.040775  0.002207 -0.011044 -0.002043  0.039302  0.001430
  3H   1dyz       0.001807  0.010455 -0.002378  0.010961  0.020802 -0.052245
  3H   1dx2y2     0.005836  0.004335 -0.001637  0.019884  0.016680  0.021138
  3H   1dxy      -0.002512  0.011908  0.002302 -0.003986  0.000785  0.007616
                     24        25        26        27        28        29   
                   1.75645   1.75645   1.78860   1.78861   1.88635   2.60845
                   0.00000   0.00000   0.00000   0.00000   0.00000   0.00000
                  --------  --------  --------  --------  --------  --------
  0N   1s        -0.000001  0.000000 -0.000000 -0.000038  0.385932  0.000005
  0N   2s        -0.000002  0.000002 -0.000001 -0.000120  1.157194  0.000011
  0N   3s        -0.000002 -0.000001 -0.000001 -0.000050  0.408556  0.000003
  0N   4s         0.000015  0.000044  0.000006 -0.000310  4.880024  0.000050
  0N   1pz       -0.136512  0.029648  0.003751  0.000766 -0.082865 -0.310135
  0N   1px        0.006297  0.145992 -0.000113  0.004003  0.063769 -0.008546
  0N   1py        0.073122  0.042777 -0.001985  0.001222 -0.160195  0.157027
  0N   2pz       -2.360223  0.512581  0.016373  0.003321 -0.234470  0.933529
  0N   2px        0.108877  2.524096 -0.000493  0.017488  0.180371  0.025729
  0N   2py        1.264253  0.739579 -0.008668  0.005294 -0.453300 -0.472671
  0N   3pz       -2.415728  0.524639  0.887399  0.178790 -0.240396 -0.005303
  0N   3px        0.111427  2.583373 -0.026565  0.946584  0.185084 -0.000140
  0N   3py        1.293982  0.756963 -0.469618  0.284317 -0.464763  0.002672
  0N   1dz2       0.021811 -0.019904  0.004221 -0.012470 -0.007102 -0.057198
  0N   1dxz       0.012453 -0.006144 -0.021995  0.007228 -0.008126 -0.057398
  0N   1dyz       0.018689  0.003633  0.002795  0.013158  0.020418 -0.044724
  0N   1dx2y2     0.014208  0.025949  0.002141  0.003345 -0.016607 -0.030146
  0N   1dxy      -0.007034 -0.010537  0.010838  0.015470 -0.015708  0.029293
  0N   2dz2       1.325864 -1.402652 -0.585697  0.667144  0.263151  0.095480
  0N   2dxz       1.045776 -0.307151  1.451821 -0.603273  0.300936  0.189000
  0N   2dyz       1.149872  0.384216 -0.437829 -0.913699 -0.756315  0.071929
  0N   2dx2y2     0.872834  1.678527 -0.329673  0.083055  0.615037  0.048645
  0N   2dxy      -0.568599 -0.482028 -0.706756 -1.264844  0.581750 -0.098866
  0N   1f0       -0.031373  0.100032 -0.006966 -0.016912  0.017063  0.053163
  0N   1f+1      -0.085040 -0.041120 -0.028190  0.003579  0.023139  0.125394
  0N   1f-1      -0.030849  0.028835  0.030576  0.002219  0.003826  0.007321
  0N   1f+2       0.057288  0.038424  0.003352 -0.026948  0.010178 -0.066268
  0N   1f-2      -0.075363 -0.018556 -0.025740  0.020877 -0.009538  0.112381
  0N   1f+3       0.060802 -0.085656  0.020883  0.031199  0.018845 -0.101658
  0N   1f-3       0.045488  0.047035 -0.004991  0.021755  0.003809 -0.045839
  1H   1s         0.007977  0.184918 -0.000771  0.027537 -0.125261  0.026355
  1H   2s        -0.228735 -5.302378  0.008134 -0.289631 -1.834716 -0.046648
  1H   3s        -0.034294 -0.795016  0.004660 -0.165937 -0.478273  0.015142
  1H   1pz        0.011586 -0.006883  0.054452 -0.018910  0.012895 -0.014081
  1H   1px        0.005284  0.122483  0.000330 -0.011737 -0.095506  0.003902
  1H   1py       -0.006666 -0.012053 -0.026763 -0.040261  0.024927  0.006761
  1H   2pz       -0.098649 -0.019577 -0.965491  0.236060 -0.206075 -0.050216
  1H   2px        0.121502  2.816527  0.003011 -0.107606  1.215405  0.013118
  1H   2py        0.048512 -0.048154  0.481354  0.522232 -0.398367  0.025162
  1H   1dz2      -0.013817  0.135368  0.007636  0.003806 -0.001281  0.167901
  1H   1dxz       0.029097  0.002159  0.090547 -0.034339  0.012093  0.084774
  1H   1dyz      -0.016400 -0.007679  0.006507 -0.006333 -0.022522  0.134189
  1H   1dx2y2    -0.020868 -0.220659  0.004383  0.003127  0.034107  0.092636
  1H   1dxy      -0.014691  0.007234 -0.044305 -0.072539  0.023377 -0.043852
  2H   1s        -0.164129 -0.085553  0.024221 -0.013058 -0.125244  0.861819
  2H   2s         4.706274  2.453107 -0.254943  0.137893 -1.834955 -1.524923
  2H   3s         0.705658  0.367800 -0.146041  0.079018 -0.478254  0.495350
  2H   1pz       -0.043866 -0.031555 -0.013624  0.047158 -0.030623  0.050464
  2H   1px        0.035475  0.006186  0.045446  0.031755  0.018603 -0.042011
  2H   1py        0.093945  0.048569 -0.014784  0.009817  0.092863 -0.110765
  2H   2pz       -1.271491 -0.591229 -0.022114 -0.695563  0.331435  0.186067
  2H   2px        0.770080  0.502711 -0.624849 -0.663839 -0.193782 -0.155777
  2H   2py        2.011038  1.051541  0.367404 -0.231191 -1.237509 -0.355562
  2H   1dz2      -0.029352 -0.013985 -0.012613  0.072988  0.009641  0.114379
  2H   1dxz      -0.071342 -0.037557  0.049178  0.002095  0.000530  0.109266
  2H   1dyz      -0.167353 -0.059375 -0.008496 -0.041740 -0.036620  0.092643
  2H   1dx2y2    -0.109792 -0.060564 -0.056721 -0.003096  0.014490  0.009950
  2H   1dxy       0.085212  0.083740 -0.038614 -0.048418  0.026843 -0.016804
  3H   1s         0.156153 -0.099369 -0.023448 -0.014396 -0.125245 -0.888152
  3H   2s        -4.477552  2.849236  0.246801  0.151964 -1.834909  1.571484
  3H   3s        -0.671368  0.427198  0.141381  0.087082 -0.478243 -0.510496
  3H   1pz       -0.096657  0.066442  0.005266 -0.018971  0.093486  0.123510
  3H   1px       -0.034811  0.009218 -0.047157  0.029156  0.018603  0.042514
  3H   1py       -0.018212  0.003891  0.017154  0.045195  0.028664  0.023047
  3H   2pz       -2.263888  1.399990 -0.324108  0.195332 -1.201507  0.410923
  3H   2px       -0.723939  0.567160  0.661093 -0.627746 -0.193776  0.157731
  3H   2py       -0.113001  0.135270 -0.154596 -0.711074 -0.444525  0.053549
  3H   1dz2      -0.192086  0.100339 -0.041606  0.033656  0.021561  0.085796
  3H   1dxz      -0.102606  0.099251  0.062119 -0.037302  0.021604  0.078895
  3H   1dyz      -0.018324  0.021914 -0.030134 -0.073834 -0.026876  0.063793
  3H   1dx2y2    -0.022920 -0.002358  0.027877 -0.022960  0.021372  0.093145
  3H   1dxy       0.010485  0.016892 -0.016326 -0.027225  0.015942 -0.076136
                     30        31        32        33        34        35   
                   2.60846   2.67391   3.33954   3.46860   3.46864   3.52621
                   0.00000   0.00000   0.00000   0.00000   0.00000   0.00000
                  --------  --------  --------  --------  --------  --------
  0N   1s         0.000034  0.359916  0.022912  0.000001 -0.000008 -0.000000
  0N   2s         0.000079  0.828883 -0.003158  0.000001 -0.000029  0.000000
  0N   3s         0.000016  0.176947 -0.091648 -0.000000 -0.000020  0.000000
  0N   4s         0.000476  5.351203  0.970660 -0.000002 -0.000245  0.000000
  0N   1pz       -0.045186 -0.061962 -0.143074 -0.240234  0.031338  0.000181
  0N   1px       -0.327720  0.047709  0.110102 -0.010370  0.253198 -0.000006
  0N   1py       -0.107085 -0.119787 -0.276585  0.120139  0.084524 -0.000096
  0N   2pz        0.135979 -0.255812  0.186960  0.540579 -0.070529 -0.000382
  0N   2px        0.986476  0.196756 -0.143884  0.023333 -0.569742  0.000012
  0N   2py        0.322260 -0.494511  0.361423 -0.270341 -0.190227  0.000202
  0N   3pz       -0.000825 -0.682425 -0.309687  0.101737 -0.013250 -0.000314
  0N   3px       -0.005588  0.525128  0.238330  0.004391 -0.107204  0.000009
  0N   3py       -0.001937 -1.319233 -0.598677 -0.050881 -0.035756  0.000166
  0N   1dz2      -0.062230  0.014812 -0.016656  0.015202 -0.108287 -0.000103
  0N   1dxz      -0.004749  0.016946 -0.019062  0.155357  0.047171 -0.000069
  0N   1dyz       0.027112 -0.042570  0.047880  0.005129  0.089674 -0.000089
  0N   1dx2y2     0.074421  0.034618 -0.038946  0.003672  0.062117 -0.000066
  0N   1dxy      -0.012837  0.032759 -0.036849 -0.084453  0.075430  0.000037
  0N   2dz2       0.165228  0.046099 -0.058726  0.039044  0.157997  0.000005
  0N   2dxz      -0.022160  0.052777 -0.067194 -0.264543 -0.106710  0.000381
  0N   2dyz      -0.099710 -0.132567  0.168814  0.043732 -0.159338  0.000016
  0N   2dx2y2    -0.153245  0.107854 -0.137305  0.027980 -0.041606  0.000010
  0N   2dxy      -0.030733  0.102028 -0.129896  0.146451 -0.179345 -0.000189
  0N   1f0        0.132125 -0.126263 -0.114197 -0.015516  0.023380  0.120274
  0N   1f+1      -0.060600 -0.178167  0.050384 -0.079271 -0.000594 -0.059223
  0N   1f-1       0.030863 -0.029089 -0.002879  0.144948 -0.012785 -0.099689
  0N   1f+2       0.077634 -0.072720 -0.144039 -0.019145  0.094070 -0.137357
  0N   1f-2      -0.050755  0.078757 -0.174548 -0.067581 -0.083655 -0.053036
  0N   1f+3      -0.126650 -0.138959 -0.136743  0.065002 -0.087421  0.045875
  0N   1f-3       0.036603 -0.032082  0.088477 -0.034197 -0.116930 -0.071625
  1H   1s         1.010420  0.775374  0.249315  0.014255 -0.348029  0.000012
  1H   2s        -1.787954 -2.960604 -0.593937 -0.036985  0.903166 -0.000031
  1H   3s         0.580731 -0.157320 -0.003660  0.007323 -0.178768  0.000007
  1H   1pz       -0.007842  0.032598 -0.034063  0.242232  0.082450 -0.217348
  1H   1px        0.149593  0.075601  0.074301  0.010565 -0.257942  0.000013
  1H   1py       -0.016046  0.063018 -0.065849 -0.132569  0.134784  0.112441
  1H   2pz       -0.011416  0.049770  0.092601 -0.049315 -0.001142  0.201188
  1H   2px        0.502794  0.859631  0.038221  0.008661 -0.211547  0.000001
  1H   2py       -0.025255  0.096210  0.179013  0.025421  0.002733 -0.104083
  1H   1dz2       0.091259 -0.051539  0.180590 -0.229837  0.272862 -0.292490
  1H   1dxz      -0.002197 -0.016078  0.039651 -0.135146 -0.098633  0.188699
  1H   1dyz      -0.042907  0.104162 -0.348438 -0.163539 -0.371311 -0.239112
  1H   1dx2y2    -0.112268 -0.058216  0.180557 -0.127150  0.022122 -0.168864
  1H   1dxy       0.001169 -0.031082  0.076652  0.079237 -0.176737 -0.097614
  2H   1s        -0.527919  0.775507  0.249334  0.294290  0.186336 -0.000304
  2H   2s         0.933947 -2.960880 -0.593947 -0.763674 -0.483453  0.000900
  2H   3s        -0.303500 -0.157260 -0.003646  0.151168  0.095748 -0.000147
  2H   1pz       -0.041457  0.083811 -0.009588  0.111071 -0.118323  0.140788
  2H   1px        0.010782 -0.058651  0.010175  0.110834 -0.196882  0.200110
  2H   1py        0.067370 -0.016933 -0.104026 -0.250120 -0.167136  0.006624
  2H   2pz       -0.151986  0.506576  0.148290  0.072758  0.083993 -0.130517
  2H   2px        0.041593 -0.337592 -0.107747 -0.083137  0.001079 -0.185123
  2H   2py        0.215991 -0.616666  0.092107 -0.143804 -0.089249 -0.005796
  2H   1dz2       0.162121 -0.008547  0.013087 -0.038111  0.303626  0.157100
  2H   1dxz       0.026691 -0.075455  0.271185 -0.457824 -0.157108  0.056088
  2H   1dyz      -0.005615  0.071782 -0.222562  0.013849  0.060841  0.246725
  2H   1dx2y2    -0.144327 -0.063135  0.198978 -0.001118 -0.193972 -0.113174
  2H   1dxy       0.069451 -0.056651  0.176681 -0.066263  0.013094  0.339574
  3H   1s        -0.482286  0.775522  0.249336 -0.308545  0.161646  0.000293
  3H   2s         0.853204 -2.960905 -0.593947  0.800661 -0.419378 -0.000870
  3H   3s        -0.277269 -0.157253 -0.003644 -0.158491  0.083065  0.000141
  3H   1pz        0.072600 -0.062247 -0.079365  0.272986 -0.045871  0.075954
  3H   1px        0.008579 -0.058652  0.010173 -0.094360 -0.205292 -0.200101
  3H   1py        0.003894  0.058620 -0.067931  0.069480 -0.188093 -0.118743
  3H   2pz        0.243019 -0.796016 -0.010506  0.168803 -0.107931 -0.070682
  3H   2px        0.033417 -0.337602 -0.107747  0.082772  0.007880  0.185118
  3H   2py       -0.002040  0.057142  0.174250  0.022240  0.018867  0.109883
  3H   1dz2       0.083616 -0.022218  0.067014  0.005556  0.063111  0.136108
  3H   1dxz       0.037203 -0.002640 -0.012489 -0.218042  0.083913 -0.244742
  3H   1dyz      -0.069646  0.060607 -0.178482 -0.024991 -0.138824 -0.007017
  3H   1dx2y2    -0.192250 -0.071028  0.230111  0.012589 -0.333302  0.282485
  3H   1dxy       0.065970 -0.094315  0.323420  0.420440 -0.086572 -0.242006
                     36        37        38        39        40        41   
                   3.53022   3.53167   3.53169   3.70843   3.79785   3.79785
                   0.00000   0.00000   0.00000   0.00000   0.00000   0.00000
                  --------  --------  --------  --------  --------  --------
  0N   1s         0.138121 -0.000064 -0.001020  0.000000  0.000005  0.000004
  0N   2s         0.644809 -0.000296 -0.004748  0.000000  0.000020  0.000015
  0N   3s         0.476406 -0.000218 -0.003508  0.000000  0.000017  0.000012
  0N   4s         5.268800 -0.002414 -0.038831  0.000000  0.000059  0.000034
  0N   1pz        0.480918  0.110141  0.011892 -0.000025 -0.098156  0.070012
  0N   1px       -0.369080  0.003897  0.119228  0.000001 -0.089606 -0.088720
  0N   1py        0.929637 -0.056024  0.031603  0.000014  0.015114 -0.071530
  0N   2pz       -0.809500 -0.245537 -0.028400  0.000033  0.184430 -0.131548
  0N   2px        0.620720 -0.008591 -0.264176 -0.000002  0.168366  0.166697
  0N   2py       -1.564783  0.124608 -0.074097 -0.000018 -0.028400  0.134397
  0N   3pz       -0.392091 -0.285945 -0.037048 -0.000047 -0.555619  0.396315
  0N   3px        0.299217 -0.009807 -0.304203  0.000002 -0.507260 -0.502299
  0N   3py       -0.757837  0.144509 -0.093942  0.000025  0.085501 -0.404942
  0N   1dz2      -0.011788 -0.099655 -0.074090 -0.000001 -0.141467  0.011934
  0N   1dxz      -0.013012 -0.049257 -0.024143  0.000007 -0.062955  0.026703
  0N   1dyz       0.032286 -0.078963  0.017824  0.000001 -0.046006  0.078710
  0N   1dx2y2    -0.025370 -0.052517  0.113878  0.000001  0.046672  0.133980
  0N   1dxy      -0.025129  0.023471 -0.050472 -0.000003 -0.012610 -0.058545
  0N   2dz2       0.106217  0.021645  0.209663  0.000044  0.425794 -0.150371
  0N   2dxz       0.119211  0.306078 -0.093402 -0.000045  0.123562  0.106650
  0N   2dyz      -0.302178  0.006704 -0.174608  0.000034  0.266233 -0.203960
  0N   2dx2y2     0.243876  0.004819 -0.117581  0.000027 -0.122990 -0.452034
  0N   2dxy       0.230289 -0.164946 -0.156340  0.000019  0.219634  0.225601
  0N   1f0       -0.071113 -0.001095  0.005960 -0.122747  0.071275  0.043223
  0N   1f+1      -0.081452 -0.026747 -0.008124  0.060422 -0.063946 -0.020078
  0N   1f-1      -0.014159  0.082540  0.012357  0.101840  0.244857 -0.154513
  0N   1f+2      -0.048332 -0.019379 -0.041542  0.140157 -0.143658 -0.009809
  0N   1f-2       0.022541 -0.022486  0.039193  0.054108  0.058112  0.096264
  0N   1f+3      -0.079076  0.021581  0.032201 -0.046804  0.051663  0.017663
  0N   1f-3      -0.007009 -0.026144  0.070739  0.073058  0.096993  0.263430
  1H   1s         0.186482 -0.008835 -0.274678 -0.000003  0.049329  0.048845
  1H   2s        -2.315992  0.026893  0.824039  0.000002  0.271351  0.268723
  1H   3s        -0.335329 -0.003650 -0.116355 -0.000003  0.040818  0.040423
  1H   1pz       -0.048995  0.051868 -0.157222  0.455516 -0.348043  0.046209
  1H   1px        0.080815 -0.010476 -0.326716 -0.000003 -0.191484 -0.189608
  1H   1py       -0.094753 -0.038994 -0.299453 -0.235633 -0.193981 -0.394263
  1H   2pz        0.065201 -0.040198  0.146456 -0.352012  0.311537 -0.121173
  1H   2px        0.931265 -0.001975 -0.055268  0.000002  0.172138  0.170435
  1H   2py        0.126073  0.032134  0.279584  0.182093  0.075852  0.297372
  1H   1dz2       0.068742  0.306239 -0.180733 -0.260735 -0.020894  0.288091
  1H   1dxz       0.092943  0.228810  0.026164 -0.025786  0.153789  0.001910
  1H   1dyz      -0.044829  0.266213  0.347367 -0.213136 -0.324584 -0.068992
  1H   1dx2y2    -0.055358  0.173337 -0.213419 -0.150538 -0.039459  0.139205
  1H   1dxy       0.179552 -0.115785  0.068428  0.013336  0.113068  0.189744
  2H   1s         0.189470 -0.232375  0.142829  0.000034  0.017639 -0.067155
  2H   2s        -2.324820  0.687000 -0.408733 -0.000018  0.096996 -0.369395
  2H   3s        -0.334031 -0.100808  0.065173  0.000035  0.014607 -0.055594
  2H   1pz       -0.022704 -0.305964  0.233294 -0.295781 -0.285120  0.375816
  2H   1px        0.020778  0.255383 -0.097639 -0.418776 -0.168054 -0.364938
  2H   1py       -0.129547  0.045933 -0.025559 -0.013711 -0.025897  0.065732
  2H   2pz        0.562335  0.135748 -0.122597  0.228583  0.271108 -0.251960
  2H   2px       -0.376153 -0.134384  0.038178  0.323648  0.215393  0.284497
  2H   2py       -0.655580  0.195806 -0.118106  0.010579  0.005721  0.014190
  2H   1dz2       0.121270  0.286078  0.306314  0.250255 -0.102937 -0.147794
  2H   1dxz      -0.020179 -0.202265  0.322872  0.098714 -0.007248 -0.172417
  2H   1dyz      -0.005070  0.206944 -0.072227  0.122584 -0.200658  0.104485
  2H   1dx2y2     0.187994 -0.200882 -0.160659 -0.155178  0.169499 -0.273897
  2H   1dxy       0.016013 -0.117176  0.124667  0.159268 -0.188236 -0.185371
  3H   1s         0.189575  0.240951  0.127676 -0.000031 -0.066978  0.018298
  3H   2s        -2.325105 -0.710702 -0.363983  0.000017 -0.368412  0.100642
  3H   3s        -0.333983  0.104918  0.058586 -0.000032 -0.055446  0.015155
  3H   1pz       -0.092707 -0.223752 -0.141627 -0.159719 -0.162083  0.145208
  3H   1px        0.020663 -0.261116 -0.081122  0.418775 -0.366571 -0.164454
  3H   1py       -0.093285  0.233995  0.160992  0.249334  0.342258 -0.251050
  3H   2pz       -0.860016 -0.082462 -0.020318  0.123446  0.155675 -0.153507
  3H   2px       -0.376096  0.136718  0.029515 -0.323646  0.286599  0.212583
  3H   2py        0.080069 -0.234271 -0.153623 -0.192679 -0.195223  0.226509
  3H   1dz2      -0.104190  0.062579  0.148233  0.010413  0.073196  0.065325
  3H   1dxz       0.024718 -0.026629 -0.083289 -0.072953 -0.053140 -0.148933
  3H   1dyz      -0.189370  0.057422 -0.202525  0.090495  0.283981 -0.065325
  3H   1dx2y2     0.057981  0.379788 -0.274641  0.305669 -0.144047  0.268485
  3H   1dxy      -0.007109  0.253780  0.319962 -0.172586 -0.248944 -0.112236
                     42        43        44        45        46        47   
                   3.82375   3.82376   3.95537   3.95539   3.99603   4.12630
                   0.00000   0.00000   0.00000   0.00000   0.00000   0.00000
                  --------  --------  --------  --------  --------  --------
  0N   1s         0.000005 -0.000000  0.000004  0.000052 -0.152172  0.267188
  0N   2s         0.000014 -0.000002  0.000012  0.000134 -0.363257  0.569164
  0N   3s         0.000012 -0.000003  0.000008  0.000086 -0.230775  0.295185
  0N   4s         0.000085  0.000012  0.000015  0.000159  0.624811  2.559081
  0N   1pz        0.151414  0.754163 -0.113195 -0.015384 -0.017074  0.049369
  0N   1px        0.804334 -0.022027 -0.004254 -0.119435  0.013108 -0.038026
  0N   1py        0.241862 -0.398884  0.056864 -0.039557 -0.033005  0.095441
  0N   2pz       -0.406654 -2.025563  0.332385  0.045167 -0.013842 -0.383823
  0N   2px       -2.160222  0.059159  0.012487  0.350649  0.010703  0.295474
  0N   2py       -0.649568  1.071342 -0.166973  0.116144 -0.026760 -0.741995
  0N   3pz       -0.180490 -0.899012 -0.156132 -0.021203 -0.289603 -0.413363
  0N   3px       -0.958755  0.026252 -0.005867 -0.164789  0.222751  0.318110
  0N   3py       -0.288295  0.475493  0.078437 -0.054536 -0.559843 -0.799097
  0N   1dz2       0.174104  0.181545 -0.077072 -0.052208 -0.041750  0.052077
  0N   1dxz       0.043681  0.123447 -0.030897 -0.020948 -0.047771  0.059591
  0N   1dyz      -0.043887  0.153507 -0.061131  0.009918  0.120000 -0.149710
  0N   1dx2y2    -0.221746  0.113643 -0.040374  0.085657 -0.097592  0.121767
  0N   1dxy       0.076084 -0.066559  0.014062 -0.043123 -0.092351  0.115201
  0N   2dz2       0.173288  0.228403  0.143212 -0.160278  0.016173 -0.118829
  0N   2dxz       0.072205  0.086436 -0.333963  0.170436  0.018606 -0.135973
  0N   2dyz      -0.015924  0.191029  0.129243  0.210868 -0.046553  0.341554
  0N   2dx2y2    -0.255471  0.141604  0.084579 -0.039320  0.037906 -0.277780
  0N   2dxy       0.133657 -0.049392  0.186573  0.299853  0.035981 -0.262869
  0N   1f0        0.121486  0.038413  0.046316  0.104041  0.101813 -0.166864
  0N   1f+1      -0.056510  0.085035  0.131510 -0.042672  0.149260 -0.029234
  0N   1f-1       0.043704  0.084801 -0.078107  0.013387  0.024076 -0.015597
  0N   1f+2       0.021693 -0.077348 -0.034387  0.108005  0.056567 -0.172418
  0N   1f-2      -0.001327  0.074799  0.116153 -0.083552 -0.070019 -0.135537
  0N   1f+3      -0.081573 -0.062436 -0.107927 -0.137013  0.111744 -0.194425
  0N   1f-3       0.097035 -0.070935 -0.011284 -0.041662  0.028978  0.072161
  1H   1s        -0.044200  0.001212 -0.000389 -0.010892  0.164900  0.033931
  1H   2s         2.177218 -0.059634 -0.011218 -0.314905 -0.391336 -0.955852
  1H   3s         0.497551 -0.013627 -0.003787 -0.106279  0.054876 -0.285356
  1H   1pz       -0.109592 -0.304002 -0.526019  0.227078 -0.279965 -0.137913
  1H   1px        0.489499 -0.013409 -0.006051 -0.169881  0.200406 -0.442349
  1H   1py       -0.191270  0.164045  0.290267  0.392431 -0.541204 -0.266610
  1H   2pz        0.148042  0.367301  0.511822 -0.227933  0.235513  0.245663
  1H   2px       -1.747942  0.047878  0.017525  0.491975 -0.205826  0.777994
  1H   2py        0.261280 -0.199250 -0.283041 -0.395318  0.455269  0.474912
  1H   1dz2      -0.188037  0.089128 -0.013617 -0.064597 -0.160427  0.177806
  1H   1dxz      -0.000432 -0.076046 -0.305815  0.216941 -0.080863 -0.133271
  1H   1dyz       0.036443  0.067647 -0.002007  0.203585  0.102662 -0.034450
  1H   1dx2y2     0.282053  0.040759 -0.012769 -0.174973  0.132511 -0.259191
  1H   1dxy       0.004266  0.039229  0.176153  0.392060 -0.156310 -0.257640
  2H   1s         0.021060 -0.038870 -0.009226  0.005733  0.164905  0.033955
  2H   2s        -1.037024  1.915391 -0.267134  0.167114 -0.391310 -0.955724
  2H   3s        -0.236987  0.437732 -0.090131  0.056357  0.054883 -0.285356
  2H   1pz       -0.226764  0.000306 -0.011621 -0.401534 -0.287757 -0.416859
  2H   1px       -0.219836 -0.186517 -0.393336 -0.332741  0.220370  0.288921
  2H   1py        0.240710 -0.463958  0.339158 -0.231046 -0.529412  0.168839
  2H   2pz        0.544072 -0.498623  0.144073  0.307840  0.223129  0.737467
  2H   2px        0.089975  0.550579  0.296567  0.377899 -0.172933 -0.511313
  2H   2py       -0.737933  1.386429 -0.557811  0.367333  0.475004 -0.292737
  2H   1dz2       0.044193 -0.013698  0.138657 -0.310266 -0.112810 -0.131034
  2H   1dxz       0.073003 -0.112565 -0.349355  0.121114 -0.074607  0.255947
  2H   1dyz       0.177308 -0.155998  0.154116  0.081503 -0.054471  0.260960
  2H   1dx2y2     0.056541 -0.159374  0.252893 -0.046152 -0.251386 -0.027425
  2H   1dxy       0.032026  0.179562  0.072660  0.218819  0.020419 -0.180404
  3H   1s         0.023155  0.037661  0.009608  0.005062  0.164905  0.033955
  3H   2s        -1.140295 -1.855768  0.278339  0.147693 -0.391308 -0.955724
  3H   3s        -0.260590 -0.424108  0.093909  0.049804  0.054882 -0.285355
  3H   1pz        0.347730  0.360359 -0.279719  0.063492 -0.265830  0.378661
  3H   1px       -0.209296  0.198268  0.368671 -0.359876  0.220379  0.288923
  3H   1py       -0.031265  0.269944 -0.218807 -0.446795 -0.540760 -0.242675
  3H   2pz       -0.992968 -1.367379  0.545819  0.083324  0.258768 -0.665032
  3H   2px        0.059700 -0.554682 -0.268935  0.398036 -0.172942 -0.511315
  3H   2py       -0.003922 -0.394493  0.237157  0.447766  0.456575  0.432757
  3H   1dz2      -0.189148 -0.209311  0.268118 -0.059413  0.189431 -0.197437
  3H   1dxz      -0.027601 -0.210402 -0.252772  0.126913  0.059770 -0.295128
  3H   1dyz      -0.005725 -0.034246  0.202343  0.288613  0.192599  0.206675
  3H   1dx2y2    -0.069940  0.028693 -0.008143  0.110635 -0.076890 -0.065764
  3H   1dxy       0.077320 -0.016135  0.258562  0.207418 -0.049092  0.104661
                     48        49        50        51        52        53   
                   4.23179   4.23180   4.38274   4.38275   4.52753   4.52755
                   0.00000   0.00000   0.00000   0.00000   0.00000   0.00000
                  --------  --------  --------  --------  --------  --------
  0N   1s        -0.000002 -0.000001  0.000001  0.000015  0.000014 -0.000000
  0N   2s        -0.000004  0.000013 -0.000000  0.000007  0.000061  0.000005
  0N   3s        -0.000003  0.000016 -0.000002 -0.000013  0.000049  0.000004
  0N   4s         0.000004  0.000156 -0.000004 -0.000068  0.000079  0.000011
  0N   1pz        0.443872  0.071231  0.171659  0.024320 -0.000784 -0.004368
  0N   1px        0.005474  0.470237  0.005443  0.181307 -0.004627  0.000027
  0N   1py       -0.227429  0.150341 -0.086631  0.059583 -0.001457  0.002267
  0N   2pz       -1.582493 -0.253960 -0.632772 -0.089611 -0.443752 -2.491173
  0N   2px       -0.019516 -1.676470 -0.020053 -0.668155 -2.646816  0.014638
  0N   2py        0.810836 -0.536013  0.319349 -0.219573 -0.824049  1.294482
  0N   3pz       -0.287871 -0.046217 -0.152572 -0.021594 -0.241793 -1.357418
  0N   3px       -0.003550 -0.304950 -0.004831 -0.161061 -1.442221  0.007975
  0N   3py        0.147498 -0.097543  0.077003 -0.052925 -0.449009  0.705352
  0N   1dz2      -0.066679 -0.184815 -0.118504  0.120183 -0.201427 -0.228454
  0N   1dxz      -0.234941  0.044038  0.258691 -0.133142 -0.054017 -0.140841
  0N   1dyz      -0.051256  0.128314 -0.104753 -0.164252  0.051024 -0.187941
  0N   1dx2y2    -0.035615  0.141035 -0.069388  0.037100  0.272233 -0.134050
  0N   1dxy       0.122709  0.078420 -0.143033 -0.238079 -0.102509  0.073571
  0N   2dz2       0.730769  1.217513  0.423980 -0.359226  0.804100  0.874318
  0N   2dxz       1.349334 -0.111087 -0.817984  0.441036  0.192696  0.589147
  0N   2dyz       0.577702 -0.694903  0.371154  0.524717 -0.224180  0.719591
  0N   2dx2y2     0.400303 -1.153809  0.246033 -0.165970 -1.058477  0.513223
  0N   2dxy      -0.700709 -0.176245  0.453746  0.791507  0.364506 -0.307312
  0N   1f0        0.000451 -0.009133 -0.067981 -0.171494 -0.230801 -0.082805
  0N   1f+1       0.031069  0.012651 -0.144829  0.082925  0.101599 -0.202732
  0N   1f-1      -0.102802 -0.017972 -0.055663 -0.046326 -0.061138 -0.054401
  0N   1f+2       0.024591  0.051470  0.095124 -0.076006 -0.106009  0.126616
  0N   1f-2       0.027133 -0.047776 -0.130619  0.043355  0.059927 -0.181365
  0N   1f+3      -0.024390 -0.037780  0.118418  0.143473  0.203916  0.155465
  0N   1f-3       0.035413 -0.088316  0.073114 -0.086505 -0.096962  0.095408
  1H   1s         0.003054  0.262354 -0.001645 -0.054808  0.139102 -0.000772
  1H   2s         0.026393  2.267788  0.022821  0.760599  3.477784 -0.019251
  1H   3s         0.001322  0.113482  0.004375  0.145775  0.463445 -0.002565
  1H   1pz        0.181245  0.197774  0.365090  0.108390 -0.057904 -0.167101
  1H   1px       -0.002806 -0.241205  0.002214  0.073745 -0.306544  0.001700
  1H   1py       -0.088055  0.387431 -0.180083  0.236119 -0.109656  0.087211
  1H   2pz       -0.682798 -0.082557  0.041810 -0.334908  0.104773  0.194393
  1H   2px       -0.015508 -1.332238 -0.019404 -0.646619 -2.024820  0.011207
  1H   2py        0.350621 -0.179043 -0.046153 -0.643607  0.199876 -0.101969
  1H   1dz2      -0.250267 -0.252337  0.231769  0.084713 -0.514886  0.094013
  1H   1dxz       0.586459  0.050969 -0.091071  0.320927 -0.099537 -0.177100
  1H   1dyz      -0.200651  0.131525  0.177722 -0.321768  0.007286  0.074481
  1H   1dx2y2    -0.139758  0.260815  0.140898  0.285023  0.883237  0.047741
  1H   1dxy      -0.301718  0.115239  0.070499  0.612988 -0.189988  0.092953
  2H   1s         0.225689 -0.133839 -0.046624  0.028850 -0.068905  0.120867
  2H   2s         1.950697 -1.156855  0.647314 -0.400039 -1.722294  3.021477
  2H   3s         0.097627 -0.057898  0.124080 -0.076683 -0.229511  0.402627
  2H   1pz        0.192961  0.020665  0.296629  0.092774  0.022051 -0.258190
  2H   1px       -0.023350  0.205101  0.049859  0.360151 -0.213244  0.063358
  2H   1py        0.394791 -0.227874  0.090028 -0.042839 -0.087595  0.143507
  2H   2pz       -0.917038  0.029113 -0.656993  0.445563  0.548569 -0.706692
  2H   2px        0.142157 -0.813016  0.499450 -0.252809 -0.125819  0.582649
[...]
   34. RY ( 1) H  2             0.00252
   35. RY ( 2) H  2             0.00165
   36. RY ( 3) H  2             0.00119
   37. RY ( 4) H  2             0.00068
   38. RY ( 5) H  2             0.00038
   39. RY ( 6) H  2             0.00013
   40. RY ( 7) H  2             0.00012
   41. RY ( 8) H  2             0.00010
   42. RY ( 9) H  2             0.00009
   43. RY (10) H  2             0.00008
   44. RY (11) H  2             0.00006
   45. RY (12) H  2             0.00004
   46. RY (13) H  2             0.00002
   47. RY ( 1) H  3             0.00252
   48. RY ( 2) H  3             0.00165
   49. RY ( 3) H  3             0.00119
   50. RY ( 4) H  3             0.00068
   51. RY ( 5) H  3             0.00038
   52. RY ( 6) H  3             0.00013
   53. RY ( 7) H  3             0.00012
   54. RY ( 8) H  3             0.00010
   55. RY ( 9) H  3             0.00009
   56. RY (10) H  3             0.00008
   57. RY (11) H  3             0.00006
   58. RY (12) H  3             0.00004
   59. RY (13) H  3             0.00002
   60. RY ( 1) H  4             0.00252
   61. RY ( 2) H  4             0.00165
   62. RY ( 3) H  4             0.00119
   63. RY ( 4) H  4             0.00068
   64. RY ( 5) H  4             0.00038
   65. RY ( 6) H  4             0.00013
   66. RY ( 7) H  4             0.00012
   67. RY ( 8) H  4             0.00010
   68. RY ( 9) H  4             0.00009
   69. RY (10) H  4             0.00008
   70. RY (11) H  4             0.00006
   71. RY (12) H  4             0.00004
   72. RY (13) H  4             0.00002
          -------------------------------
                 Total Lewis    9.84679  ( 98.4679%)
           Valence non-Lewis    0.06655  (  0.6655%)
           Rydberg non-Lewis    0.08667  (  0.8667%)
          -------------------------------
               Total unit  1   10.00000  (100.0000%)
              Charge unit  1    0.00000

 $CHOOSE
   LONE 1 1 END
   BOND S 1 2 S 1 3 S 1 4 END
 $END

 NBO analysis completed in 0.07 CPU seconds (0 wall seconds)
 Maximum scratch memory used by NBO was 437459 words (3.34 MB)
Stopping NBO...Storing NBOs: NH3.mdcip.nbo

                                *** returned from   NBO  program ***



------------------------------------------------------------------------------- 
                                     TIMINGS                                   
------------------------------------------------------------------------------- 


Total execution time                   ...        4.725 sec

Fock Matrix Formation                  ...        0.182 sec (  3.9%)
Initial Guess                          ...        0.003 sec (  0.1%)
DIIS Solver                            ...        0.097 sec (  2.0%)
State Vector Update                    ...        0.005 sec (  0.1%)
Sigma-vector construction              ...        1.958 sec ( 41.4%)
  <D|H|D>(0-ext)                       ...        0.002 sec (  0.1% of sigma)
  <D|H|D>(2-ext Fock)                  ...        0.003 sec (  0.1% of sigma)
  <D|H|D>(2-ext)                       ...        0.051 sec (  2.6% of sigma)
  <D|H|D>(4-ext)                       ...        0.382 sec ( 19.5% of sigma)
  <D|H|D>(4-ext-corr)                  ...        0.243 sec ( 12.4% of sigma)
  <S|H|0>                              ...        0.005 sec (  0.2% of sigma)
  <S|H|S>                              ...        0.003 sec (  0.1% of sigma)
  <S|H|D>(1-ext)                       ...        0.006 sec (  0.3% of sigma)
  <D|H|S>(1-ext)                       ...        0.001 sec (  0.1% of sigma)
  <S|H|D>(3-ext)                       ...        0.075 sec (  3.8% of sigma)
  Fock-dressing                        ...        0.873 sec ( 44.6% of sigma)
  (ik|jl)-dressing                     ...        0.002 sec (  0.1% of sigma)
  (ij|ab),(ia|jb)-dressing             ...        0.246 sec ( 12.6% of sigma)
  Pair energies                        ...        0.002 sec (  0.1% of sigma)
Total Time for computing (T)           ...        0.231 sec (  4.9% of ALL)
  I/O of integral and amplitudes       ...        0.039 sec ( 16.7% of (T))
  N**6 sorting step                    ...        0.016 sec (  6.9% of (T))
  External N**7 contributions          ...        0.140 sec ( 60.8% of (T))
  Internal N**7 contributions          ...        0.029 sec ( 12.6% of (T))
  N**6 triples energy contributions    ...        0.002 sec (  0.9% of (T))
One-particle density matrix            ...        0.014 sec (  0.3%)


-------------------------   --------------------
FINAL SINGLE POINT ENERGY       -56.473197082261
-------------------------   --------------------

                                *** OPTIMIZATION RUN DONE ***

                            ***************************************
                            *     ORCA property calculations      *
                            ***************************************

                                    ---------------------
                                    Active property flags
                                    ---------------------
   (+) Dipole Moment


------------------------------------------------------------------------------
                       ORCA ELECTRIC PROPERTIES CALCULATION
------------------------------------------------------------------------------

Dipole Moment Calculation                       ... on
Quadrupole Moment Calculation                   ... off
Polarizability Calculation                      ... off
GBWName                                         ... NH3.gbw
Electron density file                           ... NH3.scfp
The origin for moment calculation is the CENTER OF MASS  = (-4.583686, -5.330118 -0.022506)

-------------
DIPOLE MOMENT
-------------
                                X             Y             Z
Electronic contribution:     -0.08321       0.20903       0.10813
Nuclear contribution   :      0.30652      -0.77002      -0.39833
                        -----------------------------------------
Total Dipole Moment    :      0.22331      -0.56099      -0.29020
                        -----------------------------------------
Magnitude (a.u.)       :      0.66992
Magnitude (Debye)      :      1.70281



--------------------
Rotational spectrum 
--------------------
 
Rotational constants in cm-1:     9.864265     9.864216     6.404102 
Rotational constants in MHz : 295723.232414 295721.768645 191990.162951 

 Dipole components along the rotational axes: 
x,y,z [a.u.] :     0.000005     0.000005    -0.669922 
x,y,z [Debye]:     0.000014     0.000013    -1.702807 

 

                           *** MDCI DENSITY ***

------------------------------------------------------------------------------
                       ORCA ELECTRIC PROPERTIES CALCULATION
------------------------------------------------------------------------------

Dipole Moment Calculation                       ... on
Quadrupole Moment Calculation                   ... off
Polarizability Calculation                      ... off
GBWName                                         ... NH3.gbw
Electron density file                           ... NH3.mdcip
The origin for moment calculation is the CENTER OF MASS  = (-4.583686, -5.330118 -0.022506)

-------------
DIPOLE MOMENT
-------------
                                X             Y             Z
Electronic contribution:     -0.09320       0.23411       0.12111
Nuclear contribution   :      0.30652      -0.77002      -0.39833
                        -----------------------------------------
Total Dipole Moment    :      0.21333      -0.53592      -0.27723
                        -----------------------------------------
Magnitude (a.u.)       :      0.63998
Magnitude (Debye)      :      1.62669



--------------------
Rotational spectrum 
--------------------
 
Rotational constants in cm-1:     9.864265     9.864216     6.404102 
Rotational constants in MHz : 295723.232414 295721.768645 191990.162951 

 Dipole components along the rotational axes: 
x,y,z [a.u.] :     0.000005     0.000005    -0.639978 
x,y,z [Debye]:     0.000013     0.000012    -1.626694 

 

----------------------------------------------------------------------------
                           ORCA NUMERICAL FREQUENCIES
                              (10-process run)
----------------------------------------------------------------------------

Number of atoms                ... 4
Central differences            ... used
Number of displacements        ... 24
Numerical increment            ... 5.000e-03 bohr
IR-spectrum generation         ... on
Raman-spectrum generation      ... off
Surface Crossing Hessian       ... off

The output will be reduced. Please look at the following files:
SCF program output             ... >NH3.lastscf
Integral program output        ... >NH3.lastint
Gradient program output        ... >NH3.lastgrad
Dipole moment program output   ... >NH3.lastmom
AutoCI program output          ... >NH3.lastautoci


         <<< Energy and Gradient at the input geometry >>>

        <<< Energy and Gradient at displaced geometries >>>
             <<<Displacing   2/coordinate 1 (+)>>>
             <<<Displacing   3/coordinate 2 (+)>>>
             <<<Displacing   1/coordinate 3 (+)>>>
             <<<Displacing   2/coordinate 2 (+)>>>
             <<<Displacing   4/coordinate 1 (+)>>>
             <<<Displacing   1/coordinate 2 (+)>>>
             <<<Displacing   3/coordinate 3 (+)>>>
             <<<Displacing   2/coordinate 3 (+)>>>
             <<<Displacing   3/coordinate 1 (+)>>>
             <<<Displacing   1/coordinate 1 (+)>>>
             <<<Displacing   2/coordinate 2 (-)>>>
             <<<Displacing   1/coordinate 3 (-)>>>
             <<<Displacing   2/coordinate 3 (-)>>>
             <<<Displacing   1/coordinate 2 (-)>>>
             <<<Displacing   3/coordinate 2 (-)>>>
             <<<Displacing   4/coordinate 1 (-)>>>
             <<<Displacing   2/coordinate 1 (-)>>>
             <<<Displacing   1/coordinate 1 (-)>>>
             <<<Displacing   3/coordinate 1 (-)>>>
             <<<Displacing   3/coordinate 3 (-)>>>
             <<<Displacing   4/coordinate 2 (+)>>>
             <<<Displacing   4/coordinate 3 (+)>>>
             <<<Displacing   4/coordinate 2 (-)>>>
             <<<Displacing   4/coordinate 3 (-)>>>

-----------------------
VIBRATIONAL FREQUENCIES
-----------------------

Scaling factor for frequencies =  1.000000000 (already applied!)

   0:         0.00 cm**-1
   1:         0.00 cm**-1
   2:         0.00 cm**-1
   3:         0.00 cm**-1
   4:         0.00 cm**-1
   5:         0.00 cm**-1
   6:      1111.35 cm**-1
   7:      1687.67 cm**-1
   8:      1687.90 cm**-1
   9:      3472.35 cm**-1
  10:      3597.03 cm**-1
  11:      3597.13 cm**-1


------------
NORMAL MODES
------------

These modes are the cartesian displacements weighted by the diagonal matrix
M(i,i)=1/sqrt(m[i]) where m[i] is the mass of the displaced atom
Thus, these vectors are normalized but *not* orthogonal

                  0          1          2          3          4          5    
      0       0.000000   0.000000   0.000000   0.000000   0.000000   0.000000
      1       0.000000   0.000000   0.000000   0.000000   0.000000   0.000000
      2       0.000000   0.000000   0.000000   0.000000   0.000000   0.000000
      3       0.000000   0.000000   0.000000   0.000000   0.000000   0.000000
      4       0.000000   0.000000   0.000000   0.000000   0.000000   0.000000
      5       0.000000   0.000000   0.000000   0.000000   0.000000   0.000000
      6       0.000000   0.000000   0.000000   0.000000   0.000000   0.000000
      7       0.000000   0.000000   0.000000   0.000000   0.000000   0.000000
      8       0.000000   0.000000   0.000000   0.000000   0.000000   0.000000
      9       0.000000   0.000000   0.000000   0.000000   0.000000   0.000000
     10       0.000000   0.000000   0.000000   0.000000   0.000000   0.000000
     11       0.000000   0.000000   0.000000   0.000000   0.000000   0.000000
                  6          7          8          9         10         11    
      0       0.038329  -0.054942   0.029547  -0.012946  -0.036573   0.064249
      1      -0.096270  -0.031663  -0.017468   0.032631  -0.042766   0.002350
      2      -0.049777   0.018915   0.056577   0.016848   0.054600   0.044877
      3       0.023427  -0.043780   0.023460   0.576346   0.402287  -0.706328
      4       0.509115  -0.065372   0.430476   0.011256  -0.028390   0.025621
      5       0.263124  -0.438113  -0.528874   0.005703   0.010844   0.027787
      6      -0.278136   0.193266  -0.608039  -0.198384   0.251574   0.019796
      7       0.329595   0.129364   0.056104  -0.450628   0.669539  -0.003362
      8       0.378145   0.411452  -0.259717   0.301722  -0.386827   0.017392
      9      -0.277901   0.613974   0.174000  -0.198066  -0.145643  -0.206254
     10       0.499046   0.375987  -0.243844  -0.014062  -0.046879  -0.054911
     11       0.050422  -0.236176   0.002411  -0.541539  -0.382725  -0.668777


-----------
IR SPECTRUM  
-----------

 Mode    freq (cm**-1)   T**2         TX         TY         TZ
-------------------------------------------------------------------
   6:      1111.35  137.975974  ( -3.915702   9.836963   5.086985)
   7:      1687.67   14.337772  (  3.144848   1.808794  -1.084419)
   8:      1687.90   14.337273  ( -1.690233   0.998656  -3.237757)
   9:      3472.35    1.673177  ( -0.431316   1.083180   0.560236)
  10:      3597.03    1.028517  (  0.474502   0.549634  -0.708002)
  11:      3597.13    1.028166  ( -0.831250  -0.029358  -0.579937)

The first frequency considered to be a vibration is 6
The total number of vibrations considered is 6


--------------------------
THERMOCHEMISTRY AT 298.15K
--------------------------

Temperature         ... 298.15 K
Pressure            ... 1.00 atm
Total Mass          ... 17.03 AMU

Throughout the following assumptions are being made:
  (1) The electronic state is orbitally nondegenerate
  (2) There are no thermally accessible electronically excited states
  (3) Hindered rotations indicated by low frequency modes are not
      treated as such but are treated as vibrations and this may
      cause some error
  (4) All equations used are the standard statistical mechanics
      equations for an ideal gas
  (5) All vibrations are strictly harmonic

freq.    1111.35  E(vib)   ...       0.01 
freq.    1687.67  E(vib)   ...       0.00 
freq.    1687.90  E(vib)   ...       0.00 
freq.    3472.35  E(vib)   ...       0.00 
freq.    3597.03  E(vib)   ...       0.00 
freq.    3597.13  E(vib)   ...       0.00 

------------
INNER ENERGY
------------

The inner energy is: U= E(el) + E(ZPE) + E(vib) + E(rot) + E(trans)
    E(el)   - is the total energy from the electronic structure calculation
              = E(kin-el) + E(nuc-el) + E(el-el) + E(nuc-nuc)
    E(ZPE)  - the the zero temperature vibrational energy from the frequency calculation
    E(vib)  - the the finite temperature correction to E(ZPE) due to population
              of excited vibrational states
    E(rot)  - is the rotational thermal energy
    E(trans)- is the translational thermal energy

Summary of contributions to the inner energy U:
Electronic energy                ...    -56.47319708 Eh
Zero point energy                ...      0.03452203 Eh      21.66 kcal/mol
Thermal vibrational correction   ...      0.00002832 Eh       0.02 kcal/mol
Thermal rotational correction    ...      0.00141627 Eh       0.89 kcal/mol
Thermal translational correction ...      0.00141627 Eh       0.89 kcal/mol
-----------------------------------------------------------------------
Total thermal energy                    -56.43581419 Eh


Summary of corrections to the electronic energy:
(perhaps to be used in another calculation)
Total thermal correction                  0.00286086 Eh       1.80 kcal/mol
Non-thermal (ZPE) correction              0.03452203 Eh      21.66 kcal/mol
-----------------------------------------------------------------------
Total correction                          0.03738289 Eh      23.46 kcal/mol


--------
ENTHALPY
--------

The enthalpy is H = U + kB*T
                kB is Boltzmann's constant
Total free energy                 ...    -56.43581419 Eh 
Thermal Enthalpy correction       ...      0.00094421 Eh       0.59 kcal/mol
-----------------------------------------------------------------------
Total Enthalpy                    ...    -56.43486998 Eh


Note: Only C1 symmetry has been detected, increase convergence thresholds 
      if your molecule has a higher symmetry. Symmetry factor of 1.0 is   
      used for the rotational entropy correction. 
 

Note: Rotational entropy computed according to Herzberg 
Infrared and Raman Spectra, Chapter V,1, Van Nostrand Reinhold, 1945 
Point Group:  C1, Symmetry Number:   1  
Rotational constants in cm-1:     9.864265     9.864216     6.404102 

Vibrational entropy computed according to the QRRHO of S. Grimme
Chem.Eur.J. 2012 18 9955


-------
ENTROPY
-------

The entropy contributions are T*S = T*(S(el)+S(vib)+S(rot)+S(trans))
     S(el)   - electronic entropy
     S(vib)  - vibrational entropy
     S(rot)  - rotational entropy
     S(trans)- translational entropy
The entropies will be listed as mutliplied by the temperature to get
units of energy

Electronic entropy                ...      0.00000000 Eh      0.00 kcal/mol
Vibrational entropy               ...      0.00003331 Eh      0.02 kcal/mol
Rotational entropy                ...      0.00647302 Eh      4.06 kcal/mol
Translational entropy             ...      0.01636425 Eh     10.27 kcal/mol
-----------------------------------------------------------------------
Final entropy term                ...      0.02287058 Eh     14.35 kcal/mol

In case the symmetry of your molecule has not been determined correctly
or in case you have a reason to use a different symmetry number we print 
out the resulting rotational entropy values for sn=1,12 :
 --------------------------------------------------------
|  sn= 1 | S(rot)=       0.00647302 Eh      4.06 kcal/mol|
|  sn= 2 | S(rot)=       0.00581856 Eh      3.65 kcal/mol|
|  sn= 3 | S(rot)=       0.00543573 Eh      3.41 kcal/mol|
|  sn= 4 | S(rot)=       0.00516410 Eh      3.24 kcal/mol|
|  sn= 5 | S(rot)=       0.00495342 Eh      3.11 kcal/mol|
|  sn= 6 | S(rot)=       0.00478127 Eh      3.00 kcal/mol|
|  sn= 7 | S(rot)=       0.00463572 Eh      2.91 kcal/mol|
|  sn= 8 | S(rot)=       0.00450965 Eh      2.83 kcal/mol|
|  sn= 9 | S(rot)=       0.00439844 Eh      2.76 kcal/mol|
|  sn=10 | S(rot)=       0.00429896 Eh      2.70 kcal/mol|
|  sn=11 | S(rot)=       0.00420897 Eh      2.64 kcal/mol|
|  sn=12 | S(rot)=       0.00412681 Eh      2.59 kcal/mol|
 --------------------------------------------------------


-------------------
GIBBS FREE ENERGY
-------------------

The Gibbs free energy is G = H - T*S

Total enthalpy                    ...    -56.43486998 Eh 
Total entropy correction          ...     -0.02287058 Eh    -14.35 kcal/mol
-----------------------------------------------------------------------
Final Gibbs free energy         ...    -56.45774056 Eh

For completeness - the Gibbs free energy minus the electronic energy
G-E(el)                           ...      0.01545652 Eh      9.70 kcal/mol


Total Time for Numerical Frequencies  :      1301.475 sec

Timings for individual modules:

Sum of individual times         ...      315.983 sec (=   5.266 min)
GTO integral calculation        ...        8.478 sec (=   0.141 min)   2.7 %
SCF iterations                  ...       24.597 sec (=   0.410 min)   7.8 %
MDCI module                     ...       36.723 sec (=   0.612 min)  11.6 %
SCF Gradient evaluation         ...      246.051 sec (=   4.101 min)  77.9 %
Geometry relaxation             ...        0.135 sec (=   0.002 min)   0.0 %
                             ****ORCA TERMINATED NORMALLY****
TOTAL RUN TIME: 0 days 0 hours 26 minutes 9 seconds 627 msec
