
                                 *****************
                                 * O   R   C   A *
                                 *****************

           --- An Ab Initio, DFT and Semiempirical electronic structure package ---

                  #######################################################
                  #                        -***-                        #
                  #          Department of theory and spectroscopy      #
                  #               Directorship: Frank Neese             #
                  #        Max Planck Institute fuer Kohlenforschung    #
                  #                Kaiser Wilhelm Platz 1               #
                  #                 D-45470 Muelheim/Ruhr               #
                  #                      Germany                        #
                  #                                                     #
                  #                  All rights reserved                #
                  #                        -***-                        #
                  #######################################################


                         Program Version 4.2.1 -  RELEASE  -


 With contributions from (in alphabetic order):
   Daniel Aravena         : Magnetic Suceptibility
   Michael Atanasov       : Ab Initio Ligand Field Theory (pilot matlab implementation)
   Alexander A. Auer      : GIAO ZORA, VPT2
   Ute Becker             : Parallelization
   Giovanni Bistoni       : ED, misc. LED, open-shell LED, HFLD
   Martin Brehm           : Molecular dynamics
   Dmytro Bykov           : SCF Hessian
   Vijay G. Chilkuri      : MRCI spin determinant printing, contributions to CSF-ICE
   Dipayan Datta          : RHF DLPNO-CCSD density
   Achintya Kumar Dutta   : EOM-CC, STEOM-CC
   Dmitry Ganyushin       : Spin-Orbit,Spin-Spin,Magnetic field MRCI
   Miquel Garcia          : C-PCM Hessian, Gaussian charge scheme
   Yang Guo               : DLPNO-NEVPT2, CIM, IAO-localization
   Andreas Hansen         : Spin unrestricted coupled pair/coupled cluster methods
   Benjamin Helmich-Paris : CASSCF linear response (MC-RPA)
   Lee Huntington         : MR-EOM, pCC
   Robert Izsak           : Overlap fitted RIJCOSX, COSX-SCS-MP3, EOM
   Christian Kollmar      : KDIIS, OOCD, Brueckner-CCSD(T), CCSD density
   Simone Kossmann        : Meta GGA functionals, TD-DFT gradient, OOMP2, MP2 Hessian
   Martin Krupicka        : AUTO-CI
   Lucas Lang             : DCDCAS
   Dagmar Lenk            : GEPOL surface, SMD
   Dimitrios Liakos       : Extrapolation schemes; Compound Job, initial MDCI parallelization
   Dimitrios Manganas     : Further ROCIS development; embedding schemes
   Dimitrios Pantazis     : SARC Basis sets
   Taras Petrenko         : DFT Hessian,TD-DFT gradient, ASA, ECA, R-Raman, ABS, FL, XAS/XES, NRVS
   Peter Pinski           : DLPNO-MP2, DLPNO-MP2 Gradient
   Christoph Reimann      : Effective Core Potentials
   Marius Retegan         : Local ZFS, SOC
   Christoph Riplinger    : Optimizer, TS searches, QM/MM, DLPNO-CCSD(T), (RO)-DLPNO pert. Triples
   Tobias Risthaus        : Range-separated hybrids, TD-DFT gradient, RPA, STAB
   Michael Roemelt        : Original ROCIS implementation
   Masaaki Saitow         : Open-shell DLPNO-CCSD energy and density
   Barbara Sandhoefer     : DKH picture change effects
   Avijit Sen             : IP-ROCIS
   Kantharuban Sivalingam : CASSCF convergence, NEVPT2, FIC-MRCI
   Bernardo de Souza      : ESD, SOC TD-DFT
   Georgi Stoychev        : AutoAux, RI-MP2 NMR
   Willem Van den Heuvel  : Paramagnetic NMR
   Boris Wezisla          : Elementary symmetry handling
   Frank Wennmohs         : Technical directorship


 We gratefully acknowledge several colleagues who have allowed us to
 interface, adapt or use parts of their codes:
   Stefan Grimme, W. Hujo, H. Kruse,             : VdW corrections, initial TS optimization,
                  C. Bannwarth                     DFT functionals, gCP, sTDA/sTD-DF
   Ed Valeev, F. Pavosevic, A. Kumar             : LibInt (2-el integral package), F12 methods
   Garnet Chan, S. Sharma, J. Yang, R. Olivares  : DMRG
   Ulf Ekstrom                                   : XCFun DFT Library
   Mihaly Kallay                                 : mrcc  (arbitrary order and MRCC methods)
   Andreas Klamt, Michael Diedenhofen            : otool_cosmo (COSMO solvation model)
   Jiri Pittner, Ondrej Demel                    : Mk-CCSD
   Frank Weinhold                                : gennbo (NPA and NBO analysis)
   Christopher J. Cramer and Donald G. Truhlar   : smd solvation model
   Lars Goerigk                                  : TD-DFT with DH, B97 family of functionals
   V. Asgeirsson, H. Jonsson                     : NEB implementation
   FAccTs GmbH                                   : IRC, NEB, NEB-TS, Multilevel, MM, QM/MM, CI optimization
   S Lehtola, MJT Oliveira, MAL Marques          : LibXC Library


 Your calculation uses the libint2 library for the computation of 2-el integrals
 For citations please refer to: http://libint.valeyev.net

 Your ORCA version has been built with support for libXC version: 4.2.3
 For citations please refer to: https://tddft.org/programs/libxc/

 This ORCA versions uses:
   CBLAS   interface :  Fast vector & matrix operations
   LAPACKE interface :  Fast linear algebra routines
   SCALAPACK package :  Parallel linear algebra routines




***************************************
The coordinates will be read from file: init.xyz
***************************************


----- Orbital basis set information -----
Your calculation utilizes the basis: cc-pVTZ 
       H, B-Ne : Obtained from the ccRepo (grant-hill.group.shef.ac.uk/ccrepo) Feb. 2017
                 T. H. Dunning, Jr., J. Chem. Phys. 90, 1007 (1989)
            He : Obtained from the ccRepo (grant-hill.group.shef.ac.uk/ccrepo) Feb. 2017
                 D. E. Woon, T. H. Dunning, Jr., J. Chem. Phys. 100, 2975 (1994)
  Li-Be, Na-Mg : Obtained from the ccRepo (grant-hill.group.shef.ac.uk/ccrepo) Feb. 2017
                 B. P. Prascher, D. E. Woon, K. A. Peterson, T. H. Dunning, Jr., A. K. Wilson, Theor. Chem. Acc. 128, 69 (2011)
         Al-Ar : Obtained from the ccRepo (grant-hill.group.shef.ac.uk/ccrepo) Feb. 2017
                 D. E. Woon, T. H. Dunning, Jr., J. Chem. Phys. 98, 1358 (1993)
            Ca : Obtained from the Peterson Research Group Website (tyr0.chem.wsu.edu/~kipeters) Feb. 2017
                 J. Koput, K. A. Peterson, J. Phys. Chem. 106, 9595 (2002)
         Sc-Zn : Obtained from the ccRepo (grant-hill.group.shef.ac.uk/ccrepo) Feb. 2017
                 N. B. Balabanov, K. A. Peterson, J. Chem. Phys. 123, 064107 (2005)
                 N. B. Balabanov, K. A. Peterson, J. Chem. Phys. 125, 074110 (2006)
         Ga-Kr : Obtained from the ccRepo (grant-hill.group.shef.ac.uk/ccrepo) Feb. 2017
                 A. K. Wilson, D. E. Woon, K. A. Peterson, T. H. Dunning, Jr., J. Chem. Phys. 110, 7667 (1999)
             Y : Obtained from the ccRepo (grant-hill.group.shef.ac.uk/ccrepo) Feb. 2017
                 K. A. Peterson, D. Figgen, M. Dolg, H. Stoll, J. Chem. Phys. 126, 124101 (2007)
        Ag, Au : Obtained from the Peterson Research Group Website (tyr0.chem.wsu.edu/~kipeters) Feb. 2017
                 K. A. Peterson, C. Puzzarini, Theor. Chem. Acc. 114, 283 (2005)

================================================================================
                                        WARNINGS
                       Please study these warnings very carefully!
================================================================================


WARNING: MDCI localization with Augmented Hessian Foster-Boys
  ===> : Switching off randomization!

WARNING: Analytical Frequencies for this method not available!
  ===> : Switching to Numerical Frequencies!

WARNING: The environment variable RSH_COMMAND is not set!
  ===> : All Displacements for the Numerical Hessian calculation
         will be started on localhost

WARNING: Numerical Frequencies Analysis needs Gradient calculation
  ===> : Will do Numerical Gradient calculation !!!

WARNING: Geometry Optimization
  ===> : Switching off AutoStart
         For restart on a previous wavefunction, please use MOREAD

WARNING: Post HF methods need fully converged wavefunctions
  ===> : Setting SCFConvForced true
         You can overwrite this default with %scf ConvForced false 


INFO   : the flag for use of LIBINT has been found!

================================================================================
                                       INPUT FILE
================================================================================
NAME = NH3‡.inp
|  1> ! CCSD(T) cc-pVTZ OptTS Freq NumGrad IRC TightOpt TightSCF Grid4 FinalGrid5 PrintBasis PrintMOs NBO
|  2> 
|  3> %geom
|  4>  ts_mode
|  5>   {D 1 2 3 0}
|  6>  end
|  7>  ts_active_atoms
|  8>   {0 1 2 3}
|  9>  end
| 10>  inhess read
| 11>  inhessname "freq.hess"
| 12> end
| 13> 
| 14> %irc
| 15>  maxiter 1000
| 16>  de_init_displ 0.25
| 17>  TolMAXG 1e-3
| 18>  TolRMSG 2e-4
| 19> end
| 20> 
| 21> %pal
| 22>  nprocs 10
| 23> end
| 24> 
| 25> *xyzfile 0 1 init.xyz
| 26> 
| 27>                          ****END OF INPUT****
================================================================================

                       *****************************
                       * Geometry Optimization Run *
                       *****************************

Geometry optimization settings:
Update method            Update   .... Bofill
Choice of coordinates    CoordSys .... Z-matrix Internals
Initial Hessian          InHess   .... Read

Convergence Tolerances:
Energy Change            TolE     ....  1.0000e-06 Eh
Max. Gradient            TolMAXG  ....  1.0000e-04 Eh/bohr
RMS Gradient             TolRMSG  ....  3.0000e-05 Eh/bohr
Max. Displacement        TolMAXD  ....  1.0000e-03 bohr
RMS Displacement         TolRMSD  ....  6.0000e-04 bohr
Strict Convergence                ....  False
------------------------------------------------------------------------------
                        ORCA OPTIMIZATION COORDINATE SETUP
------------------------------------------------------------------------------

The optimization will be done in new redundant internal coordinates
Making redundant internal coordinates   ...  (new redundants) done
Following TS mode number                ...    internal coordinate number:  7
TS-active-atoms for coordinate setup... 0 1 2 3 
Evaluating the initial hessian          ... (Reading Exact Hessian)...  
InHessName: freq.hess	The file <freq.hess> is opened as a .hess file
done
done
Diagonalizing the Hessian               .... done
Dimension of the hessian                .... 8
Lowest eigenvalues of the non projected Hessian:
 -0.016263331 -0.000000000  0.000000000  0.097133882  0.097139660
done
Evaluating the coordinates              ...  done
Calculating the B-matrix                .... done
Calculating the G-matrix                .... done
Diagonalizing the G-matrix              .... done
The first mode is                       ....    2
The number of degrees of freedom        ....    6

    -----------------------------------------------------------------
                    Redundant Internal Coordinates


    -----------------------------------------------------------------
         Definition                    Initial Value    d2E/dq (diagonal element)
    -----------------------------------------------------------------
      1. B(H   1,N   0)                  1.0050         0.480504   
      2. B(H   2,N   0)                  1.0051         0.480496   
      3. B(H   3,N   0)                  1.0051         0.480496   
      4. A(H   1,N   0,H   3)          120.0001         0.065319   
      5. A(H   2,N   0,H   3)          119.9999         0.065322   
      6. A(H   1,N   0,H   2)          120.0001         0.065319   
      7. D(N   0,H   3,H   2,H   1)      0.0000        -0.005004   
      8. I(H   1,H   3,H   2,N   0)      0.0000        -0.011259   
    -----------------------------------------------------------------

Number of atoms                         .... 4
Number of degrees of freedom            .... 8

         *************************************************************
         *                GEOMETRY OPTIMIZATION CYCLE   1            *
         *************************************************************
---------------------------------
CARTESIAN COORDINATES (ANGSTROEM)
---------------------------------
  N      0.000001   -0.000000    0.000000
  H      1.005050    0.000000   -0.000000
  H     -0.502525    0.870399   -0.000000
  H     -0.502525   -0.870399   -0.000000

----------------------------
CARTESIAN COORDINATES (A.U.)
----------------------------
  NO LB      ZA    FRAG     MASS         X           Y           Z
   0 N     7.0000    0    14.007    0.000002   -0.000000    0.000000
   1 H     1.0000    0     1.008    1.899269    0.000000   -0.000000
   2 H     1.0000    0     1.008   -0.949635    1.644816   -0.000000
   3 H     1.0000    0     1.008   -0.949635   -1.644816   -0.000000

--------------------------------
INTERNAL COORDINATES (ANGSTROEM)
--------------------------------
 N      0   0   0     0.000000000000     0.00000000     0.00000000
 H      1   0   0     1.005048894079     0.00000000     0.00000000
 H      1   2   0     1.005051099207   120.00005501     0.00000000
 H      1   2   3     1.005051099264   120.00005524   179.99999915

---------------------------
INTERNAL COORDINATES (A.U.)
---------------------------
 N      0   0   0     0.000000000000     0.00000000     0.00000000
 H      1   0   0     1.899267161010     0.00000000     0.00000000
 H      1   2   0     1.899271328099   120.00005501     0.00000000
 H      1   2   3     1.899271328206   120.00005524   179.99999915

---------------------
BASIS SET INFORMATION
---------------------
There are 2 groups of distinct atoms

 Group   1 Type N   : 18s5p2d1f contracted to 4s3p2d1f pattern {8811/311/11/1}
 Group   2 Type H   : 5s2p1d contracted to 3s2p1d pattern {311/11/1}

Atom   0N    basis set group =>   1
Atom   1H    basis set group =>   2
Atom   2H    basis set group =>   2
Atom   3H    basis set group =>   2

-------------------------
BASIS SET IN INPUT FORMAT
-------------------------

 # Basis set for element : H 
 NewGTO H 
 S 3 
   1      33.8700000000      0.0254948632
   2       5.0950000000      0.1903627659
   3       1.1590000000      0.8521620222
 S 1 
   1       0.3258000000      1.0000000000
 S 1 
   1       0.1027000000      1.0000000000
 P 1 
   1       1.4070000000      1.0000000000
 P 1 
   1       0.3880000000      1.0000000000
 D 1 
   1       1.0570000000      1.0000000000
  end;

 # Basis set for element : N 
 NewGTO N 
 S 8 
   1   11420.0000000000      0.0005349809
   2    1712.0000000000      0.0041376631
   3     389.3000000000      0.0212509149
   4     110.0000000000      0.0825762988
   5      35.5700000000      0.2384132727
   6      12.5400000000      0.4434316661
   7       4.6440000000      0.3554319088
   8       0.5118000000     -0.0087029018
 S 8 
   1   11420.0000000000     -0.0001987770
   2    1712.0000000000     -0.0015470035
   3     389.3000000000     -0.0079925633
   4     110.0000000000     -0.0320255651
   5      35.5700000000     -0.0991102048
   6      12.5400000000     -0.2282927747
   7       4.6440000000     -0.2981827627
   8       0.5118000000      1.0370005182
 S 1 
   1       1.2930000000      1.0000000000
 S 1 
   1       0.1787000000      1.0000000000
 P 3 
   1      26.6300000000      0.0398072123
   2       5.9480000000      0.2490026605
   3       1.7420000000      0.8104797267
 P 1 
   1       0.5550000000      1.0000000000
 P 1 
   1       0.1725000000      1.0000000000
 D 1 
   1       1.6540000000      1.0000000000
 D 1 
   1       0.4690000000      1.0000000000
 F 1 
   1       1.0930000000      1.0000000000
  end;



           ************************************************************
           *        Program running with 10 parallel MPI-processes    *
           *              working on a common directory               *
           ************************************************************
------------------------------------------------------------------------------
                           ORCA GTO INTEGRAL CALCULATION
------------------------------------------------------------------------------

                         BASIS SET STATISTICS AND STARTUP INFO

 # of primitive gaussian shells          ...   50
 # of primitive gaussian functions       ...   98
 # of contracted shells                  ...   28
 # of contracted basis functions         ...   72
 Highest angular momentum                ...    3
 Maximum contraction depth               ...    8
 Integral package used                   ... LIBINT
 Integral threshhold            Thresh   ...  2.500e-11
 Primitive cut-off              TCut     ...  2.500e-12


------------------------------ INTEGRAL EVALUATION ----------------------------


 * One electron integrals 
 Pre-screening matrix                    ... done
 Shell pair data                         ... done (   0.004 sec)



           ************************************************************
           *        Program running with 10 parallel MPI-processes    *
           *              working on a common directory               *
           ************************************************************
-------------------------------------------------------------------------------
                                 ORCA SCF
-------------------------------------------------------------------------------

------------
SCF SETTINGS
------------
Hamiltonian:
 Ab initio Hamiltonian  Method          .... Hartree-Fock(GTOs)


General Settings:
 Integral files         IntName         .... NH3‡
 Hartree-Fock type      HFTyp           .... RHF
 Total Charge           Charge          ....    0
 Multiplicity           Mult            ....    1
 Number of Electrons    NEL             ....   10
 Basis Dimension        Dim             ....   72
 Nuclear Repulsion      ENuc            ....     11.9688362036 Eh

Convergence Acceleration:
 DIIS                   CNVDIIS         .... on
   Start iteration      DIISMaxIt       ....    12
   Startup error        DIISStart       ....  0.200000
   # of expansion vecs  DIISMaxEq       ....     5
   Bias factor          DIISBfac        ....   1.050
   Max. coefficient     DIISMaxC        ....  10.000
 Newton-Raphson         CNVNR           .... off
 SOSCF                  CNVSOSCF        .... on
   Start iteration      SOSCFMaxIt      ....   150
   Startup grad/error   SOSCFStart      ....  0.003300
 Level Shifting         CNVShift        .... on
   Level shift para.    LevelShift      ....    0.2500
   Turn off err/grad.   ShiftErr        ....    0.0010
 Zerner damping         CNVZerner       .... off
 Static damping         CNVDamp         .... on
   Fraction old density DampFac         ....    0.7000
   Max. Damping (<1)    DampMax         ....    0.9800
   Min. Damping (>=0)   DampMin         ....    0.0000
   Turn off err/grad.   DampErr         ....    0.1000
 Fernandez-Rico         CNVRico         .... off

SCF Procedure:
 Maximum # iterations   MaxIter         ....   125
 SCF integral mode      SCFMode         .... Direct
   Integral package                     .... LIBINT
 Reset frequency        DirectResetFreq ....    20
 Integral Threshold     Thresh          ....  2.500e-11 Eh
 Primitive CutOff       TCut            ....  2.500e-12 Eh

Convergence Tolerance:
 Convergence Check Mode ConvCheckMode   .... Total+1el-Energy
 Convergence forced     ConvForced      .... 1
 Energy Change          TolE            ....  1.000e-08 Eh
 1-El. energy change                    ....  1.000e-05 Eh
 Orbital Gradient       TolG            ....  1.000e-05
 Orbital Rotation angle TolX            ....  1.000e-05
 DIIS Error             TolErr          ....  5.000e-07


Diagonalization of the overlap matrix:
Smallest eigenvalue                        ... 2.178e-03
Time for diagonalization                   ...    0.003 sec
Threshold for overlap eigenvalues          ... 1.000e-08
Number of eigenvalues below threshold      ... 0
Time for construction of square roots      ...    0.002 sec
Total time needed                          ...    0.005 sec

-------------------
DFT GRID GENERATION
-------------------

General Integration Accuracy     IntAcc      ...  4.670
Radial Grid Type                 RadialGrid  ... Gauss-Chebyshev
Angular Grid (max. acc.)         AngularGrid ... Lebedev-302
Angular grid pruning method      GridPruning ... 3 (G Style)
Weight generation scheme         WeightScheme... Becke
Basis function cutoff            BFCut       ...    1.0000e-11
Integration weight cutoff        WCut        ...    1.0000e-14
Grids for H and He will be reduced by one unit

# of grid points (after initial pruning)     ...  16394 (   0.0 sec)
# of grid points (after weights+screening)   ...  16135 (   0.0 sec)
nearest neighbour list constructed           ...    0.0 sec
Grid point re-assignment to atoms done       ...    0.0 sec
Grid point division into batches done        ...    0.1 sec
Reduced shell lists constructed in    0.1 sec

Total number of grid points                  ...    16135
Total number of batches                      ...      254
Average number of points per batch           ...       63
Average number of grid points per atom       ...     4034
Average number of shells per batch           ...    26.96 (96.30%)
Average number of basis functions per batch  ...    69.33 (96.30%)
Average number of large shells per batch     ...    26.44 (98.08%)
Average number of large basis fcns per batch ...    68.22 (98.40%)
Maximum spatial batch extension              ...   2.60,  2.57, 15.66 au
Average spatial batch extension              ...   0.12,  0.13,  0.23 au

Time for grid setup =    0.173 sec

------------------------------
INITIAL GUESS: MODEL POTENTIAL
------------------------------
Loading Hartree-Fock densities                     ... done
Calculating cut-offs                               ... done
Setting up the integral package                    ... done
Initializing the effective Hamiltonian             ... done
Starting the Coulomb interaction                   ... done (   0.0 sec)
Reading the grid                                   ... done
Mapping shells                                     ... done
Starting the XC term evaluation                    ... done (   0.0 sec)
Transforming the Hamiltonian                       ... done (   0.0 sec)
Diagonalizing the Hamiltonian                      ... done (   0.0 sec)
Back transforming the eigenvectors                 ... done (   0.0 sec)
Now organizing SCF variables                       ... done
                      ------------------
                      INITIAL GUESS DONE (   0.4 sec)
                      ------------------
--------------
SCF ITERATIONS
--------------
ITER       Energy         Delta-E        Max-DP      RMS-DP      [F,P]     Damp
               ***  Starting incremental Fock matrix formation  ***
  0    -56.0613504943   0.000000000000 0.06008617  0.00164310  0.4123339 0.7000
  1    -56.1189105203  -0.057560026042 0.04699881  0.00121992  0.2472889 0.7000
                               ***Turning on DIIS***
  2    -56.1501683976  -0.031257877305 0.02627468  0.00071676  0.1355450 0.7000
  3    -56.3469895236  -0.196821125980 0.03408500  0.00113793  0.0797048 0.0000
  4    -56.1698777869   0.177111736656 0.00946850  0.00021368  0.0186004 0.0000
                      *** Initiating the SOSCF procedure ***
                           *** Shutting down DIIS ***
                      *** Re-Reading the Fockian *** 
                      *** Removing any level shift *** 
ITER      Energy       Delta-E        Grad      Rot      Max-DP    RMS-DP
  5    -56.20586727  -0.0359894839  0.001437  0.001437  0.002225  0.000066
               *** Restarting incremental Fock matrix formation ***
  6    -56.20855696  -0.0026896863  0.000552  0.000525  0.001064  0.000031
  7    -56.20855911  -0.0000021516  0.000165  0.000278  0.000546  0.000018
  8    -56.20855950  -0.0000003879  0.000060  0.000051  0.000082  0.000002
  9    -56.20855951  -0.0000000140  0.000014  0.000010  0.000018  0.000001
                  ***Gradient check signals convergence***
              ***Rediagonalizing the Fockian in SOSCF/NRSCF***

               *****************************************************
               *                     SUCCESS                       *
               *           SCF CONVERGED AFTER  10 CYCLES          *
               *****************************************************


----------------
TOTAL SCF ENERGY
----------------

Total Energy       :          -56.20855951 Eh           -1529.51266 eV

Components:
Nuclear Repulsion  :           11.96883620 Eh             325.68859 eV
Electronic Energy  :          -68.17739572 Eh           -1855.20125 eV
One Electron Energy:          -99.75584466 Eh           -2714.49454 eV
Two Electron Energy:           31.57844894 Eh             859.29328 eV

Virial components:
Potential Energy   :         -112.31404657 Eh           -3056.22058 eV
Kinetic Energy     :           56.10548706 Eh            1526.70792 eV
Virial Ratio       :            2.00183712


---------------
SCF CONVERGENCE
---------------

  Last Energy change         ...   -1.7831e-09  Tolerance :   1.0000e-08
  Last MAX-Density change    ...    5.8012e-06  Tolerance :   1.0000e-07
  Last RMS-Density change    ...    1.8552e-07  Tolerance :   5.0000e-09
  Last Orbital Gradient      ...    2.0193e-06  Tolerance :   1.0000e-05
  Last Orbital Rotation      ...    2.8874e-06  Tolerance :   1.0000e-05

             **** THE GBW FILE WAS UPDATED (NH3‡.gbw) ****
             **** DENSITY FILE WAS UPDATED (NH3‡.scfp) ****
             **** ENERGY FILE WAS UPDATED (NH3‡.en.tmp) ****
             **** THE GBW FILE WAS UPDATED (NH3‡.gbw) ****
             **** DENSITY FILE WAS UPDATED (NH3‡.scfp) ****
----------------
ORBITAL ENERGIES
----------------

  NO   OCC          E(Eh)            E(eV) 
   0   2.0000     -15.516821      -422.2342 
   1   2.0000      -1.114861       -30.3369 
   2   2.0000      -0.640800       -17.4371 
   3   2.0000      -0.640799       -17.4370 
   4   2.0000      -0.386183       -10.5086 
   5   0.0000       0.142887         3.8882 
   6   0.0000       0.214959         5.8493 
   7   0.0000       0.214959         5.8493 
   8   0.0000       0.485198        13.2029 
   9   0.0000       0.485198        13.2029 
  10   0.0000       0.572070        15.5668 
  11   0.0000       0.665855        18.1188 
  12   0.0000       0.721205        19.6250 
  13   0.0000       0.726754        19.7760 
  14   0.0000       0.726754        19.7760 
  15   0.0000       0.828474        22.5439 
  16   0.0000       0.828474        22.5439 
  17   0.0000       1.086558        29.5668 
  18   0.0000       1.211335        32.9621 
  19   0.0000       1.211336        32.9621 
  20   0.0000       1.234088        33.5812 
  21   0.0000       1.442280        39.2464 
  22   0.0000       1.594275        43.3824 
  23   0.0000       1.594276        43.3824 
  24   0.0000       1.651458        44.9384 
  25   0.0000       1.651459        44.9385 
  26   0.0000       1.713816        46.6353 
  27   0.0000       1.713817        46.6353 
  28   0.0000       2.075177        56.4684 
  29   0.0000       2.518375        68.5285 
  30   0.0000       2.936670        79.9108 
  31   0.0000       2.936670        79.9109 
  32   0.0000       3.322402        90.4072 
  33   0.0000       3.331517        90.6552 
  34   0.0000       3.331517        90.6552 
  35   0.0000       3.474875        94.5561 
  36   0.0000       3.474875        94.5561 
  37   0.0000       3.543719        96.4295 
  38   0.0000       3.580770        97.4377 
  39   0.0000       3.674970       100.0010 
  40   0.0000       3.929181       106.9184 
  41   0.0000       3.929593       106.9297 
  42   0.0000       3.929594       106.9297 
  43   0.0000       3.947858       107.4267 
  44   0.0000       3.947858       107.4267 
  45   0.0000       4.127581       112.3172 
  46   0.0000       4.127582       112.3172 
  47   0.0000       4.250405       115.6594 
  48   0.0000       4.300065       117.0107 
  49   0.0000       4.320688       117.5719 
  50   0.0000       4.437305       120.7452 
  51   0.0000       4.437305       120.7452 
  52   0.0000       4.440267       120.8258 
  53   0.0000       4.440270       120.8259 
  54   0.0000       4.581015       124.6558 
  55   0.0000       4.669617       127.0667 
  56   0.0000       4.669619       127.0668 
  57   0.0000       5.144571       139.9909 
  58   0.0000       5.144571       139.9909 
  59   0.0000       5.589335       152.0935 
  60   0.0000       5.589335       152.0936 
  61   0.0000       5.981832       162.7739 
  62   0.0000       6.026338       163.9850 
  63   0.0000       6.079708       165.4373 
  64   0.0000       6.079712       165.4374 
  65   0.0000       6.159861       167.6183 
  66   0.0000       6.159864       167.6184 
  67   0.0000       6.524192       177.5323 
  68   0.0000       7.143004       194.3710 
  69   0.0000       7.143006       194.3711 
  70   0.0000       7.161967       194.8870 
  71   0.0000      14.401298       391.8792 
------------------
MOLECULAR ORBITALS
------------------
                      0         1         2         3         4         5   
                 -15.51682  -1.11486  -0.64080  -0.64080  -0.38618   0.14289
                   2.00000   2.00000   2.00000   2.00000   2.00000   0.00000
                  --------  --------  --------  --------  --------  --------
  0N   1s        -0.976940 -0.012533  0.000000  0.000000  0.000000  0.015806
  0N   2s        -0.000277  0.476628  0.000000  0.000000 -0.000000  0.237580
  0N   3s        -0.042620  0.112637  0.000000  0.000000 -0.000000  0.048586
  0N   4s        -0.001911  0.268581  0.000000  0.000000 -0.000000  2.765923
  0N   1pz        0.000000 -0.000000 -0.000000  0.000000 -0.321894 -0.000000
  0N   1px        0.000000  0.000000 -0.252511  0.000056  0.000000 -0.000000
  0N   1py       -0.000000  0.000000 -0.000056 -0.252511  0.000000 -0.000000
  0N   2pz       -0.000000 -0.000000 -0.000000  0.000000 -0.408061 -0.000000
  0N   2px       -0.000000  0.000000 -0.301200  0.000067 -0.000000 -0.000000
  0N   2py       -0.000000  0.000000 -0.000067 -0.301200  0.000000  0.000000
  0N   3pz        0.000000 -0.000000  0.000000 -0.000000 -0.433025 -0.000000
  0N   3px       -0.000000  0.000000 -0.147327  0.000033 -0.000000 -0.000002
  0N   3py       -0.000000  0.000000 -0.000033 -0.147327  0.000000  0.000000
  0N   1dz2       0.000305 -0.007359 -0.000000  0.000000  0.000000  0.005607
  0N   1dxz      -0.000000  0.000000  0.000000 -0.000000 -0.000000 -0.000000
  0N   1dyz       0.000000  0.000000  0.000000  0.000000 -0.000000  0.000000
  0N   1dx2y2    -0.000000  0.000000 -0.010912  0.000002  0.000000  0.000000
  0N   1dxy      -0.000000  0.000000  0.000002  0.010912  0.000000 -0.000000
  0N   2dz2      -0.000399 -0.014434  0.000000 -0.000000  0.000000 -0.140868
  0N   2dxz      -0.000000  0.000000  0.000000 -0.000000  0.000000  0.000000
  0N   2dyz       0.000000  0.000000  0.000000  0.000000 -0.000000  0.000000
  0N   2dx2y2     0.000000  0.000000 -0.012332  0.000003 -0.000000  0.000000
  0N   2dxy       0.000000  0.000000  0.000003  0.012333 -0.000000  0.000000
  0N   1f0       -0.000000  0.000000  0.000000  0.000000  0.006541  0.000000
  0N   1f+1       0.000000  0.000000  0.003801 -0.000001  0.000000  0.000000
  0N   1f-1       0.000000 -0.000000  0.000001  0.003801 -0.000000 -0.000000
  0N   1f+2      -0.000000  0.000000  0.000000  0.000000 -0.000000  0.000000
  0N   1f-2      -0.000000 -0.000000 -0.000000 -0.000000 -0.000000 -0.000000
  0N   1f+3       0.000390 -0.004695 -0.000000 -0.000000 -0.000000 -0.016209
  0N   1f-3      -0.000000  0.000000  0.000000  0.000000  0.000000 -0.000000
  1H   1s        -0.000192  0.086696 -0.168778  0.000038  0.000000 -0.015474
  1H   2s        -0.000470  0.072700 -0.258367  0.000058  0.000000 -0.411910
  1H   3s         0.000215  0.006825 -0.084716  0.000019  0.000000 -0.928756
  1H   1pz        0.000000  0.000000 -0.000000  0.000000 -0.010377 -0.000000
  1H   1px       -0.000256 -0.010354  0.017206 -0.000004 -0.000000 -0.008819
  1H   1py       -0.000000 -0.000000 -0.000001 -0.005326  0.000000 -0.000000
  1H   2pz       -0.000000 -0.000000 -0.000000  0.000000 -0.024146 -0.000000
  1H   2px        0.000288 -0.003400  0.027234 -0.000006 -0.000000  0.231599
  1H   2py       -0.000000 -0.000000 -0.000003 -0.013951  0.000000  0.000000
  1H   1dz2      -0.000118 -0.000292  0.004143 -0.000001 -0.000000  0.011531
  1H   1dxz      -0.000000 -0.000000  0.000000 -0.000000  0.004356  0.000000
  1H   1dyz      -0.000000 -0.000000 -0.000000 -0.000000  0.000000 -0.000000
  1H   1dx2y2     0.000318  0.001271 -0.005798  0.000001  0.000000 -0.010959
  1H   1dxy       0.000000  0.000000  0.000001  0.002316 -0.000000 -0.000000
  2H   1s        -0.000192  0.086696  0.084356 -0.146185  0.000000 -0.015474
  2H   2s        -0.000470  0.072700  0.129134 -0.223781  0.000000 -0.411908
  2H   3s         0.000215  0.006825  0.042342 -0.073376  0.000000 -0.928757
  2H   1pz        0.000000  0.000000  0.000000 -0.000000 -0.010377 -0.000000
  2H   1px        0.000128  0.005177  0.000305 -0.009756  0.000000  0.004409
  2H   1py       -0.000221 -0.008967 -0.009754  0.011575 -0.000000 -0.007637
  2H   2pz       -0.000000 -0.000000  0.000000 -0.000000 -0.024146 -0.000000
  2H   2px       -0.000144  0.001700 -0.003659 -0.017833  0.000000 -0.115799
  2H   2py        0.000249 -0.002944 -0.017830  0.016941 -0.000000  0.200570
  2H   1dz2      -0.000118 -0.000292 -0.002071  0.003588 -0.000000  0.011531
  2H   1dxz       0.000000  0.000000  0.000000 -0.000000 -0.002178 -0.000000
  2H   1dyz      -0.000000 -0.000000 -0.000000  0.000000  0.003773  0.000000
  2H   1dx2y2    -0.000159 -0.000635 -0.003186  0.001509 -0.000000  0.005480
  2H   1dxy      -0.000276 -0.001100 -0.001507  0.004928 -0.000000  0.009491
  3H   1s        -0.000192  0.086696  0.084422  0.146147  0.000000 -0.015474
  3H   2s        -0.000470  0.072700  0.129234  0.223723  0.000000 -0.411908
  3H   3s         0.000215  0.006825  0.042374  0.073357  0.000000 -0.928757
  3H   1pz        0.000000  0.000000  0.000000  0.000000 -0.010377 -0.000000
  3H   1px        0.000128  0.005177  0.000309  0.009756  0.000000  0.004409
  3H   1py        0.000221  0.008967  0.009759  0.011571  0.000000  0.007637
  3H   2pz       -0.000000 -0.000000  0.000000  0.000000 -0.024146 -0.000000
  3H   2px       -0.000144  0.001700 -0.003651  0.017834  0.000000 -0.115799
  3H   2py       -0.000249  0.002944  0.017837  0.016933  0.000000 -0.200570
  3H   1dz2      -0.000118 -0.000292 -0.002072 -0.003587 -0.000000  0.011531
  3H   1dxz       0.000000  0.000000  0.000000  0.000000 -0.002178 -0.000000
  3H   1dyz       0.000000  0.000000  0.000000  0.000000 -0.003773 -0.000000
  3H   1dx2y2    -0.000159 -0.000635 -0.003187 -0.001507 -0.000000  0.005480
  3H   1dxy       0.000276  0.001100  0.001509  0.004927  0.000000 -0.009491
                      6         7         8         9        10        11   
                   0.21496   0.21496   0.48520   0.48520   0.57207   0.66586
                   0.00000   0.00000   0.00000   0.00000   0.00000   0.00000
                  --------  --------  --------  --------  --------  --------
  0N   1s        -0.000000  0.000000 -0.000000 -0.000001  0.009268  0.000000
  0N   2s        -0.000001  0.000000 -0.000000 -0.000001  0.223856 -0.000000
  0N   3s        -0.000000  0.000000 -0.000000 -0.000000  0.024626 -0.000000
  0N   4s        -0.000008  0.000000 -0.000000 -0.000015  0.760274  0.000000
  0N   1pz       -0.000000  0.000000  0.000000  0.000000 -0.000000  0.244244
  0N   1px       -0.123039  0.006726  0.000000  0.001012 -0.000001 -0.000000
  0N   1py       -0.006726 -0.123040 -0.001011  0.000000 -0.000000  0.000000
  0N   2pz       -0.000000  0.000000  0.000000 -0.000000  0.000000  0.810234
  0N   2px       -0.292712  0.016001 -0.000192 -0.401062  0.000001 -0.000000
  0N   2py       -0.016001 -0.292711  0.401058 -0.000192  0.000000  0.000000
  0N   3pz       -0.000000  0.000000  0.000000 -0.000000 -0.000000 -1.379881
  0N   3px       -1.381683  0.075527 -0.000993 -2.070354  0.000009 -0.000000
  0N   3py       -0.075527 -1.381679  2.070341 -0.000993  0.000000  0.000000
  0N   1dz2       0.000000 -0.000000 -0.000000 -0.000000  0.016235  0.000000
  0N   1dxz      -0.000000  0.000000 -0.000000 -0.000000 -0.000000  0.000000
  0N   1dyz      -0.000000 -0.000000  0.000000 -0.000000 -0.000000  0.000000
  0N   1dx2y2    -0.000321  0.000018  0.000018  0.036622 -0.000000  0.000000
  0N   1dxy       0.000018  0.000321  0.036622 -0.000018  0.000000  0.000000
  0N   2dz2       0.000000 -0.000000  0.000000  0.000001  0.026100 -0.000000
  0N   2dxz       0.000000 -0.000000  0.000000  0.000000 -0.000000 -0.000000
  0N   2dyz       0.000000  0.000000 -0.000000  0.000000 -0.000000 -0.000000
  0N   2dx2y2    -0.064735  0.003539 -0.000205 -0.427978  0.000002 -0.000000
  0N   2dxy       0.003539  0.064735 -0.427976  0.000205 -0.000000 -0.000000
  0N   1f0        0.000000 -0.000000 -0.000000  0.000000  0.000000  0.009837
  0N   1f+1       0.008769 -0.000479  0.000016  0.033837 -0.000000  0.000000
  0N   1f-1       0.000479  0.008769 -0.033836  0.000016 -0.000000 -0.000000
  0N   1f+2       0.000000 -0.000000  0.000000  0.000000  0.000000 -0.000000
  0N   1f-2      -0.000000 -0.000000  0.000000 -0.000000 -0.000000  0.000000
  0N   1f+3      -0.000000  0.000000  0.000000 -0.000000 -0.027937 -0.000000
  0N   1f-3       0.000000  0.000000  0.000000  0.000000 -0.000000 -0.000000
  1H   1s        -0.005356  0.000293  0.000039  0.081923 -0.085124  0.000000
  1H   2s         0.307901 -0.016831  0.001028  2.144130 -1.001401 -0.000000
  1H   3s         2.277941 -0.124520  0.000084  0.174419  0.399177 -0.000000
  1H   1pz       -0.000000  0.000000  0.000000  0.000000 -0.000000 -0.011054
  1H   1px        0.021728 -0.001188 -0.000032 -0.065787  0.028949  0.000000
  1H   1py       -0.000883 -0.016153  0.014199 -0.000007  0.000000 -0.000000
  1H   2pz        0.000000 -0.000000  0.000000  0.000000 -0.000000  0.143291
  1H   2px       -0.262032  0.014324 -0.000181 -0.377625 -0.147479  0.000000
  1H   2py        0.005385  0.098520  0.209834 -0.000101  0.000000  0.000000
  1H   1dz2      -0.009854  0.000539 -0.000007 -0.014780  0.010355  0.000000
  1H   1dxz      -0.000000  0.000000 -0.000000 -0.000000  0.000000 -0.010005
  1H   1dyz      -0.000000 -0.000000  0.000000 -0.000000 -0.000000  0.000000
  1H   1dx2y2     0.016501 -0.000902  0.000025  0.052141 -0.004549 -0.000000
  1H   1dxy      -0.000247 -0.004521 -0.033809  0.000016 -0.000000 -0.000000
  2H   1s         0.002424 -0.004784 -0.070967 -0.040927 -0.085124  0.000000
  2H   2s        -0.139373  0.275061 -1.857375 -1.071170 -1.001394 -0.000000
  2H   3s        -1.031130  2.035010 -0.151081 -0.087134  0.399188 -0.000000
  2H   1pz        0.000000 -0.000000 -0.000000 -0.000000 -0.000000 -0.011054
  2H   1px       -0.007580 -0.016038 -0.022351 -0.027085 -0.014474 -0.000000
  2H   1py       -0.015733  0.013154  0.052900  0.022313  0.025071  0.000000
  2H   2pz       -0.000000  0.000000 -0.000000 -0.000000 -0.000000  0.143288
  2H   2px        0.016916  0.155665 -0.072775 -0.251747  0.073742 -0.000000
  2H   2py        0.146727 -0.180427  0.335709  0.072493 -0.127725  0.000000
  2H   1dz2       0.004460 -0.008803  0.012804  0.007384  0.010355  0.000000
  2H   1dxz      -0.000000 -0.000000  0.000000 -0.000000 -0.000000  0.005003
  2H   1dyz      -0.000000 -0.000000  0.000000 -0.000000  0.000000 -0.008665
  2H   1dx2y2     0.007232 -0.005598  0.037211 -0.012339  0.002275  0.000000
  2H   1dxy       0.004449 -0.013789  0.030671  0.037203  0.003940  0.000000
  3H   1s         0.002931  0.004491  0.070928 -0.040995 -0.085124  0.000000
  3H   2s        -0.168525 -0.258231  1.856346 -1.072951 -1.001394 -0.000000
  3H   3s        -1.246804 -1.910490  0.150997 -0.087278  0.399188 -0.000000
  3H   1pz        0.000000  0.000000  0.000000 -0.000000 -0.000000 -0.011054
  3H   1px       -0.005786  0.016768  0.022325 -0.027107 -0.014474 -0.000000
  3H   1py        0.017073  0.011361  0.052879 -0.022363 -0.025071 -0.000000
  3H   2pz       -0.000000 -0.000000  0.000000 -0.000000 -0.000000  0.143288
  3H   2px       -0.000152 -0.156581  0.072534 -0.251816  0.073742 -0.000000
  3H   2py       -0.165519 -0.163359  0.335639 -0.072815  0.127725 -0.000000
  3H   1dz2       0.005393  0.008264 -0.012796  0.007396  0.010355  0.000000
  3H   1dxz      -0.000000  0.000000 -0.000000 -0.000000 -0.000000  0.005003
  3H   1dyz       0.000000 -0.000000  0.000000  0.000000 -0.000000  0.008665
  3H   1dx2y2     0.007799  0.004777 -0.037223 -0.012304  0.002275  0.000000
  3H   1dxy      -0.005926 -0.013222  0.030635 -0.037232 -0.003940 -0.000000
                     12        13        14        15        16        17   
                   0.72121   0.72675   0.72675   0.82847   0.82847   1.08656
                   0.00000   0.00000   0.00000   0.00000   0.00000   0.00000
                  --------  --------  --------  --------  --------  --------
  0N   1s        -0.056436  0.000000 -0.000002 -0.000000 -0.000000  0.000000
  0N   2s         0.196137 -0.000000  0.000005 -0.000000 -0.000000  0.000000
  0N   3s         0.162865 -0.000000  0.000004 -0.000000 -0.000000  0.000000
  0N   4s        -8.468006  0.000000 -0.000240  0.000000  0.000000  0.000000
  0N   1pz        0.000000  0.000000  0.000000 -0.000000 -0.000000  0.000000
  0N   1px       -0.000009  0.000031  0.309621  0.000000  0.000000  0.000000
  0N   1py        0.000000  0.309621 -0.000031  0.000000 -0.000000 -0.000000
  0N   2pz        0.000000 -0.000000  0.000000 -0.000002 -0.000000  0.000000
  0N   2px        0.000003 -0.000021 -0.213545  0.000000  0.000000 -0.000000
  0N   2py       -0.000000 -0.213541  0.000021  0.000000 -0.000000 -0.000002
  0N   3pz       -0.000000  0.000000 -0.000000  0.000003  0.000000  0.000000
  0N   3px        0.000092 -0.000312 -3.141769  0.000000  0.000000  0.000000
  0N   3py       -0.000000 -3.141766  0.000312  0.000000 -0.000000 -0.000000
  0N   1dz2      -0.020124  0.000000 -0.000000  0.000000  0.000000 -0.000000
  0N   1dxz       0.000000 -0.000000 -0.000000  0.028102  0.000079  0.000000
  0N   1dyz      -0.000000 -0.000000  0.000000  0.000079 -0.028102  0.000000
  0N   1dx2y2     0.000000 -0.000001 -0.010783  0.000000  0.000000  0.000000
  0N   1dxy       0.000000  0.010783 -0.000001 -0.000000  0.000000 -0.000000
  0N   2dz2       0.644123 -0.000000  0.000017 -0.000000 -0.000000  0.000000
  0N   2dxz      -0.000000  0.000000  0.000000 -0.004224 -0.000012  0.000000
  0N   2dyz      -0.000000  0.000000 -0.000000 -0.000012  0.004222  0.000000
  0N   2dx2y2     0.000013 -0.000049 -0.496669 -0.000000 -0.000000 -0.000000
  0N   2dxy       0.000000  0.496671 -0.000049  0.000000 -0.000000  0.000002
  0N   1f0       -0.000000 -0.000000  0.000000  0.000000 -0.000000 -0.000000
  0N   1f+1      -0.000001  0.000003  0.033881  0.000000  0.000000 -0.000000
  0N   1f-1       0.000000  0.033882 -0.000003  0.000000 -0.000000  0.000000
  0N   1f+2      -0.000000  0.000000  0.000000 -0.029164 -0.000082  0.000000
  0N   1f-2       0.000000 -0.000000  0.000000  0.000082 -0.029164  0.000000
  0N   1f+3       0.096458 -0.000000  0.000002 -0.000000 -0.000000  0.000000
  0N   1f-3      -0.000000  0.000000  0.000000  0.000000 -0.000000 -0.028713
  1H   1s        -0.047957 -0.000008 -0.080718  0.000000  0.000000  0.000000
  1H   2s         2.293408  0.000150  1.508235 -0.000000 -0.000000 -0.000000
  1H   3s         1.002989  0.000211  2.128794  0.000000  0.000000 -0.000000
  1H   1pz       -0.000000  0.000000  0.000000 -0.065636 -0.000185  0.000000
  1H   1px       -0.030990 -0.000002 -0.021374 -0.000000 -0.000000 -0.000000
  1H   1py       -0.000000 -0.030198  0.000003  0.000000 -0.000000  0.054711
  1H   2pz        0.000000  0.000000  0.000000  0.915004  0.002577 -0.000000
  1H   2px       -1.163829 -0.000122 -1.229742  0.000000  0.000000 -0.000000
  1H   2py        0.000000  0.289729 -0.000029 -0.000000  0.000000 -0.784656
  1H   1dz2      -0.063352 -0.000004 -0.041407  0.000000  0.000000  0.000000
  1H   1dxz      -0.000000 -0.000000 -0.000000 -0.027348 -0.000077  0.000000
  1H   1dyz      -0.000000 -0.000000  0.000000  0.000048 -0.016955 -0.000000
  1H   1dx2y2     0.062339  0.000008  0.082157  0.000000  0.000000  0.000000
  1H   1dxy      -0.000000 -0.007384  0.000001  0.000000 -0.000000  0.002699
  2H   1s        -0.047961 -0.069899  0.040364 -0.000000 -0.000000  0.000000
  2H   2s         2.293465  1.306037 -0.754154  0.000000  0.000000  0.000003
  2H   3s         1.003077  1.843455 -1.064535 -0.000000 -0.000000 -0.000000
  2H   1pz       -0.000000  0.000000 -0.000000  0.032658  0.056935 -0.000000
  2H   1px        0.015496 -0.003824 -0.027991  0.000000 -0.000000 -0.047381
  2H   1py       -0.026838 -0.023579 -0.003820  0.000000  0.000000 -0.027356
  2H   2pz        0.000000  0.000000 -0.000000 -0.455272 -0.793704  0.000000
  2H   2px        0.581934  0.657927 -0.090179 -0.000000  0.000000  0.679532
  2H   2py       -1.007951 -0.849782  0.657993 -0.000000  0.000000  0.392326
  2H   1dz2      -0.063353 -0.035856  0.020705 -0.000000 -0.000000 -0.000000
  2H   1dxz       0.000000  0.000000 -0.000000  0.005933 -0.019167  0.000000
  2H   1dyz      -0.000000 -0.000000  0.000000  0.019138  0.016326  0.000000
  2H   1dx2y2    -0.031171 -0.032375  0.026079 -0.000000  0.000000  0.002337
  2H   1dxy      -0.053990 -0.063460  0.032382  0.000000 -0.000000 -0.001349
  3H   1s        -0.047961  0.069907  0.040350 -0.000000  0.000000 -0.000000
  3H   2s         2.293465 -1.306187 -0.753895  0.000000 -0.000000 -0.000003
  3H   3s         1.003077 -1.843666 -1.064169 -0.000000  0.000000  0.000000
  3H   1pz       -0.000000 -0.000000 -0.000000  0.032978 -0.056750  0.000000
  3H   1px        0.015496  0.003819 -0.027992  0.000000  0.000000  0.047381
  3H   1py        0.026838 -0.023579  0.003825 -0.000000  0.000000 -0.027356
  3H   2pz        0.000000 -0.000000 -0.000000 -0.459735  0.791128 -0.000000
  3H   2px        0.581934 -0.657945 -0.090048 -0.000000 -0.000000 -0.679532
  3H   2py        1.007951 -0.849913 -0.657824  0.000000  0.000000  0.392326
  3H   1dz2      -0.063353  0.035860  0.020698 -0.000000  0.000000  0.000000
  3H   1dxz       0.000000 -0.000000 -0.000000  0.005825  0.019200 -0.000000
  3H   1dyz       0.000000 -0.000000 -0.000000 -0.019229  0.016218  0.000000
  3H   1dx2y2    -0.031171  0.032380  0.026073 -0.000000 -0.000000 -0.002337
  3H   1dxy       0.053990 -0.063466 -0.032370 -0.000000 -0.000000 -0.001349
                     18        19        20        21        22        23   
                   1.21134   1.21134   1.23409   1.44228   1.59428   1.59428
                   0.00000   0.00000   0.00000   0.00000   0.00000   0.00000
                  --------  --------  --------  --------  --------  --------
  0N   1s        -0.000000 -0.000000  0.000000  0.211995  0.000000  0.000001
  0N   2s        -0.000000 -0.000000  0.000000  0.647266  0.000000  0.000002
  0N   3s        -0.000000 -0.000000  0.000000  0.304290  0.000000  0.000002
  0N   4s         0.000005  0.000000 -0.000000 -1.234531 -0.000000 -0.000018
  0N   1pz       -0.000000 -0.000000  0.096134 -0.000000 -0.000000  0.000000
  0N   1px        0.034153  0.000044 -0.000000 -0.000001  0.000074  0.183760
  0N   1py        0.000044 -0.034153 -0.000000  0.000000 -0.183760  0.000074
  0N   2pz       -0.000000 -0.000000  0.393952 -0.000000 -0.000000  0.000000
  0N   2px       -0.177731 -0.000230 -0.000000 -0.000016  0.000370  0.913444
  0N   2py       -0.000230  0.177734 -0.000000  0.000000 -0.913455  0.000370
  0N   3pz        0.000000 -0.000000  1.242870 -0.000000 -0.000000  0.000000
  0N   3px        2.747618  0.003561  0.000000 -0.000017  0.000653  1.613437
  0N   3py        0.003561 -2.747605 -0.000000 -0.000000 -1.613455  0.000653
  0N   1dz2      -0.000000 -0.000000  0.000000  0.005046  0.000000  0.000000
  0N   1dxz      -0.000000 -0.000000 -0.000000  0.000000 -0.000000 -0.000000
  0N   1dyz      -0.000000  0.000000  0.000000 -0.000000  0.000000 -0.000000
  0N   1dx2y2     0.015207  0.000020  0.000000 -0.000000  0.000005  0.012302
  0N   1dxy      -0.000020  0.015207  0.000000 -0.000000  0.012302 -0.000005
  0N   2dz2      -0.000000 -0.000000  0.000000  1.021245  0.000000  0.000008
  0N   2dxz       0.000000  0.000000  0.000001 -0.000000  0.000000  0.000000
  0N   2dyz       0.000000 -0.000000 -0.000000  0.000000 -0.000000  0.000000
  0N   2dx2y2    -0.089090 -0.000115 -0.000000 -0.000003 -0.000431 -1.064670
  0N   2dxy       0.000115 -0.089093 -0.000000  0.000000 -1.064660  0.000431
  0N   1f0       -0.000000  0.000000 -0.030788 -0.000000  0.000000 -0.000000
  0N   1f+1      -0.014645 -0.000019  0.000000  0.000000  0.000011  0.026652
  0N   1f-1      -0.000019  0.014645  0.000000  0.000000 -0.026651  0.000011
  0N   1f+2       0.000000  0.000000  0.000000 -0.000000  0.000000  0.000000
  0N   1f-2      -0.000000  0.000000  0.000000 -0.000000  0.000000 -0.000000
  0N   1f+3      -0.000000 -0.000000  0.000000  0.132701  0.000000  0.000001
  0N   1f-3      -0.000000  0.000000  0.000000 -0.000000  0.000000 -0.000000
  1H   1s         0.032099  0.000042 -0.000000 -0.063155 -0.000094 -0.232478
  1H   2s        -1.283872 -0.001664  0.000000  0.690734 -0.000250 -0.617732
  1H   3s        -0.429547 -0.000557  0.000000 -0.110297 -0.000468 -1.157301
  1H   1pz        0.000000  0.000000  0.070754  0.000000  0.000000  0.000000
  1H   1px        0.026895  0.000035 -0.000000 -0.142559 -0.000059 -0.146756
  1H   1py        0.000113 -0.086895 -0.000000 -0.000000 -0.067981  0.000028
  1H   2pz       -0.000000 -0.000000 -1.013557  0.000000 -0.000000 -0.000000
  1H   2px       -0.507880 -0.000658 -0.000000  0.387911  0.000476  1.176860
  1H   2py       -0.001743  1.345197  0.000000  0.000000  1.084058 -0.000439
  1H   1dz2       0.012007  0.000016 -0.000000 -0.004241  0.000010  0.024280
  1H   1dxz       0.000000  0.000000  0.017012 -0.000000  0.000000  0.000000
  1H   1dyz      -0.000000  0.000000 -0.000000 -0.000000 -0.000000  0.000000
  1H   1dx2y2     0.030978  0.000040  0.000000  0.058171 -0.000010 -0.024950
  1H   1dxy       0.000050 -0.038644 -0.000000  0.000000 -0.080831  0.000033
  2H   1s        -0.016014 -0.027820 -0.000000 -0.063157  0.201378  0.116157
  2H   2s         0.640494  1.112686  0.000000  0.690702  0.535120  0.308663
  2H   3s         0.214290  0.372270  0.000000 -0.110309  1.002491  0.578245
  2H   1pz       -0.000000 -0.000000  0.070754  0.000000 -0.000000 -0.000000
  2H   1px        0.071928 -0.025888  0.000000  0.071279 -0.092978  0.014335
  2H   1py        0.026035 -0.041861 -0.000000 -0.123459  0.093109  0.092945
  2H   2pz        0.000000  0.000000 -1.013554  0.000000  0.000000  0.000000
  2H   2px       -1.136337  0.361095  0.000000 -0.193962  0.978799 -0.519219
  2H   2py       -0.363500  0.716742 -0.000000  0.335961 -0.612035 -0.978757
  2H   1dz2      -0.005990 -0.010406 -0.000000 -0.004240 -0.021033 -0.012132
  2H   1dxz      -0.000000  0.000000 -0.008506  0.000000  0.000000  0.000000
  2H   1dyz      -0.000000 -0.000000  0.014732 -0.000000 -0.000000 -0.000000
  2H   1dx2y2    -0.021277  0.030120 -0.000000 -0.029085  0.024169 -0.066871
  2H   1dxy       0.030130  0.013612 -0.000000 -0.050377 -0.038911  0.024212
  3H   1s        -0.016086  0.027779 -0.000000 -0.063157 -0.201284  0.116319
  3H   2s         0.643376 -1.111023  0.000000  0.690702 -0.534870  0.309096
  3H   3s         0.215254 -0.371714  0.000000 -0.110309 -1.002023  0.579056
  3H   1pz       -0.000000  0.000000  0.070754  0.000000  0.000000 -0.000000
  3H   1px        0.071861  0.026074  0.000000  0.071279  0.092989  0.014260
  3H   1py       -0.025927 -0.041928  0.000000  0.123459  0.093033 -0.093020
  3H   2pz        0.000000 -0.000000 -1.013554  0.000000 -0.000000  0.000000
  3H   2px       -1.135397 -0.364039  0.000000 -0.193962 -0.979219 -0.518427
  3H   2py        0.361641  0.717682  0.000000 -0.335961 -0.611243  0.979252
  3H   1dz2      -0.006017  0.010391 -0.000000 -0.004240  0.021023 -0.012149
  3H   1dxz      -0.000000 -0.000000 -0.008506  0.000000 -0.000000  0.000000
  3H   1dyz       0.000000 -0.000000 -0.014732  0.000000 -0.000000  0.000000
  3H   1dx2y2    -0.021199 -0.030175 -0.000000 -0.029085 -0.024224 -0.066851
  3H   1dxy      -0.030165  0.013534  0.000000  0.050377 -0.038930 -0.024181
                     24        25        26        27        28        29   
                   1.65146   1.65146   1.71382   1.71382   2.07518   2.51838
                   0.00000   0.00000   0.00000   0.00000   0.00000   0.00000
                  --------  --------  --------  --------  --------  --------
  0N   1s        -0.000000 -0.000000  0.000002  0.000000  0.394106 -0.501709
  0N   2s        -0.000000 -0.000000  0.000005  0.000000  1.260414 -1.243961
  0N   3s        -0.000000  0.000000  0.000004  0.000000  0.516181 -0.395435
  0N   4s        -0.000000 -0.000000 -0.000021 -0.000000  6.392417 -4.837109
  0N   1pz        0.000000 -0.000000  0.000000 -0.000000 -0.000000  0.000000
  0N   1px        0.000000  0.000000  0.184068  0.000027  0.000001 -0.000000
  0N   1py       -0.000000  0.000000  0.000027 -0.184067  0.000000  0.000000
  0N   2pz       -0.000000 -0.000002  0.000000 -0.000000 -0.000000  0.000000
  0N   2px        0.000000  0.000000  2.927770  0.000434  0.000013  0.000001
  0N   2py       -0.000000  0.000000  0.000434 -2.927752 -0.000000 -0.000000
  0N   3pz        0.000000 -0.000001  0.000000 -0.000000 -0.000000  0.000000
  0N   3px        0.000000  0.000000  3.170992  0.000470  0.000012  0.000003
  0N   3py       -0.000000  0.000000  0.000470 -3.170972  0.000000 -0.000000
  0N   1dz2      -0.000000  0.000000 -0.000000 -0.000000  0.050279  0.092011
  0N   1dxz       0.000012  0.030623 -0.000000 -0.000000 -0.000000 -0.000000
  0N   1dyz      -0.030623  0.000012 -0.000000  0.000000 -0.000000  0.000000
  0N   1dx2y2     0.000000  0.000000  0.029449  0.000004 -0.000000 -0.000000
  0N   1dxy       0.000000 -0.000000 -0.000004  0.029448  0.000000  0.000000
  0N   2dz2       0.000000 -0.000000  0.000011  0.000000 -1.367200  0.603809
  0N   2dxz      -0.000580 -1.519881 -0.000000 -0.000000  0.000000 -0.000000
  0N   2dyz       1.519877 -0.000580 -0.000000  0.000000  0.000000  0.000000
  0N   2dx2y2    -0.000000 -0.000000  2.065571  0.000306  0.000007  0.000002
  0N   2dxy      -0.000000  0.000000 -0.000306  2.065582  0.000000 -0.000000
  0N   1f0        0.000000  0.000000 -0.000000 -0.000000 -0.000000 -0.000000
  0N   1f+1       0.000000  0.000000 -0.104423 -0.000015 -0.000000 -0.000000
  0N   1f-1      -0.000000  0.000000 -0.000015  0.104423  0.000000  0.000000
  0N   1f+2      -0.000019 -0.048613 -0.000000 -0.000000 -0.000000 -0.000000
  0N   1f-2      -0.048613  0.000019  0.000000 -0.000000 -0.000000  0.000000
  0N   1f+3      -0.000000  0.000000  0.000001  0.000000  0.086330  0.264244
  0N   1f-3       0.000000 -0.000000 -0.000000  0.000000 -0.000000  0.000000
  1H   1s        -0.000000 -0.000000  0.122215  0.000018 -0.222516 -0.732458
  1H   2s         0.000000  0.000000 -5.394391 -0.000799 -2.352624  2.812090
  1H   3s        -0.000000 -0.000000 -0.983698 -0.000146 -0.610400  0.130278
  1H   1pz       -0.000017 -0.045358 -0.000000 -0.000000  0.000000 -0.000000
  1H   1px       -0.000000 -0.000000  0.109009  0.000016 -0.110351 -0.052304
  1H   1py       -0.000000  0.000000  0.000000 -0.000911 -0.000000  0.000000
  1H   2pz        0.000386  1.012063 -0.000000 -0.000000 -0.000000  0.000000
  1H   2px        0.000000  0.000000  2.847734  0.000422  1.431063 -1.009168
  1H   2py        0.000000 -0.000000  0.000008 -0.055912  0.000000 -0.000000
  1H   1dz2       0.000000  0.000000  0.110648  0.000016 -0.048106 -0.088302
  1H   1dxz      -0.000040 -0.104770  0.000000  0.000000  0.000000 -0.000000
  1H   1dyz       0.044874 -0.000017 -0.000000 -0.000000  0.000000  0.000000
  1H   1dx2y2     0.000000  0.000000 -0.221031 -0.000033  0.014774 -0.021426
  1H   1dxy      -0.000000  0.000000 -0.000010  0.064210  0.000000 -0.000000
  2H   1s         0.000000  0.000000 -0.061092 -0.105852 -0.222518 -0.732462
  2H   2s        -0.000000 -0.000000  2.696513  4.672066 -2.352582  2.812094
  2H   3s         0.000000  0.000000  0.491725  0.851973 -0.610392  0.130275
  2H   1pz        0.039290  0.022664  0.000000  0.000000  0.000000 -0.000000
  2H   1px       -0.000000  0.000000  0.027928  0.046812  0.055175  0.026152
  2H   1py        0.000000  0.000000 -0.046796 -0.081991 -0.095566 -0.045296
  2H   2pz       -0.876662 -0.505696  0.000000  0.000000 -0.000000  0.000000
  2H   2px        0.000000 -0.000000  0.753687  1.209006 -0.715523  0.504586
  2H   2py       -0.000000 -0.000000 -1.208584 -2.149952  1.239318 -0.873965
  2H   1dz2      -0.000000 -0.000000 -0.055310 -0.095832 -0.048106 -0.088303
  2H   1dxz      -0.025958 -0.059838  0.000000  0.000000 -0.000000  0.000000
  2H   1dyz       0.089805  0.025901 -0.000000 -0.000000  0.000000 -0.000000
  2H   1dx2y2     0.000000 -0.000000 -0.007083 -0.123514 -0.007387  0.010713
  2H   1dxy      -0.000000  0.000000 -0.123491 -0.149739 -0.012796  0.018555
  3H   1s        -0.000000  0.000000 -0.061123  0.105834 -0.222518 -0.732462
  3H   2s         0.000000 -0.000000  2.697897 -4.671266 -2.352582  2.812094
  3H   3s        -0.000000  0.000000  0.491977 -0.851827 -0.610392  0.130275
  3H   1pz       -0.039273  0.022694  0.000000 -0.000000  0.000000 -0.000000
  3H   1px        0.000000  0.000000  0.027942 -0.046804  0.055175  0.026152
  3H   1py        0.000000 -0.000000  0.046820 -0.081977  0.095566  0.045296
  3H   2pz        0.876276 -0.506365  0.000000 -0.000000 -0.000000  0.000000
  3H   2px       -0.000000 -0.000000  0.754046 -1.208783 -0.715523  0.504586
  3H   2py       -0.000000  0.000000  1.209222 -2.149594 -1.239318  0.873965
  3H   1dz2       0.000000 -0.000000 -0.055339  0.095816 -0.048106 -0.088303
  3H   1dxz       0.025912 -0.059858  0.000000 -0.000000 -0.000000  0.000000
  3H   1dyz       0.089785 -0.025969  0.000000 -0.000000 -0.000000  0.000000
  3H   1dx2y2    -0.000000 -0.000000 -0.007119  0.123511 -0.007387  0.010713
  3H   1dxy      -0.000000 -0.000000  0.123536 -0.149703  0.012796 -0.018555
                     30        31        32        33        34        35   
                   2.93667   2.93667   3.32240   3.33152   3.33152   3.47487
                   0.00000   0.00000   0.00000   0.00000   0.00000   0.00000
                  --------  --------  --------  --------  --------  --------
  0N   1s        -0.000002  0.000000 -0.000000 -0.000000 -0.000000 -0.000001
  0N   2s        -0.000004 -0.000000 -0.000000 -0.000000 -0.000000 -0.000002
  0N   3s        -0.000001 -0.000000 -0.000000 -0.000000 -0.000000 -0.000001
  0N   4s         0.000007 -0.000000 -0.000000 -0.000000 -0.000000 -0.000007
  0N   1pz        0.000000  0.000000 -1.216318 -0.000117 -0.000000  0.000000
  0N   1px        0.337431  0.000054  0.000000 -0.000000 -0.000000  0.231567
  0N   1py       -0.000054  0.337429 -0.000000 -0.000000  0.000000  0.003935
  0N   2pz       -0.000000 -0.000000  1.309629  0.000126  0.000000 -0.000000
  0N   2px       -1.492025 -0.000239 -0.000000  0.000000  0.000000 -0.570058
  0N   2py        0.000239 -1.492011  0.000000  0.000000 -0.000000 -0.009686
  0N   3pz       -0.000000  0.000000 -0.331537 -0.000031 -0.000000 -0.000000
  0N   3px       -1.751490 -0.000281 -0.000000  0.000000  0.000000 -0.453690
  0N   3py        0.000281 -1.751478  0.000000  0.000000 -0.000000 -0.007709
  0N   1dz2       0.000001  0.000000  0.000000  0.000000  0.000000 -0.000000
  0N   1dxz       0.000000  0.000000 -0.000016  0.163226  0.000148 -0.000000
  0N   1dyz      -0.000000  0.000000  0.000000  0.000148 -0.163226 -0.000000
  0N   1dx2y2    -0.029474 -0.000005  0.000000 -0.000000 -0.000000  0.144714
  0N   1dxy      -0.000005  0.029472 -0.000000  0.000000 -0.000000 -0.002459
  0N   2dz2      -0.000003  0.000000  0.000000  0.000000  0.000000  0.000001
  0N   2dxz       0.000000  0.000000 -0.000002  0.037869  0.000034 -0.000000
  0N   2dyz      -0.000000  0.000000  0.000000  0.000034 -0.037868 -0.000000
  0N   2dx2y2     0.209432  0.000034 -0.000000  0.000000  0.000000 -0.165752
  0N   2dxy       0.000034 -0.209435 -0.000000 -0.000000  0.000000  0.002816
  0N   1f0        0.000000 -0.000000  0.035947  0.000004  0.000000 -0.000000
  0N   1f+1       0.263079  0.000042  0.000000 -0.000000 -0.000000 -0.136471
  0N   1f-1      -0.000042  0.263078  0.000000 -0.000000  0.000000 -0.002319
  0N   1f+2       0.000000  0.000000 -0.000023  0.245898  0.000222 -0.000000
  0N   1f-2       0.000000 -0.000000 -0.000000 -0.000222  0.245898  0.000000
  0N   1f+3       0.000001 -0.000000  0.000000  0.000000  0.000000  0.000001
  0N   1f-3       0.000000  0.000001 -0.000000 -0.000000  0.000000  0.000000
  1H   1s        -1.026801 -0.000165 -0.000000  0.000000  0.000000 -0.304291
  1H   2s         3.035556  0.000487  0.000000 -0.000000 -0.000000  1.001563
  1H   3s         0.056138  0.000009  0.000000 -0.000000 -0.000000 -0.070511
  1H   1pz        0.000000  0.000000  0.120436  0.401125  0.000363  0.000000
  1H   1px       -0.264095 -0.000042 -0.000000  0.000000  0.000000 -0.287361
  1H   1py        0.000006 -0.039617  0.000000 -0.000000  0.000000 -0.003792
  1H   2pz        0.000000  0.000000 -0.178106 -0.278477 -0.000252  0.000000
  1H   2px       -0.914050 -0.000147 -0.000000  0.000000  0.000000 -0.160048
  1H   2py       -0.000114  0.707719 -0.000000 -0.000000  0.000000  0.003165
  1H   1dz2       0.115936  0.000019  0.000000 -0.000000 -0.000000 -0.524231
  1H   1dxz      -0.000000 -0.000000 -0.087308 -0.259475 -0.000235 -0.000000
  1H   1dyz       0.000000 -0.000000 -0.000000 -0.000471  0.521002  0.000000
  1H   1dx2y2     0.222308  0.000036  0.000000 -0.000000 -0.000000 -0.415944
  1H   1dxy      -0.000017  0.106432  0.000000 -0.000000  0.000000  0.001790
  2H   1s         0.513543 -0.889155 -0.000000 -0.000000 -0.000000  0.147668
  2H   2s        -1.518202  2.628608  0.000000  0.000000  0.000000 -0.486038
  2H   3s        -0.028077  0.048609  0.000000  0.000000  0.000000  0.034218
  2H   1pz       -0.000000  0.000000  0.120494 -0.200231 -0.347556 -0.000000
  2H   1px       -0.095751  0.097185  0.000000  0.000000  0.000000 -0.238729
  2H   1py        0.097234 -0.207957 -0.000000 -0.000000 -0.000000  0.023194
  2H   2pz       -0.000000  0.000000 -0.178143  0.138994  0.241278 -0.000000
  2H   2px        0.302161  0.702291  0.000000 -0.000000  0.000000  0.102221
  2H   2py        0.702330 -0.508490 -0.000000 -0.000000 -0.000000  0.148700
  2H   1dz2      -0.057985  0.100396  0.000000  0.000000  0.000000  0.254403
  2H   1dxz      -0.000000 -0.000000  0.043711 -0.455718  0.112835  0.000000
  2H   1dyz      -0.000000 -0.000000 -0.075623 -0.113549  0.324750  0.000000
  2H   1dx2y2    -0.024225 -0.142353 -0.000000  0.000000 -0.000000 -0.180699
  2H   1dxy       0.142372 -0.140099 -0.000000 -0.000000 -0.000000 -0.128752
  3H   1s         0.513258  0.889320 -0.000000 -0.000000  0.000000  0.156623
  3H   2s        -1.517359 -2.629095  0.000000  0.000000 -0.000000 -0.515515
  3H   3s        -0.028062 -0.048618  0.000000  0.000000 -0.000000  0.036294
  3H   1pz       -0.000000 -0.000000  0.120494 -0.200859  0.347193 -0.000000
  3H   1px       -0.095720 -0.097216  0.000000  0.000000 -0.000000 -0.239674
  3H   1py       -0.097167 -0.207988  0.000000  0.000000 -0.000000 -0.032414
  3H   2pz       -0.000000 -0.000000 -0.178143  0.139430 -0.241026 -0.000000
  3H   2px        0.302387 -0.702194  0.000000 -0.000000 -0.000000  0.097125
  3H   2py       -0.702167 -0.508716  0.000000  0.000000 -0.000000 -0.151197
  3H   1dz2      -0.057953 -0.100415  0.000000  0.000000 -0.000000  0.269832
  3H   1dxz      -0.000000  0.000000  0.043711 -0.455513 -0.113659  0.000000
  3H   1dyz       0.000000 -0.000000  0.075623  0.112962  0.324955 -0.000000
  3H   1dx2y2    -0.024271  0.142345 -0.000000  0.000000  0.000000 -0.185270
  3H   1dxy      -0.142327 -0.140145  0.000000  0.000000 -0.000000  0.140248
                     36        37        38        39        40        41   
                   3.47487   3.54372   3.58077   3.67497   3.92918   3.92959
                   0.00000   0.00000   0.00000   0.00000   0.00000   0.00000
                  --------  --------  --------  --------  --------  --------
  0N   1s        -0.000000 -0.000000  0.000000 -0.086643  0.000000 -0.000000
  0N   2s        -0.000000 -0.000000  0.000000 -0.233993  0.000000 -0.000000
  0N   3s        -0.000000 -0.000000 -0.000000 -0.242498  0.000000 -0.000000
  0N   4s        -0.000000 -0.000000 -0.000000 -1.153379  0.000000 -0.000000
  0N   1pz        0.000000 -0.000000  0.000000 -0.000000 -0.239732 -0.000000
  0N   1px        0.003935 -0.000000  0.000000 -0.000002 -0.000000  0.000018
  0N   1py       -0.231565  0.000000  0.000003  0.000000 -0.000000  0.953319
  0N   2pz       -0.000000  0.000000 -0.000000  0.000000  0.348601  0.000000
  0N   2px       -0.009687  0.000000 -0.000000  0.000009  0.000000 -0.000064
  0N   2py        0.570047 -0.000000 -0.000005 -0.000000  0.000000 -3.306152
  0N   3pz       -0.000000 -0.000000  0.000000 -0.000000 -0.696158 -0.000000
  0N   3px       -0.007709 -0.000000 -0.000000  0.000005  0.000000 -0.000032
  0N   3py        0.453685  0.000000  0.000000  0.000000  0.000000 -1.664701
  0N   1dz2      -0.000000  0.000000  0.000000  0.186062 -0.000000 -0.000000
  0N   1dxz      -0.000000 -0.000000 -0.000000 -0.000000 -0.000001  0.000000
  0N   1dyz       0.000000 -0.000000  0.000000 -0.000000  0.000000  0.000000
  0N   1dx2y2     0.002459  0.000000  0.000000  0.000001  0.000000 -0.000006
  0N   1dxy       0.144715  0.000000  0.000000  0.000000 -0.000000  0.312117
  0N   2dz2       0.000000  0.000000  0.000000  0.394747 -0.000000  0.000000
  0N   2dxz      -0.000000 -0.000000  0.000000 -0.000000 -0.000003 -0.000000
  0N   2dyz       0.000000  0.000000 -0.000000 -0.000000  0.000000  0.000000
  0N   2dx2y2    -0.002816  0.000000 -0.000000  0.000001  0.000000 -0.000004
  0N   2dxy      -0.165752 -0.000000  0.000004 -0.000000 -0.000000  0.228409
  0N   1f0        0.000000  0.000000 -0.000000  0.000000  0.502462  0.000000
  0N   1f+1      -0.002319 -0.000000 -0.000000 -0.000001  0.000000 -0.000000
  0N   1f-1       0.136472 -0.000000 -0.000001 -0.000000  0.000000 -0.005622
  0N   1f+2      -0.000000 -0.000000 -0.000000 -0.000000 -0.000005  0.000000
  0N   1f-2      -0.000000 -0.000000  0.000000  0.000000 -0.000000 -0.000000
  0N   1f+3       0.000000 -0.000000 -0.000000  0.053360 -0.000000 -0.000000
  0N   1f-3      -0.000001  0.000000 -0.294212  0.000000  0.000000  0.000002
  1H   1s        -0.005171 -0.000000 -0.000000  0.226875 -0.000000 -0.000002
  1H   2s         0.017019  0.000000  0.000000  0.224438 -0.000000  0.000063
  1H   3s        -0.001198  0.000000 -0.000000  0.188640 -0.000000  0.000015
  1H   1pz        0.000000 -0.000000 -0.000000 -0.000000 -0.557126 -0.000000
  1H   1px       -0.004883 -0.000000 -0.000000  0.297111 -0.000000  0.000010
  1H   1py        0.223150 -0.000000  0.501623  0.000000  0.000000 -0.098044
  1H   2pz        0.000000  0.000000  0.000000  0.000000  0.542425  0.000000
  1H   2px       -0.002720  0.000000 -0.000000 -0.397797  0.000000 -0.000047
  1H   2py       -0.186246  0.000000 -0.383062  0.000000 -0.000000  0.489370
  1H   1dz2      -0.008908  0.000000 -0.000000 -0.513580  0.000000 -0.000007
  1H   1dxz      -0.000000  0.000000  0.000000  0.000000  0.061046  0.000000
  1H   1dyz      -0.000000 -0.583823 -0.000000  0.000000  0.000000  0.000000
  1H   1dx2y2    -0.007068 -0.000000 -0.000000 -0.053283 -0.000000  0.000009
  1H   1dxy      -0.105332  0.000000 -0.218069 -0.000000  0.000000 -0.089524
  2H   1s         0.266110 -0.000000  0.000000  0.226875 -0.000000 -0.086408
  2H   2s        -0.875877  0.000000  0.000004  0.224449 -0.000000  2.853733
  2H   3s         0.061666  0.000000 -0.000001  0.188643 -0.000000  0.655572
  2H   1pz       -0.000000 -0.000000 -0.000000 -0.000000 -0.557103  0.000000
  2H   1px       -0.031871  0.000000 -0.434419 -0.148557  0.000000 -0.259414
  2H   1py        0.271780  0.000000 -0.250813  0.257308 -0.000000  0.351273
  2H   2pz       -0.000000 -0.000000  0.000000  0.000000  0.542405 -0.000000
  2H   2px       -0.148252 -0.000000  0.331740  0.198903 -0.000000  1.264340
  2H   2py        0.076018 -0.000000  0.191528 -0.344510  0.000000 -1.700517
  2H   1dz2       0.458451  0.000000 -0.000001 -0.513580  0.000000 -0.323667
  2H   1dxz      -0.000000  0.505606  0.000000 -0.000000 -0.030534  0.000000
  2H   1dyz       0.000000  0.291912  0.000000  0.000000  0.052877  0.000000
  2H   1dx2y2    -0.137609  0.000000 -0.188856  0.026640  0.000000 -0.156432
  2H   1dxy      -0.340576 -0.000000  0.109037  0.046143  0.000000 -0.360474
  3H   1s        -0.260939  0.000000 -0.000000  0.226875 -0.000000  0.086410
  3H   2s         0.858858  0.000000 -0.000004  0.224449 -0.000000 -2.853796
  3H   3s        -0.060467  0.000000  0.000001  0.188643 -0.000000 -0.655587
  3H   1pz        0.000000  0.000000  0.000000 -0.000000 -0.557103 -0.000000
  3H   1px        0.023742 -0.000000  0.434419 -0.148557  0.000000  0.259416
  3H   1py        0.270836  0.000000 -0.250813 -0.257308  0.000000  0.351283
  3H   2pz        0.000000  0.000000 -0.000000  0.000000  0.542405  0.000000
  3H   2px        0.151639  0.000000 -0.331740  0.198903 -0.000000 -1.264349
  3H   2py        0.070922 -0.000000  0.191528  0.344510 -0.000000 -1.700566
  3H   1dz2      -0.449543 -0.000000  0.000001 -0.513580  0.000000  0.323675
  3H   1dxz       0.000000 -0.505606 -0.000000 -0.000000 -0.030534 -0.000000
  3H   1dyz       0.000000  0.291912  0.000000 -0.000000 -0.052877  0.000000
  3H   1dx2y2     0.131391 -0.000000  0.188856  0.026640  0.000000  0.156439
  3H   1dxy      -0.336006 -0.000000  0.109037 -0.046143 -0.000000 -0.360480
                     42        43        44        45        46        47   
                   3.92959   3.94786   3.94786   4.12758   4.12758   4.25041
                   0.00000   0.00000   0.00000   0.00000   0.00000   0.00000
                  --------  --------  --------  --------  --------  --------
  0N   1s        -0.000002  0.000000 -0.000000 -0.000000 -0.000000  0.202497
  0N   2s        -0.000007  0.000000 -0.000000 -0.000000 -0.000000  0.081193
  0N   3s        -0.000008  0.000000  0.000000 -0.000000 -0.000000 -0.096900
  0N   4s        -0.000010  0.000000 -0.000000 -0.000001 -0.000000 -0.899519
  0N   1pz       -0.000000 -0.000004 -0.000000 -0.000000 -0.000000 -0.000000
  0N   1px        0.953316 -0.000000 -0.000000 -0.299070 -0.000180 -0.000004
  0N   1py       -0.000018 -0.000000  0.000000 -0.000180  0.299071  0.000000
  0N   2pz        0.000000  0.000008  0.000000  0.000000  0.000000  0.000000
  0N   2px       -3.306167  0.000000  0.000000  0.272322  0.000164  0.000009
  0N   2py        0.000064  0.000000 -0.000000  0.000164 -0.272311  0.000000
  0N   3pz       -0.000000 -0.000012 -0.000000 -0.000000  0.000000  0.000000
  0N   3px       -1.664709  0.000000  0.000000 -1.575852 -0.000950  0.000002
  0N   3py        0.000032  0.000000 -0.000000 -0.000950  1.575855  0.000000
  0N   1dz2      -0.000001 -0.000000  0.000000  0.000001  0.000000 -0.452083
  0N   1dxz       0.000000  0.042684  0.000012  0.000000  0.000000  0.000000
  0N   1dyz      -0.000000  0.000012 -0.042684  0.000000 -0.000000 -0.000000
  0N   1dx2y2    -0.312118  0.000000  0.000000 -0.043801 -0.000026  0.000003
  0N   1dxy      -0.000006 -0.000000  0.000000  0.000026 -0.043800  0.000000
  0N   2dz2       0.000002 -0.000000 -0.000000 -0.000003 -0.000000  1.019508
  0N   2dxz       0.000000  0.061214  0.000017  0.000000  0.000000 -0.000000
  0N   2dyz       0.000000  0.000017 -0.061212  0.000000 -0.000000  0.000000
  0N   2dx2y2    -0.228412  0.000000  0.000000  0.538529  0.000325 -0.000003
  0N   2dxy      -0.000004 -0.000000  0.000000 -0.000325  0.538521  0.000000
  0N   1f0        0.000000  0.000008  0.000000  0.000000  0.000000  0.000000
  0N   1f+1      -0.005622 -0.000000 -0.000000  0.264408  0.000159  0.000002
  0N   1f-1       0.000000 -0.000000  0.000000  0.000159 -0.264411 -0.000000
  0N   1f+2       0.000000  0.240186  0.000066 -0.000000 -0.000000  0.000000
  0N   1f-2      -0.000000 -0.000066  0.240185  0.000000 -0.000000  0.000000
  0N   1f+3       0.000000  0.000000 -0.000000  0.000001  0.000000  0.143862
  0N   1f-3      -0.000000 -0.000000  0.000000  0.000000 -0.000002  0.000000
  1H   1s        -0.099772  0.000000  0.000000 -0.220019 -0.000133  0.210141
  1H   2s         3.295271 -0.000000 -0.000000  0.551392  0.000333  0.480874
  1H   3s         0.757002 -0.000000 -0.000000  0.489537  0.000295 -0.052009
  1H   1pz        0.000000  0.835041  0.000228 -0.000000 -0.000000  0.000000
  1H   1px        0.501047 -0.000000 -0.000000  0.135282  0.000082 -0.635928
  1H   1py        0.000002  0.000000 -0.000000 -0.000557  0.924070  0.000000
  1H   2pz       -0.000000 -0.643828 -0.000176  0.000000  0.000000 -0.000000
  1H   2px       -2.430524  0.000000  0.000000 -0.018063 -0.000011  0.280139
  1H   2py       -0.000009 -0.000000  0.000000  0.000708 -1.174293 -0.000000
  1H   1dz2      -0.373748  0.000000  0.000000 -0.015268 -0.000009 -0.273163
  1H   1dxz       0.000000  0.415891  0.000114  0.000000  0.000000  0.000000
  1H   1dyz      -0.000000  0.000102 -0.374813 -0.000000  0.000000 -0.000000
  1H   1dx2y2     0.450802 -0.000000 -0.000000 -0.007498 -0.000005 -0.244597
  1H   1dxy       0.000002 -0.000000  0.000000 -0.000259  0.428974  0.000000
  2H   1s         0.049890 -0.000000 -0.000000  0.109894  0.190605  0.210135
  2H   2s        -1.647682  0.000000  0.000000 -0.275409 -0.477694  0.480889
  2H   3s        -0.378512  0.000000  0.000000 -0.244512 -0.424099 -0.052006
  2H   1pz       -0.000000 -0.417339 -0.723291  0.000000  0.000000  0.000000
  2H   1px        0.051737 -0.000000 -0.000000 -0.659509  0.458314  0.317960
  2H   1py       -0.259423  0.000000  0.000000 -0.458789  0.129282 -0.550727
  2H   2pz        0.000000  0.321776  0.557667 -0.000000 -0.000000 -0.000000
  2H   2px       -0.240632  0.000000  0.000000  0.876514 -0.515777 -0.140062
  2H   2py        1.264380 -0.000000 -0.000000  0.516472 -0.279709  0.242595
  2H   1dz2       0.186876 -0.000000 -0.000000  0.007627  0.013229 -0.273166
  2H   1dxz       0.000000  0.385076  0.017891  0.000000  0.000000 -0.000000
  2H   1dyz       0.000000 -0.017674 -0.405623 -0.000000 -0.000000  0.000000
  2H   1dx2y2     0.179846 -0.000000 -0.000000  0.319968 -0.188800  0.122297
  2H   1dxy       0.156445 -0.000000 -0.000000 -0.189059  0.101505  0.211823
  3H   1s         0.049886 -0.000000  0.000000  0.110124 -0.190472  0.210135
  3H   2s        -1.647572  0.000000 -0.000000 -0.275985  0.477362  0.480889
  3H   3s        -0.378487  0.000000 -0.000000 -0.245023  0.423804 -0.052006
  3H   1pz       -0.000000 -0.417734  0.723063  0.000000 -0.000000  0.000000
  3H   1px        0.051727 -0.000000  0.000000 -0.658956 -0.459110  0.317960
  3H   1py        0.259410 -0.000000  0.000000  0.458633  0.129835  0.550727
  3H   2pz        0.000000  0.322080 -0.557491 -0.000000  0.000000 -0.000000
  3H   2px       -0.240583  0.000000 -0.000000  0.875892  0.516834 -0.140062
  3H   2py       -1.264315  0.000000 -0.000000 -0.516135 -0.280332 -0.242595
  3H   1dz2       0.186864 -0.000000  0.000000  0.007643 -0.013220 -0.273166
  3H   1dxz       0.000000  0.385085 -0.017681  0.000000 -0.000000 -0.000000
  3H   1dyz      -0.000000  0.017895 -0.405614  0.000000 -0.000000 -0.000000
  3H   1dx2y2     0.179840 -0.000000  0.000000  0.319740  0.189186  0.122297
  3H   1dxy      -0.156431  0.000000 -0.000000  0.188937  0.101733 -0.211823
                     48        49        50        51        52        53   
                   4.30007   4.32069   4.43730   4.43730   4.44027   4.44027
                   0.00000   0.00000   0.00000   0.00000   0.00000   0.00000
                  --------  --------  --------  --------  --------  --------
  0N   1s        -0.000000 -0.000000  0.000000 -0.000000 -0.000000 -0.000002
  0N   2s        -0.000000  0.000000  0.000000 -0.000000 -0.000000 -0.000011
  0N   3s        -0.000000  0.000000  0.000000 -0.000000 -0.000000 -0.000006
  0N   4s         0.000000  0.000000  0.000000 -0.000000 -0.000000 -0.000027
  0N   1pz        0.000000 -0.140036 -0.000000  0.000000  0.000000 -0.000000
  0N   1px        0.000000 -0.000000 -0.000000  0.000000 -0.000014  0.180351
  0N   1py        0.000000  0.000000  0.000000  0.000000  0.180345  0.000014
  0N   2pz       -0.000000  0.959424  0.000011 -0.000000 -0.000000  0.000000
  0N   2px       -0.000000 -0.000000 -0.000001  0.000000 -0.000142  1.822075
  0N   2py        0.000008 -0.000000  0.000000  0.000001  1.822080  0.000142
  0N   3pz       -0.000000  0.364042  0.000002 -0.000000 -0.000000  0.000000
  0N   3px        0.000000 -0.000000 -0.000000  0.000000 -0.000072  0.927394
  0N   3py        0.000010 -0.000000  0.000000  0.000000  0.927391  0.000072
  0N   1dz2       0.000000  0.000000  0.000000 -0.000000 -0.000000 -0.000005
  0N   1dxz      -0.000000  0.000002 -0.418952  0.005173  0.000000 -0.000000
  0N   1dyz       0.000000 -0.000000  0.005173  0.418951 -0.000000 -0.000000
  0N   1dx2y2    -0.000000  0.000000  0.000000 -0.000000  0.000031 -0.401372
  0N   1dxy       0.000001  0.000000  0.000000  0.000000  0.401370  0.000031
  0N   2dz2      -0.000000 -0.000000 -0.000000  0.000000  0.000000  0.000008
  0N   2dxz       0.000000 -0.000009  1.517209 -0.018732 -0.000000  0.000001
  0N   2dyz      -0.000000  0.000000 -0.018732 -1.517203  0.000001  0.000000
  0N   2dx2y2     0.000000 -0.000000 -0.000001  0.000000 -0.000153  1.957562
  0N   2dxy      -0.000009 -0.000000 -0.000000 -0.000001 -1.957566 -0.000153
  0N   1f0       -0.000000  0.151362 -0.000000  0.000000  0.000000 -0.000000
  0N   1f+1      -0.000000 -0.000000  0.000000 -0.000000  0.000035 -0.454685
  0N   1f-1      -0.000002 -0.000000 -0.000000 -0.000000 -0.454683 -0.000035
  0N   1f+2       0.000000  0.000002  0.035070 -0.000433 -0.000000  0.000000
  0N   1f-2      -0.000000  0.000000  0.000433  0.035068 -0.000000 -0.000000
  0N   1f+3       0.000000 -0.000000 -0.000000  0.000000  0.000000  0.000008
  0N   1f-3       0.396279  0.000000 -0.000000 -0.000000 -0.000001 -0.000000
  1H   1s        -0.000000 -0.000000  0.000000 -0.000000  0.000037 -0.473640
  1H   2s         0.000000 -0.000000  0.000001 -0.000000  0.000199 -2.549473
  1H   3s        -0.000000 -0.000000  0.000000 -0.000000  0.000025 -0.322181
  1H   1pz       -0.000000  0.401305 -0.018257  0.000225  0.000000 -0.000000
  1H   1px       -0.000000  0.000000 -0.000000  0.000000 -0.000023  0.298401
  1H   1py       -0.385710 -0.000000  0.000000  0.000000  0.119933  0.000009
  1H   2pz        0.000000 -0.598836 -0.840340  0.010375  0.000000 -0.000000
  1H   2px       -0.000000  0.000000 -0.000001  0.000000 -0.000117  1.498356
  1H   2py        0.595396  0.000000  0.000000  0.000000  0.502121  0.000039
  1H   1dz2       0.000000  0.000000 -0.000000  0.000000 -0.000038  0.489644
  1H   1dxz      -0.000000  0.597505  0.852080 -0.010520 -0.000000  0.000000
  1H   1dyz       0.000000 -0.000000  0.007449  0.603329 -0.000000 -0.000000
  1H   1dx2y2     0.000000  0.000000  0.000000 -0.000000  0.000056 -0.721531
[...]
                                    Active property flags
                                    ---------------------
   (+) Dipole Moment


------------------------------------------------------------------------------
                       ORCA ELECTRIC PROPERTIES CALCULATION
------------------------------------------------------------------------------

Dipole Moment Calculation                       ... on
Quadrupole Moment Calculation                   ... off
Polarizability Calculation                      ... off
GBWName                                         ... NH3‡.gbw
Electron density file                           ... NH3‡.scfp
The origin for moment calculation is the CENTER OF MASS  = (-0.000009,  0.000000  0.000000)

-------------
DIPOLE MOMENT
-------------
                                X             Y             Z
Electronic contribution:     -0.00001       0.00000       0.00000
Nuclear contribution   :      0.00002      -0.00000      -0.00000
                        -----------------------------------------
Total Dipole Moment    :      0.00001      -0.00000      -0.00000
                        -----------------------------------------
Magnitude (a.u.)       :      0.00001
Magnitude (Debye)      :      0.00002



--------------------
Rotational spectrum 
--------------------
 
Rotational constants in cm-1:    11.256928    11.256666     5.628398 
Rotational constants in MHz : 337474.208854 337466.356422 168735.141296 

 Dipole components along the rotational axes: 
x,y,z [a.u.] :     0.000000    -0.000007    -0.000000 
x,y,z [Debye]:     0.000000    -0.000018    -0.000000 

 

                           *** MDCI DENSITY ***

------------------------------------------------------------------------------
                       ORCA ELECTRIC PROPERTIES CALCULATION
------------------------------------------------------------------------------

Dipole Moment Calculation                       ... on
Quadrupole Moment Calculation                   ... off
Polarizability Calculation                      ... off
GBWName                                         ... NH3‡.gbw
Electron density file                           ... NH3‡.mdcip
The origin for moment calculation is the CENTER OF MASS  = (-0.000009,  0.000000  0.000000)

-------------
DIPOLE MOMENT
-------------
                                X             Y             Z
Electronic contribution:     -0.00001       0.00000       0.00000
Nuclear contribution   :      0.00002      -0.00000      -0.00000
                        -----------------------------------------
Total Dipole Moment    :      0.00001      -0.00000      -0.00000
                        -----------------------------------------
Magnitude (a.u.)       :      0.00001
Magnitude (Debye)      :      0.00002



--------------------
Rotational spectrum 
--------------------
 
Rotational constants in cm-1:    11.256928    11.256666     5.628398 
Rotational constants in MHz : 337474.208854 337466.356422 168735.141296 

 Dipole components along the rotational axes: 
x,y,z [a.u.] :     0.000000    -0.000007    -0.000000 
x,y,z [Debye]:     0.000000    -0.000018    -0.000000 

 

----------------------------------------------------------------------------
                           ORCA NUMERICAL FREQUENCIES
                              (10-process run)
----------------------------------------------------------------------------

Number of atoms                ... 4
Central differences            ... used
Number of displacements        ... 24
Numerical increment            ... 5.000e-03 bohr
IR-spectrum generation         ... on
Raman-spectrum generation      ... off
Surface Crossing Hessian       ... off

The output will be reduced. Please look at the following files:
SCF program output             ... >NH3‡.lastscf
Integral program output        ... >NH3‡.lastint
Gradient program output        ... >NH3‡.lastgrad
Dipole moment program output   ... >NH3‡.lastmom
AutoCI program output          ... >NH3‡.lastautoci


         <<< Energy and Gradient at the input geometry >>>

        <<< Energy and Gradient at displaced geometries >>>
             <<<Displacing   2/coordinate 3 (+)>>>
             <<<Displacing   1/coordinate 1 (+)>>>
             <<<Displacing   2/coordinate 1 (+)>>>
             <<<Displacing   3/coordinate 2 (+)>>>
             <<<Displacing   1/coordinate 3 (+)>>>
             <<<Displacing   3/coordinate 3 (+)>>>
             <<<Displacing   4/coordinate 1 (+)>>>
             <<<Displacing   3/coordinate 1 (+)>>>
             <<<Displacing   1/coordinate 2 (+)>>>
             <<<Displacing   2/coordinate 2 (+)>>>
             <<<Displacing   1/coordinate 1 (-)>>>
             <<<Displacing   1/coordinate 2 (-)>>>
             <<<Displacing   2/coordinate 3 (-)>>>
             <<<Displacing   2/coordinate 1 (-)>>>
             <<<Displacing   2/coordinate 2 (-)>>>
             <<<Displacing   3/coordinate 2 (-)>>>
             <<<Displacing   1/coordinate 3 (-)>>>
             <<<Displacing   4/coordinate 1 (-)>>>
             <<<Displacing   3/coordinate 3 (-)>>>
             <<<Displacing   3/coordinate 1 (-)>>>
             <<<Displacing   4/coordinate 2 (+)>>>
             <<<Displacing   4/coordinate 3 (+)>>>
             <<<Displacing   4/coordinate 2 (-)>>>
             <<<Displacing   4/coordinate 3 (-)>>>

-----------------------
VIBRATIONAL FREQUENCIES
-----------------------

Scaling factor for frequencies =  1.000000000 (already applied!)

   0:         0.00 cm**-1
   1:         0.00 cm**-1
   2:         0.00 cm**-1
   3:         0.00 cm**-1
   4:         0.00 cm**-1
   5:         0.00 cm**-1
   6:      -899.68 cm**-1 ***imaginary mode***
   7:      1586.72 cm**-1
   8:      1586.78 cm**-1
   9:      3653.50 cm**-1
  10:      3863.60 cm**-1
  11:      3863.61 cm**-1


------------
NORMAL MODES
------------

These modes are the cartesian displacements weighted by the diagonal matrix
M(i,i)=1/sqrt(m[i]) where m[i] is the mass of the displaced atom
Thus, these vectors are normalized but *not* orthogonal

                  0          1          2          3          4          5    
      0       0.000000   0.000000   0.000000   0.000000   0.000000   0.000000
      1       0.000000   0.000000   0.000000   0.000000   0.000000   0.000000
      2       0.000000   0.000000   0.000000   0.000000   0.000000   0.000000
      3       0.000000   0.000000   0.000000   0.000000   0.000000   0.000000
      4       0.000000   0.000000   0.000000   0.000000   0.000000   0.000000
      5       0.000000   0.000000   0.000000   0.000000   0.000000   0.000000
      6       0.000000   0.000000   0.000000   0.000000   0.000000   0.000000
      7       0.000000   0.000000   0.000000   0.000000   0.000000   0.000000
      8       0.000000   0.000000   0.000000   0.000000   0.000000   0.000000
      9       0.000000   0.000000   0.000000   0.000000   0.000000   0.000000
     10       0.000000   0.000000   0.000000   0.000000   0.000000   0.000000
     11       0.000000   0.000000   0.000000   0.000000   0.000000   0.000000
                  6          7          8          9         10         11    
      0       0.000000  -0.000011   0.080736   0.000008  -0.000014   0.086090
      1      -0.000000  -0.080734  -0.000011  -0.000000  -0.086092  -0.000014
      2      -0.123688   0.000000   0.000000   0.000000   0.000000  -0.000000
      3       0.000000  -0.000009   0.063435   0.577259   0.000137  -0.813382
      4       0.000000   0.811354   0.000110   0.000000  -0.015768  -0.000003
      5       0.572907  -0.000000  -0.000000  -0.000000  -0.000000   0.000000
      6      -0.000000   0.378880  -0.592614  -0.288687  -0.358962  -0.191517
      7       0.000000   0.155306  -0.378762   0.500046   0.605986   0.359050
      8       0.572922  -0.000000  -0.000000  -0.000000  -0.000000   0.000000
      9      -0.000000  -0.378720  -0.592717  -0.288687   0.359027  -0.191396
     10       0.000000   0.155204   0.378804  -0.500046   0.606107  -0.358846
     11       0.572922  -0.000000  -0.000000  -0.000000  -0.000000   0.000000


-----------
IR SPECTRUM  
-----------

 Mode    freq (cm**-1)   T**2         TX         TY         TZ
-------------------------------------------------------------------
   7:      1586.72   32.077208  (  0.000766   5.663674  -0.000000)
   8:      1586.78   32.081407  ( -5.664045   0.000766  -0.000000)
   9:      3653.50    0.000000  ( -0.000705   0.000001  -0.000000)
  10:      3863.60   40.100337  (  0.001066   6.332483  -0.000000)
  11:      3863.61   40.094419  ( -6.332015   0.001067   0.000000)

The first frequency considered to be a vibration is 7
The total number of vibrations considered is 5


--------------------------
THERMOCHEMISTRY AT 298.15K
--------------------------

Temperature         ... 298.15 K
Pressure            ... 1.00 atm
Total Mass          ... 17.03 AMU

Throughout the following assumptions are being made:
  (1) The electronic state is orbitally nondegenerate
  (2) There are no thermally accessible electronically excited states
  (3) Hindered rotations indicated by low frequency modes are not
      treated as such but are treated as vibrations and this may
      cause some error
  (4) All equations used are the standard statistical mechanics
      equations for an ideal gas
  (5) All vibrations are strictly harmonic

freq.    1586.72  E(vib)   ...       0.00 
freq.    1586.78  E(vib)   ...       0.00 
freq.    3653.50  E(vib)   ...       0.00 
freq.    3863.60  E(vib)   ...       0.00 
freq.    3863.61  E(vib)   ...       0.00 

------------
INNER ENERGY
------------

The inner energy is: U= E(el) + E(ZPE) + E(vib) + E(rot) + E(trans)
    E(el)   - is the total energy from the electronic structure calculation
              = E(kin-el) + E(nuc-el) + E(el-el) + E(nuc-nuc)
    E(ZPE)  - the the zero temperature vibrational energy from the frequency calculation
    E(vib)  - the the finite temperature correction to E(ZPE) due to population
              of excited vibrational states
    E(rot)  - is the rotational thermal energy
    E(trans)- is the translational thermal energy

Summary of contributions to the inner energy U:
Electronic energy                ...    -56.46300108 Eh
Zero point energy                ...      0.03315694 Eh      20.81 kcal/mol
Thermal vibrational correction   ...      0.00000684 Eh       0.00 kcal/mol
Thermal rotational correction    ...      0.00141627 Eh       0.89 kcal/mol
Thermal translational correction ...      0.00141627 Eh       0.89 kcal/mol
-----------------------------------------------------------------------
Total thermal energy                    -56.42700476 Eh


Summary of corrections to the electronic energy:
(perhaps to be used in another calculation)
Total thermal correction                  0.00283938 Eh       1.78 kcal/mol
Non-thermal (ZPE) correction              0.03315694 Eh      20.81 kcal/mol
-----------------------------------------------------------------------
Total correction                          0.03599632 Eh      22.59 kcal/mol


--------
ENTHALPY
--------

The enthalpy is H = U + kB*T
                kB is Boltzmann's constant
Total free energy                 ...    -56.42700476 Eh 
Thermal Enthalpy correction       ...      0.00094421 Eh       0.59 kcal/mol
-----------------------------------------------------------------------
Total Enthalpy                    ...    -56.42606055 Eh


Note: Rotational entropy computed according to Herzberg 
Infrared and Raman Spectra, Chapter V,1, Van Nostrand Reinhold, 1945 
Point Group:  C2v, Symmetry Number:   2  
Rotational constants in cm-1:    11.256928    11.256666     5.628398 

Vibrational entropy computed according to the QRRHO of S. Grimme
Chem.Eur.J. 2012 18 9955


-------
ENTROPY
-------

The entropy contributions are T*S = T*(S(el)+S(vib)+S(rot)+S(trans))
     S(el)   - electronic entropy
     S(vib)  - vibrational entropy
     S(rot)  - rotational entropy
     S(trans)- translational entropy
The entropies will be listed as mutliplied by the temperature to get
units of energy

Electronic entropy                ...      0.00000000 Eh      0.00 kcal/mol
Vibrational entropy               ...      0.00000773 Eh      0.00 kcal/mol
Rotational entropy                ...      0.00575483 Eh      3.61 kcal/mol
Translational entropy             ...      0.01636425 Eh     10.27 kcal/mol
-----------------------------------------------------------------------
Final entropy term                ...      0.02212681 Eh     13.88 kcal/mol

In case the symmetry of your molecule has not been determined correctly
or in case you have a reason to use a different symmetry number we print 
out the resulting rotational entropy values for sn=1,12 :
 --------------------------------------------------------
|  sn= 1 | S(rot)=       0.00640928 Eh      4.02 kcal/mol|
|  sn= 2 | S(rot)=       0.00575483 Eh      3.61 kcal/mol|
|  sn= 3 | S(rot)=       0.00537200 Eh      3.37 kcal/mol|
|  sn= 4 | S(rot)=       0.00510037 Eh      3.20 kcal/mol|
|  sn= 5 | S(rot)=       0.00488968 Eh      3.07 kcal/mol|
|  sn= 6 | S(rot)=       0.00471754 Eh      2.96 kcal/mol|
|  sn= 7 | S(rot)=       0.00457199 Eh      2.87 kcal/mol|
|  sn= 8 | S(rot)=       0.00444592 Eh      2.79 kcal/mol|
|  sn= 9 | S(rot)=       0.00433471 Eh      2.72 kcal/mol|
|  sn=10 | S(rot)=       0.00423523 Eh      2.66 kcal/mol|
|  sn=11 | S(rot)=       0.00414524 Eh      2.60 kcal/mol|
|  sn=12 | S(rot)=       0.00406308 Eh      2.55 kcal/mol|
 --------------------------------------------------------


-------------------
GIBBS FREE ENERGY
-------------------

The Gibbs free energy is G = H - T*S

Total enthalpy                    ...    -56.42606055 Eh 
Total entropy correction          ...     -0.02212681 Eh    -13.88 kcal/mol
-----------------------------------------------------------------------
Final Gibbs free energy         ...    -56.44818736 Eh

For completeness - the Gibbs free energy minus the electronic energy
G-E(el)                           ...      0.01481372 Eh      9.30 kcal/mol


Total Time for Numerical Frequencies  :      1252.924 sec



------------------------------------------------------------------------------- 
                    Intrinsic Reaction Coordinate Calculation                  
------------------------------------------------------------------------------- 

System:
Nr. of atoms                        .... 4
Algorithm: SD (steepest descent step) plus correction
Settings:
Max. no of cycles        MaxIter    .... 1000
Direction                           .... Forward and backward
Initial displacement Hessian type   .... Read
Hessian Filename                    .... NH3‡.hess
Following Hessian mode              .... 0
Initial displacement type           .... Energy
  Initial displacement energy change.... 0.250 mEh
Coordinate system following type    .... Cartesian
Length of steepest descent step     .... 0.150 bohr
Do parabolic fit 
  if SD step is uphill              .... YES
Do Correction to SD step            .... YES
Scaling for length of correction
  compared to SD step               .... 0.333
Do parabolic fit to SD correction   .... YES
Only interpolate for parabolic fit  .... YES
Do update to length of
  SD step and correction            .... YES
Convergence Tolerances:
  Max. Gradient            TolMAXG  ....  1.0000e-03 Eh/bohr
  RMS Gradient             TolRMSG  ....  2.0000e-04 Eh/bohr
Storing full IRC trajectory in      .... NH3‡_IRC_Full_trj.xyz
Storing forward trajectory in       .... NH3‡_IRC_F_trj.xyz
Storing backward trajectory in      .... NH3‡_IRC_B_trj.xyz


 ...good, the file NH3‡.hess exists
Reading the hessian file           ...... done
Determining length of initial displacement:
  Requested energy change (quadratic behavior): 0.250 mEh
  Resulting scaling factor for initial displacement along normalized TS mode: 0.1163

         *************************************************************
         *                          FORWARD IRC                      *
         *************************************************************

Iteration    E(Eh)      dE(kcal/mol)  max(|G|)   RMS(G) 
Convergence thresholds                0.001000  0.000200            
    0       -56.463248   -0.154992    0.006016  0.002039
    1       -56.466920   -2.459255    0.014962  0.007771
    2       -56.470007   -4.396260    0.017256  0.006144
    3       -56.472479   -5.947391    0.007318  0.003995
    4       -56.472922   -6.225716    0.004458  0.002487
    5       -56.473189   -6.393170    0.001092  0.000465
    6       -56.473192   -6.395034    0.000786  0.000356
    7       -56.473194   -6.396394    0.000544  0.000266
    8       -56.473196   -6.397153    0.000390  0.000194

                      ***********************HURRAY********************
                      ***            THE IRC HAS CONVERGED          ***
                      *************************************************


         *************************************************************
         *                          BACKWARD IRC                     *
         *************************************************************

Iteration    E(Eh)      dE(kcal/mol)  max(|G|)   RMS(G) 
Convergence thresholds                0.001000  0.000200            
    0       -56.463248   -0.154992    0.006016  0.002039
    1       -56.466920   -2.459255    0.014962  0.007771
    2       -56.470007   -4.396260    0.017256  0.006144
    3       -56.472479   -5.947391    0.007319  0.003995
    4       -56.472922   -6.225717    0.004460  0.002487
    5       -56.473189   -6.393182    0.001090  0.000461
    6       -56.473192   -6.395089    0.000776  0.000354
    7       -56.473194   -6.396414    0.000540  0.000263
    8       -56.473196   -6.397170    0.000386  0.000193

                      ***********************HURRAY********************
                      ***            THE IRC HAS CONVERGED          ***
                      *************************************************


---------------------------------------------------------------
                       IRC PATH SUMMARY              
---------------------------------------------------------------
All gradients are in Eh/Bohr.

Step        E(Eh)      dE(kcal/mol)  max(|G|)   RMS(G) 
   1       -56.473196   -6.397170    0.000386  0.000193
   2       -56.473194   -6.396414    0.000540  0.000263
   3       -56.473192   -6.395089    0.000776  0.000354
   4       -56.473189   -6.393182    0.001090  0.000461
   5       -56.472922   -6.225717    0.004460  0.002487
   6       -56.472479   -5.947391    0.007319  0.003995
   7       -56.470007   -4.396260    0.017256  0.006144
   8       -56.466920   -2.459255    0.014962  0.007771
   9       -56.463248   -0.154992    0.006016  0.002039
  10       -56.463001    0.000000    0.000000  0.000000 <= TS
  11       -56.463248   -0.154992    0.006016  0.002039
  12       -56.466920   -2.459255    0.014962  0.007771
  13       -56.470007   -4.396260    0.017256  0.006144
  14       -56.472479   -5.947391    0.007318  0.003995
  15       -56.472922   -6.225716    0.004458  0.002487
  16       -56.473189   -6.393170    0.001092  0.000465
  17       -56.473192   -6.395034    0.000786  0.000356
  18       -56.473194   -6.396394    0.000544  0.000266
  19       -56.473196   -6.397153    0.000390  0.000194

Timings for individual modules:

Sum of individual times         ...     2508.514 sec (=  41.809 min)
GTO integral calculation        ...      111.988 sec (=   1.866 min)   4.5 %
SCF iterations                  ...      345.486 sec (=   5.758 min)  13.8 %
MDCI module                     ...      458.831 sec (=   7.647 min)  18.3 %
SCF Gradient evaluation         ...     1592.007 sec (=  26.533 min)  63.5 %
Geometry relaxation             ...        0.202 sec (=   0.003 min)   0.0 %
                             ****ORCA TERMINATED NORMALLY****
TOTAL RUN TIME: 0 days 1 hours 1 minutes 54 seconds 599 msec
