
                                 *****************
                                 * O   R   C   A *
                                 *****************

           --- An Ab Initio, DFT and Semiempirical electronic structure package ---

                  #######################################################
                  #                        -***-                        #
                  #          Department of theory and spectroscopy      #
                  #               Directorship: Frank Neese             #
                  #        Max Planck Institute fuer Kohlenforschung    #
                  #                Kaiser Wilhelm Platz 1               #
                  #                 D-45470 Muelheim/Ruhr               #
                  #                      Germany                        #
                  #                                                     #
                  #                  All rights reserved                #
                  #                        -***-                        #
                  #######################################################


                         Program Version 4.2.1 -  RELEASE  -


 With contributions from (in alphabetic order):
   Daniel Aravena         : Magnetic Suceptibility
   Michael Atanasov       : Ab Initio Ligand Field Theory (pilot matlab implementation)
   Alexander A. Auer      : GIAO ZORA, VPT2
   Ute Becker             : Parallelization
   Giovanni Bistoni       : ED, misc. LED, open-shell LED, HFLD
   Martin Brehm           : Molecular dynamics
   Dmytro Bykov           : SCF Hessian
   Vijay G. Chilkuri      : MRCI spin determinant printing, contributions to CSF-ICE
   Dipayan Datta          : RHF DLPNO-CCSD density
   Achintya Kumar Dutta   : EOM-CC, STEOM-CC
   Dmitry Ganyushin       : Spin-Orbit,Spin-Spin,Magnetic field MRCI
   Miquel Garcia          : C-PCM Hessian, Gaussian charge scheme
   Yang Guo               : DLPNO-NEVPT2, CIM, IAO-localization
   Andreas Hansen         : Spin unrestricted coupled pair/coupled cluster methods
   Benjamin Helmich-Paris : CASSCF linear response (MC-RPA)
   Lee Huntington         : MR-EOM, pCC
   Robert Izsak           : Overlap fitted RIJCOSX, COSX-SCS-MP3, EOM
   Christian Kollmar      : KDIIS, OOCD, Brueckner-CCSD(T), CCSD density
   Simone Kossmann        : Meta GGA functionals, TD-DFT gradient, OOMP2, MP2 Hessian
   Martin Krupicka        : AUTO-CI
   Lucas Lang             : DCDCAS
   Dagmar Lenk            : GEPOL surface, SMD
   Dimitrios Liakos       : Extrapolation schemes; Compound Job, initial MDCI parallelization
   Dimitrios Manganas     : Further ROCIS development; embedding schemes
   Dimitrios Pantazis     : SARC Basis sets
   Taras Petrenko         : DFT Hessian,TD-DFT gradient, ASA, ECA, R-Raman, ABS, FL, XAS/XES, NRVS
   Peter Pinski           : DLPNO-MP2, DLPNO-MP2 Gradient
   Christoph Reimann      : Effective Core Potentials
   Marius Retegan         : Local ZFS, SOC
   Christoph Riplinger    : Optimizer, TS searches, QM/MM, DLPNO-CCSD(T), (RO)-DLPNO pert. Triples
   Tobias Risthaus        : Range-separated hybrids, TD-DFT gradient, RPA, STAB
   Michael Roemelt        : Original ROCIS implementation
   Masaaki Saitow         : Open-shell DLPNO-CCSD energy and density
   Barbara Sandhoefer     : DKH picture change effects
   Avijit Sen             : IP-ROCIS
   Kantharuban Sivalingam : CASSCF convergence, NEVPT2, FIC-MRCI
   Bernardo de Souza      : ESD, SOC TD-DFT
   Georgi Stoychev        : AutoAux, RI-MP2 NMR
   Willem Van den Heuvel  : Paramagnetic NMR
   Boris Wezisla          : Elementary symmetry handling
   Frank Wennmohs         : Technical directorship


 We gratefully acknowledge several colleagues who have allowed us to
 interface, adapt or use parts of their codes:
   Stefan Grimme, W. Hujo, H. Kruse,             : VdW corrections, initial TS optimization,
                  C. Bannwarth                     DFT functionals, gCP, sTDA/sTD-DF
   Ed Valeev, F. Pavosevic, A. Kumar             : LibInt (2-el integral package), F12 methods
   Garnet Chan, S. Sharma, J. Yang, R. Olivares  : DMRG
   Ulf Ekstrom                                   : XCFun DFT Library
   Mihaly Kallay                                 : mrcc  (arbitrary order and MRCC methods)
   Andreas Klamt, Michael Diedenhofen            : otool_cosmo (COSMO solvation model)
   Jiri Pittner, Ondrej Demel                    : Mk-CCSD
   Frank Weinhold                                : gennbo (NPA and NBO analysis)
   Christopher J. Cramer and Donald G. Truhlar   : smd solvation model
   Lars Goerigk                                  : TD-DFT with DH, B97 family of functionals
   V. Asgeirsson, H. Jonsson                     : NEB implementation
   FAccTs GmbH                                   : IRC, NEB, NEB-TS, Multilevel, MM, QM/MM, CI optimization
   S Lehtola, MJT Oliveira, MAL Marques          : LibXC Library


 Your calculation uses the libint2 library for the computation of 2-el integrals
 For citations please refer to: http://libint.valeyev.net

 Your ORCA version has been built with support for libXC version: 4.2.3
 For citations please refer to: https://tddft.org/programs/libxc/

 This ORCA versions uses:
   CBLAS   interface :  Fast vector & matrix operations
   LAPACKE interface :  Fast linear algebra routines
   SCALAPACK package :  Parallel linear algebra routines


----- Orbital basis set information -----
Your calculation utilizes the basis: 6-311G(2df,2pd)
   H, Li - Ne  : R. Krishnan, J. S. Binkley, R. Seeger and J. A. Pople, J. Chem. Phys. 72, 650 (1980).
   Na - Ar     : A. D. McLean and G. S. Chandler J. Chem. Phys. 72, 5639, (1980).
   K  - Ca     : J.-P. Blaudeau, M. P. McGrath, L. A. Curtiss and L. Radom, J. Chem. Phys. 107, 5016 (1997).
   Ga - Kr     : L. A. Curtiss, M. P. McGrath, J.-P. Blandeau, N. E. Davis, R. C. Binning and L. Radom, J. Chem. Phys. 103, 6104 (1995).
   Pol./Diff.
   H, Li - Cl  : T. Clark, J. Chandrasekhar and P. v. R. Schleyer, J. Comp. Chem. 4, 294 (1983).
   H - Ne      : M. J. Frisch, J. A. Pople and J. S. Binkley, J. Chem. Phys. 80, 3265 (1984).

================================================================================
                                        WARNINGS
                       Please study these warnings very carefully!
================================================================================


WARNING: Geometry Optimization
  ===> : Switching off AutoStart
         For restart on a previous wavefunction, please use MOREAD

WARNING: Post HF methods need fully converged wavefunctions
  ===> : Setting SCFConvForced true
         You can overwrite this default with %scf ConvForced false 


INFO   : the flag for use of LIBINT has been found!

================================================================================
                                       INPUT FILE
================================================================================
NAME = CH3·.inp
|  1> ! UHF MP2 6-311G(2df,2pd) Opt Freq NoFrozenCore TightOpt TightSCF Grid4 FinalGrid5 PrintBasis PrintMOs NBO
|  2> %maxcore 3000
|  3> 
|  4> *xyz 0 2
|  5> C        0.000000000      0.000000000      0.000000000
|  6> H        1.071911000      0.000000000      0.000000000
|  7> H       -0.535955000      0.928302000      0.000000000
|  8> H       -0.535955000     -0.928302000      0.000000000
|  9> *
| 10> 
| 11> %pal
| 12>  nprocs 12
| 13> end
| 14> 
| 15>                          ****END OF INPUT****
================================================================================

                       *****************************
                       * Geometry Optimization Run *
                       *****************************

Geometry optimization settings:
Update method            Update   .... BFGS
Choice of coordinates    CoordSys .... Z-matrix Internals
Initial Hessian          InHess   .... Almoef's Model

Convergence Tolerances:
Energy Change            TolE     ....  1.0000e-06 Eh
Max. Gradient            TolMAXG  ....  1.0000e-04 Eh/bohr
RMS Gradient             TolRMSG  ....  3.0000e-05 Eh/bohr
Max. Displacement        TolMAXD  ....  1.0000e-03 bohr
RMS Displacement         TolRMSD  ....  6.0000e-04 bohr
Strict Convergence                ....  False
------------------------------------------------------------------------------
                        ORCA OPTIMIZATION COORDINATE SETUP
------------------------------------------------------------------------------

The optimization will be done in new redundant internal coordinates
Making redundant internal coordinates   ...  (new redundants) done
Evaluating the initial hessian          ...  (Almloef) done
Evaluating the coordinates              ...  done
Calculating the B-matrix                .... done
Calculating the G-matrix                .... done
Diagonalizing the G-matrix              .... done
The first mode is                       ....    1
The number of degrees of freedom        ....    6

    -----------------------------------------------------------------
                    Redundant Internal Coordinates


    -----------------------------------------------------------------
         Definition                    Initial Value    Approx d2E/dq
    -----------------------------------------------------------------
      1. B(H   1,C   0)                  1.0719         0.384842   
      2. B(H   2,C   0)                  1.0719         0.384843   
      3. B(H   3,C   0)                  1.0719         0.384843   
      4. A(H   1,C   0,H   3)          120.0000         0.297003   
      5. A(H   2,C   0,H   3)          120.0000         0.297003   
      6. A(H   1,C   0,H   2)          120.0000         0.297003   
      7. I(H   1,H   3,H   2,C   0)      0.0000         0.023978   
    -----------------------------------------------------------------

Number of atoms                         .... 4
Number of degrees of freedom            .... 7

         *************************************************************
         *                GEOMETRY OPTIMIZATION CYCLE   1            *
         *************************************************************
---------------------------------
CARTESIAN COORDINATES (ANGSTROEM)
---------------------------------
  C      0.000000    0.000000    0.000000
  H      1.071911    0.000000    0.000000
  H     -0.535955    0.928302    0.000000
  H     -0.535955   -0.928302    0.000000

----------------------------
CARTESIAN COORDINATES (A.U.)
----------------------------
  NO LB      ZA    FRAG     MASS         X           Y           Z
   0 C     6.0000    0    12.011    0.000000    0.000000    0.000000
   1 H     1.0000    0     1.008    2.025618    0.000000    0.000000
   2 H     1.0000    0     1.008   -1.012808    1.754237    0.000000
   3 H     1.0000    0     1.008   -1.012808   -1.754237    0.000000

--------------------------------
INTERNAL COORDINATES (ANGSTROEM)
--------------------------------
 C      0   0   0     0.000000000000     0.00000000     0.00000000
 H      1   0   0     1.071911000000     0.00000000     0.00000000
 H      1   2   0     1.071910614384   119.99998104     0.00000000
 H      1   2   3     1.071910614384   119.99998104   180.00000000

---------------------------
INTERNAL COORDINATES (A.U.)
---------------------------
 C      0   0   0     0.000000000000     0.00000000     0.00000000
 H      1   0   0     2.025618229938     0.00000000     0.00000000
 H      1   2   0     2.025617501229   119.99998104     0.00000000
 H      1   2   3     2.025617501229   119.99998104   180.00000000

---------------------
BASIS SET INFORMATION
---------------------
There are 2 groups of distinct atoms

 Group   1 Type C   : 11s5p2d1f contracted to 4s3p2d1f pattern {6311/311/11/1}
 Group   2 Type H   : 5s2p1d contracted to 3s2p1d pattern {311/11/1}

Atom   0C    basis set group =>   1
Atom   1H    basis set group =>   2
Atom   2H    basis set group =>   2
Atom   3H    basis set group =>   2

-------------------------
BASIS SET IN INPUT FORMAT
-------------------------

 # Basis set for element : H 
 NewGTO H 
 S 3 
   1      33.8650000000      0.0254938145
   2       5.0947900000      0.1903731086
   3       1.1587900000      0.8521614860
 S 1 
   1       0.3258400000      1.0000000000
 S 1 
   1       0.1027410000      1.0000000000
 P 1 
   1       1.5000000000      1.0000000000
 P 1 
   1       0.3750000000      1.0000000000
 D 1 
   1       1.0000000000      1.0000000000
  end;

 # Basis set for element : C 
 NewGTO C 
 S 6 
   1    4563.2400000000      0.0019666502
   2     682.0240000000      0.0152306019
   3     154.9730000000      0.0761269097
   4      44.4553000000      0.2608010331
   5      13.0290000000      0.6164620782
   6       1.8277300000      0.2210060280
 S 3 
   1      20.9642000000      0.1146600807
   2       4.8033100000      0.9199996477
   3       1.4593300000     -0.0030306821
 P 3 
   1      20.9642000000      0.0402486927
   2       4.8033100000      0.2375939567
   3       1.4593300000      0.8158538515
 S 1 
   1       0.4834560000      1.0000000000
 P 1 
   1       0.4834560000      1.0000000000
 S 1 
   1       0.1455850000      1.0000000000
 P 1 
   1       0.1455850000      1.0000000000
 D 1 
   1       1.2520000000      1.0000000000
 D 1 
   1       0.3130000000      1.0000000000
 F 1 
   1       0.8000000000      1.0000000000
  end;



           ************************************************************
           *        Program running with 12 parallel MPI-processes    *
           *              working on a common directory               *
           ************************************************************
------------------------------------------------------------------------------
                           ORCA GTO INTEGRAL CALCULATION
------------------------------------------------------------------------------

                         BASIS SET STATISTICS AND STARTUP INFO

 # of primitive gaussian shells          ...   43
 # of primitive gaussian functions       ...   91
 # of contracted shells                  ...   28
 # of contracted basis functions         ...   72
 Highest angular momentum                ...    3
 Maximum contraction depth               ...    6
 Integral package used                   ... LIBINT
 Integral threshhold            Thresh   ...  2.500e-11
 Primitive cut-off              TCut     ...  2.500e-12


------------------------------ INTEGRAL EVALUATION ----------------------------


 * One electron integrals 
 Pre-screening matrix                    ... done
 Shell pair data                         ... done (   0.000 sec)



           ************************************************************
           *        Program running with 12 parallel MPI-processes    *
           *              working on a common directory               *
           ************************************************************
-------------------------------------------------------------------------------
                                 ORCA SCF
-------------------------------------------------------------------------------

------------
SCF SETTINGS
------------
Hamiltonian:
 Ab initio Hamiltonian  Method          .... Hartree-Fock(GTOs)


General Settings:
 Integral files         IntName         .... CH3·
 Hartree-Fock type      HFTyp           .... UHF
 Total Charge           Charge          ....    0
 Multiplicity           Mult            ....    2
 Number of Electrons    NEL             ....    9
 Basis Dimension        Dim             ....   72
 Nuclear Repulsion      ENuc            ....      9.7412509664 Eh

Convergence Acceleration:
 DIIS                   CNVDIIS         .... on
   Start iteration      DIISMaxIt       ....    12
   Startup error        DIISStart       ....  0.200000
   # of expansion vecs  DIISMaxEq       ....     5
   Bias factor          DIISBfac        ....   1.050
   Max. coefficient     DIISMaxC        ....  10.000
 Newton-Raphson         CNVNR           .... off
 SOSCF                  CNVSOSCF        .... off
 Level Shifting         CNVShift        .... on
   Level shift para.    LevelShift      ....    0.2500
   Turn off err/grad.   ShiftErr        ....    0.0010
 Zerner damping         CNVZerner       .... off
 Static damping         CNVDamp         .... on
   Fraction old density DampFac         ....    0.7000
   Max. Damping (<1)    DampMax         ....    0.9800
   Min. Damping (>=0)   DampMin         ....    0.0000
   Turn off err/grad.   DampErr         ....    0.1000
 Fernandez-Rico         CNVRico         .... off

SCF Procedure:
 Maximum # iterations   MaxIter         ....   125
 SCF integral mode      SCFMode         .... Direct
   Integral package                     .... LIBINT
 Reset frequency        DirectResetFreq ....    20
 Integral Threshold     Thresh          ....  2.500e-11 Eh
 Primitive CutOff       TCut            ....  2.500e-12 Eh

Convergence Tolerance:
 Convergence Check Mode ConvCheckMode   .... Total+1el-Energy
 Convergence forced     ConvForced      .... 1
 Energy Change          TolE            ....  1.000e-08 Eh
 1-El. energy change                    ....  1.000e-05 Eh
 DIIS Error             TolErr          ....  5.000e-07


Diagonalization of the overlap matrix:
Smallest eigenvalue                        ... 3.350e-03
Time for diagonalization                   ...    0.003 sec
Threshold for overlap eigenvalues          ... 1.000e-08
Number of eigenvalues below threshold      ... 0
Time for construction of square roots      ...    0.005 sec
Total time needed                          ...    0.009 sec

-------------------
DFT GRID GENERATION
-------------------

General Integration Accuracy     IntAcc      ...  4.670
Radial Grid Type                 RadialGrid  ... Gauss-Chebyshev
Angular Grid (max. acc.)         AngularGrid ... Lebedev-302
Angular grid pruning method      GridPruning ... 3 (G Style)
Weight generation scheme         WeightScheme... Becke
Basis function cutoff            BFCut       ...    1.0000e-11
Integration weight cutoff        WCut        ...    1.0000e-14
Grids for H and He will be reduced by one unit

# of grid points (after initial pruning)     ...  16394 (   0.0 sec)
# of grid points (after weights+screening)   ...  16145 (   0.0 sec)
nearest neighbour list constructed           ...    0.0 sec
Grid point re-assignment to atoms done       ...    0.0 sec
Grid point division into batches done        ...    0.1 sec
Reduced shell lists constructed in    0.1 sec

Total number of grid points                  ...    16145
Total number of batches                      ...      253
Average number of points per batch           ...       63
Average number of grid points per atom       ...     4036
Average number of shells per batch           ...    26.78 (95.65%)
Average number of basis functions per batch  ...    68.87 (95.65%)
Average number of large shells per batch     ...    26.00 (97.08%)
Average number of large basis fcns per batch ...    67.39 (97.85%)
Maximum spatial batch extension              ...   2.89,  2.57, 19.60 au
Average spatial batch extension              ...   0.12,  0.13,  0.26 au

Time for grid setup =    0.206 sec

------------------------------
INITIAL GUESS: MODEL POTENTIAL
------------------------------
Loading Hartree-Fock densities                     ... done
Calculating cut-offs                               ... done
Setting up the integral package                    ... done
Initializing the effective Hamiltonian             ... done
Starting the Coulomb interaction                   ... done (   0.0 sec)
Reading the grid                                   ... done
Mapping shells                                     ... done
Starting the XC term evaluation                    ... done (   0.0 sec)
Transforming the Hamiltonian                       ... done (   0.0 sec)
Diagonalizing the Hamiltonian                      ... done (   0.0 sec)
Back transforming the eigenvectors                 ... done (   0.0 sec)
Now organizing SCF variables                       ... done
                      ------------------
                      INITIAL GUESS DONE (   0.4 sec)
                      ------------------
--------------
SCF ITERATIONS
--------------
ITER       Energy         Delta-E        Max-DP      RMS-DP      [F,P]     Damp
               ***  Starting incremental Fock matrix formation  ***
  0    -39.5138429011   0.000000000000 0.02915254  0.00058340  0.2357649 0.7000
  1    -39.5345841855  -0.020741284489 0.02078579  0.00044226  0.1578743 0.7000
                               ***Turning on DIIS***
  2    -39.5478338433  -0.013249657748 0.04316304  0.00095721  0.0987957 0.0000
  3    -39.5184003371   0.029433506209 0.01483680  0.00029682  0.0257623 0.0000
  4    -39.5718219084  -0.053421571344 0.00422727  0.00010935  0.0041913 0.0000
  5    -39.5764291354  -0.004607226987 0.00308334  0.00008275  0.0023330 0.0000
  6    -39.5767307851  -0.000301649702 0.00183403  0.00004996  0.0012255 0.0000
  7    -39.5764318785   0.000298906592 0.00134533  0.00003857  0.0005809 0.0000
  8    -39.5763002020   0.000131676531 0.00042058  0.00001465  0.0001585 0.0000
  9    -39.5762734217   0.000026780333 0.00012296  0.00000474  0.0000352 0.0000
 10    -39.5762659529   0.000007468759 0.00006019  0.00000210  0.0000089 0.0000
 11    -39.5762670216  -0.000001068718 0.00002384  0.00000079  0.0000019 0.0000
                            ***DIIS convergence achieved***

               *****************************************************
               *                     SUCCESS                       *
               *           SCF CONVERGED AFTER  12 CYCLES          *
               *****************************************************


----------------
TOTAL SCF ENERGY
----------------

Total Energy       :          -39.57626700 Eh           -1076.92497 eV

Components:
Nuclear Repulsion  :            9.74125097 Eh             265.07291 eV
Electronic Energy  :          -49.31751796 Eh           -1341.99789 eV
One Electron Energy:          -71.71792668 Eh           -1951.54400 eV
Two Electron Energy:           22.40040871 Eh             609.54611 eV

Virial components:
Potential Energy   :          -79.14983041 Eh           -2153.77638 eV
Kinetic Energy     :           39.57356341 Eh            1076.85141 eV
Virial Ratio       :            2.00006832


---------------
SCF CONVERGENCE
---------------

  Last Energy change         ...    2.5158e-08  Tolerance :   1.0000e-08
  Last MAX-Density change    ...    9.0399e-06  Tolerance :   1.0000e-07
  Last RMS-Density change    ...    3.0313e-07  Tolerance :   5.0000e-09
  Last DIIS Error            ...    6.1655e-07  Tolerance :   5.0000e-07

             **** THE GBW FILE WAS UPDATED (CH3·.gbw) ****
             **** DENSITY FILE WAS UPDATED (CH3·.scfp) ****
             **** ENERGY FILE WAS UPDATED (CH3·.en.tmp) ****
----------------------
UHF SPIN CONTAMINATION
----------------------

Expectation value of <S**2>     :     0.761645
Ideal value S*(S+1) for S=0.5   :     0.750000
Deviation                       :     0.011645

             **** THE GBW FILE WAS UPDATED (CH3·.gbw) ****
             **** DENSITY FILE WAS UPDATED (CH3·.scfp) ****
----------------
ORBITAL ENERGIES
----------------
                 SPIN UP ORBITALS
  NO   OCC          E(Eh)            E(eV) 
   0   1.0000     -11.227802      -305.5240 
   1   1.0000      -0.948415       -25.8077 
   2   1.0000      -0.580901       -15.8071 
   3   1.0000      -0.580901       -15.8071 
   4   1.0000      -0.384794       -10.4708 
   5   0.0000       0.151822         4.1313 
   6   0.0000       0.221063         6.0154 
   7   0.0000       0.221063         6.0154 
   8   0.0000       0.430724        11.7206 
   9   0.0000       0.430724        11.7206 
  10   0.0000       0.506649        13.7866 
  11   0.0000       0.564422        15.3587 
  12   0.0000       0.670651        18.2493 
  13   0.0000       0.683567        18.6008 
  14   0.0000       0.683567        18.6008 
  15   0.0000       0.721493        19.6328 
  16   0.0000       0.721493        19.6328 
  17   0.0000       1.018934        27.7266 
  18   0.0000       1.067468        29.0473 
  19   0.0000       1.116107        30.3708 
  20   0.0000       1.116107        30.3708 
  21   0.0000       1.154686        31.4206 
  22   0.0000       1.245663        33.8962 
  23   0.0000       1.245663        33.8962 
  24   0.0000       1.457993        39.6740 
  25   0.0000       1.457993        39.6740 
  26   0.0000       1.581180        43.0261 
  27   0.0000       1.581181        43.0261 
  28   0.0000       1.722212        46.8638 
  29   0.0000       2.484993        67.6201 
  30   0.0000       2.625722        71.4495 
  31   0.0000       2.625722        71.4495 
  32   0.0000       2.973462        80.9120 
  33   0.0000       2.973462        80.9120 
  34   0.0000       2.991113        81.3923 
  35   0.0000       3.192143        86.8626 
  36   0.0000       3.192143        86.8626 
  37   0.0000       3.246976        88.3547 
  38   0.0000       3.305798        89.9553 
  39   0.0000       3.329268        90.5940 
  40   0.0000       3.376494        91.8791 
  41   0.0000       3.377650        91.9105 
  42   0.0000       3.377650        91.9105 
  43   0.0000       3.377690        91.9116 
  44   0.0000       3.377690        91.9116 
  45   0.0000       3.492905        95.0468 
  46   0.0000       3.780768       102.8799 
  47   0.0000       3.780768       102.8799 
  48   0.0000       3.880784       105.6015 
  49   0.0000       3.880784       105.6015 
  50   0.0000       3.928591       106.9024 
  51   0.0000       3.928592       106.9024 
  52   0.0000       4.053919       110.3128 
  53   0.0000       4.096750       111.4782 
  54   0.0000       4.250176       115.6532 
  55   0.0000       4.349841       118.3652 
  56   0.0000       4.349841       118.3652 
  57   0.0000       4.411143       120.0333 
  58   0.0000       4.411143       120.0333 
  59   0.0000       5.071446       138.0011 
  60   0.0000       5.071446       138.0011 
  61   0.0000       5.108541       139.0105 
  62   0.0000       5.311945       144.5454 
  63   0.0000       5.311946       144.5454 
  64   0.0000       5.315239       144.6350 
  65   0.0000       5.315240       144.6350 
  66   0.0000       5.529170       150.4564 
  67   0.0000       5.925493       161.2409 
  68   0.0000       6.521853       177.4686 
  69   0.0000       6.521853       177.4686 
  70   0.0000       6.529517       177.6772 
  71   0.0000      26.293038       715.4699 

                 SPIN DOWN ORBITALS
  NO   OCC          E(Eh)            E(eV) 
   0   1.0000     -11.204299      -304.8845 
   1   1.0000      -0.856951       -23.3188 
   2   1.0000      -0.566523       -15.4159 
   3   1.0000      -0.566523       -15.4159 
   4   0.0000       0.136275         3.7082 
   5   0.0000       0.161892         4.4053 
   6   0.0000       0.225581         6.1384 
   7   0.0000       0.225581         6.1384 
   8   0.0000       0.433022        11.7831 
   9   0.0000       0.433023        11.7831 
  10   0.0000       0.558327        15.1928 
  11   0.0000       0.693213        18.8633 
  12   0.0000       0.694234        18.8911 
  13   0.0000       0.694848        18.9078 
  14   0.0000       0.694848        18.9078 
  15   0.0000       0.771222        20.9860 
  16   0.0000       0.771222        20.9860 
  17   0.0000       1.016154        27.6510 
  18   0.0000       1.112296        30.2671 
  19   0.0000       1.121387        30.5145 
  20   0.0000       1.121387        30.5145 
  21   0.0000       1.176019        32.0011 
  22   0.0000       1.270823        34.5808 
  23   0.0000       1.270823        34.5808 
  24   0.0000       1.462584        39.7989 
  25   0.0000       1.462584        39.7989 
  26   0.0000       1.590914        43.2910 
  27   0.0000       1.590914        43.2910 
  28   0.0000       1.741582        47.3909 
  29   0.0000       2.489993        67.7562 
  30   0.0000       2.643465        71.9324 
  31   0.0000       2.643465        71.9324 
  32   0.0000       3.006662        81.8154 
  33   0.0000       3.006662        81.8154 
  34   0.0000       3.081748        83.8586 
  35   0.0000       3.198669        87.0402 
  36   0.0000       3.198669        87.0402 
  37   0.0000       3.249169        88.4144 
  38   0.0000       3.332460        90.6808 
  39   0.0000       3.345207        91.0277 
  40   0.0000       3.393243        92.3348 
  41   0.0000       3.393243        92.3348 
  42   0.0000       3.414772        92.9207 
  43   0.0000       3.414825        92.9221 
  44   0.0000       3.414826        92.9221 
  45   0.0000       3.530493        96.0696 
  46   0.0000       3.784303       102.9761 
  47   0.0000       3.784303       102.9761 
  48   0.0000       3.888356       105.8075 
  49   0.0000       3.888356       105.8075 
  50   0.0000       3.946690       107.3949 
  51   0.0000       3.946690       107.3949 
  52   0.0000       4.050805       110.2280 
  53   0.0000       4.097678       111.5035 
  54   0.0000       4.249698       115.6402 
  55   0.0000       4.345495       118.2469 
  56   0.0000       4.345495       118.2469 
  57   0.0000       4.420192       120.2796 
  58   0.0000       4.420193       120.2796 
  59   0.0000       5.074632       138.0878 
  60   0.0000       5.074632       138.0878 
  61   0.0000       5.120873       139.3460 
  62   0.0000       5.316928       144.6810 
  63   0.0000       5.316928       144.6810 
  64   0.0000       5.339285       145.2893 
  65   0.0000       5.339285       145.2893 
  66   0.0000       5.534656       150.6056 
  67   0.0000       5.934653       161.4901 
  68   0.0000       6.526214       177.5873 
  69   0.0000       6.526214       177.5873 
  70   0.0000       6.532629       177.7619 
  71   0.0000      26.307972       715.8763 
------------------
MOLECULAR ORBITALS
------------------
                      0         1         2         3         4         5   
                 -11.22780  -0.94842  -0.58090  -0.58090  -0.38479   0.15182
                   1.00000   1.00000   1.00000   1.00000   1.00000   0.00000
                  --------  --------  --------  --------  --------  --------
  0C   1s         0.562924  0.108145 -0.000000 -0.000000 -0.000000 -0.046696
  0C   2s         0.466194  0.179090 -0.000000 -0.000000 -0.000000 -0.090030
  0C   1pz        0.000000 -0.000000  0.000000  0.000000  0.260007  0.000000
  0C   1px        0.000000  0.000000 -0.000000  0.201898  0.000000  0.000000
  0C   1py        0.000000 -0.000000  0.201898  0.000000  0.000000 -0.000000
  0C   3s         0.008005 -0.446851  0.000000  0.000000  0.000000  0.275291
  0C   2pz        0.000000 -0.000000 -0.000000  0.000000  0.424489  0.000000
  0C   2px       -0.000000  0.000000 -0.000000  0.280994 -0.000000 -0.000000
  0C   2py       -0.000000 -0.000000  0.280994  0.000000  0.000000  0.000000
  0C   4s         0.004713 -0.266510 -0.000000  0.000000  0.000000  3.303514
  0C   3pz        0.000000 -0.000000  0.000000  0.000000  0.478246 -0.000000
  0C   3px       -0.000000  0.000000 -0.000000  0.171171 -0.000000  0.000000
  0C   3py        0.000000  0.000000  0.171171  0.000000 -0.000000  0.000000
  0C   1dz2       0.000327  0.001815  0.000000 -0.000000 -0.000000 -0.002657
  0C   1dxz      -0.000000  0.000000  0.000000 -0.000000 -0.000000  0.000000
  0C   1dyz      -0.000000 -0.000000 -0.000000 -0.000000  0.000000  0.000000
  0C   1dx2y2    -0.000000  0.000000 -0.000000  0.014407 -0.000000 -0.000000
  0C   1dxy       0.000000  0.000000 -0.014407 -0.000000 -0.000000 -0.000000
  0C   2dz2      -0.000990 -0.018771  0.000000  0.000000 -0.000000 -0.187043
  0C   2dxz       0.000000 -0.000000  0.000000 -0.000000  0.000000 -0.000000
  0C   2dyz       0.000000 -0.000000 -0.000000  0.000000 -0.000000 -0.000000
  0C   2dx2y2    -0.000000 -0.000000 -0.000000  0.012254 -0.000000 -0.000000
  0C   2dxy       0.000000  0.000000 -0.012254 -0.000000 -0.000000 -0.000000
  0C   1f0       -0.000000  0.000000 -0.000000 -0.000000  0.002276  0.000000
  0C   1f+1       0.000000  0.000000 -0.000000  0.002221  0.000000 -0.000000
  0C   1f-1       0.000000  0.000000  0.002221  0.000000  0.000000 -0.000000
  0C   1f+2       0.000000 -0.000000 -0.000000 -0.000000 -0.000000 -0.000000
  0C   1f-2      -0.000000  0.000000 -0.000000  0.000000  0.000000 -0.000000
  0C   1f+3      -0.000668  0.004235  0.000000  0.000000 -0.000000 -0.023701
  0C   1f-3      -0.000000 -0.000000  0.000000 -0.000000 -0.000000 -0.000000
  1H   1s         0.000329 -0.085903 -0.000000  0.163244 -0.000000 -0.003470
  1H   2s        -0.002389 -0.129408 -0.000000  0.273910 -0.000000 -0.352317
  1H   3s        -0.000497 -0.014563 -0.000000  0.102192 -0.000000 -1.211354
  1H   1pz        0.000000 -0.000000  0.000000  0.000000  0.008787 -0.000000
  1H   1px        0.000116  0.008284  0.000000 -0.013572  0.000000 -0.012692
  1H   1py       -0.000000  0.000000  0.004576  0.000000 -0.000000  0.000000
  1H   2pz       -0.000000  0.000000 -0.000000 -0.000000  0.018518  0.000000
  1H   2px        0.001231  0.025166  0.000000 -0.036193 -0.000000  0.228443
  1H   2py        0.000000 -0.000000  0.009770  0.000000  0.000000  0.000000
  1H   1dz2       0.000139  0.001220  0.000000 -0.002213  0.000000  0.011842
  1H   1dxz       0.000000 -0.000000  0.000000  0.000000 -0.003533 -0.000000
  1H   1dyz      -0.000000  0.000000  0.000000  0.000000  0.000000  0.000000
  1H   1dx2y2    -0.000245 -0.002212 -0.000000  0.005520  0.000000 -0.010933
  1H   1dxy      -0.000000  0.000000 -0.001592 -0.000000  0.000000 -0.000000
  2H   1s         0.000329 -0.085903  0.141373 -0.081622  0.000000 -0.003470
  2H   2s        -0.002389 -0.129409  0.237213 -0.136955 -0.000000 -0.352317
  2H   3s        -0.000497 -0.014563  0.088501 -0.051096 -0.000000 -1.211354
  2H   1pz        0.000000  0.000000  0.000000  0.000000  0.008787 -0.000000
  2H   1px       -0.000058 -0.004142  0.007859  0.000039  0.000000  0.006346
  2H   1py        0.000101  0.007175 -0.009035  0.007859 -0.000000 -0.010992
  2H   2pz       -0.000000  0.000000 -0.000000 -0.000000  0.018518  0.000000
  2H   2px       -0.000615 -0.012583  0.019903 -0.001720 -0.000000 -0.114222
  2H   2py        0.001066  0.021795 -0.024702  0.019903  0.000000  0.197838
  2H   1dz2       0.000139  0.001220 -0.001917  0.001107  0.000000  0.011842
  2H   1dxz      -0.000000  0.000000  0.000000 -0.000000  0.001766 -0.000000
  2H   1dyz       0.000000 -0.000000  0.000000  0.000000 -0.003059  0.000000
  2H   1dx2y2     0.000123  0.001106 -0.001701  0.002574  0.000000  0.005467
  2H   1dxy       0.000212  0.001916 -0.004538  0.001701  0.000000  0.009469
  3H   1s         0.000329 -0.085903 -0.141373 -0.081622  0.000000 -0.003470
  3H   2s        -0.002389 -0.129409 -0.237213 -0.136955 -0.000000 -0.352317
  3H   3s        -0.000497 -0.014563 -0.088501 -0.051096 -0.000000 -1.211354
  3H   1pz       -0.000000  0.000000 -0.000000  0.000000  0.008787  0.000000
  3H   1px       -0.000058 -0.004142 -0.007859  0.000039  0.000000  0.006346
  3H   1py       -0.000101 -0.007175 -0.009035 -0.007859 -0.000000  0.010992
  3H   2pz        0.000000 -0.000000 -0.000000 -0.000000  0.018518 -0.000000
  3H   2px       -0.000615 -0.012583 -0.019903 -0.001720 -0.000000 -0.114222
  3H   2py       -0.001066 -0.021795 -0.024702 -0.019903 -0.000000 -0.197838
  3H   1dz2       0.000139  0.001220  0.001917  0.001107  0.000000  0.011842
  3H   1dxz      -0.000000  0.000000 -0.000000  0.000000  0.001766 -0.000000
  3H   1dyz       0.000000 -0.000000 -0.000000 -0.000000  0.003059 -0.000000
  3H   1dx2y2     0.000123  0.001106  0.001701  0.002574  0.000000  0.005467
  3H   1dxy      -0.000212 -0.001916 -0.004538 -0.001701 -0.000000 -0.009469
                      6         7         8         9        10        11   
                   0.22106   0.22106   0.43072   0.43072   0.50665   0.56442
                   0.00000   0.00000   0.00000   0.00000   0.00000   0.00000
                  --------  --------  --------  --------  --------  --------
  0C   1s         0.000000 -0.000000 -0.000000 -0.000000  0.026200  0.000000
  0C   2s         0.000000 -0.000000 -0.000000 -0.000000  0.046615  0.000000
  0C   1pz        0.000000 -0.000000  0.000000 -0.000000 -0.000000  0.211049
  0C   1px        0.000000 -0.101690  0.041032 -0.000000 -0.000000  0.000000
  0C   1py        0.101690  0.000000  0.000000  0.041032 -0.000000 -0.000000
  0C   3s        -0.000000  0.000000  0.000000 -0.000000  0.035343 -0.000000
  0C   2pz       -0.000000 -0.000000  0.000000 -0.000000 -0.000000  0.830445
  0C   2px        0.000000 -0.387751 -0.338957  0.000000 -0.000000 -0.000000
  0C   2py        0.387752  0.000000 -0.000000 -0.338958 -0.000000  0.000000
  0C   4s        -0.000000  0.000001  0.000005 -0.000000 -1.357284  0.000000
  0C   3pz       -0.000000  0.000000  0.000000  0.000000  0.000000 -1.350475
  0C   3px        0.000001 -1.746599 -2.339769  0.000000 -0.000002 -0.000000
  0C   3py        1.746600  0.000001 -0.000000 -2.339772  0.000000  0.000000
  0C   1dz2       0.000000 -0.000000  0.000000  0.000000 -0.019324 -0.000000
  0C   1dxz      -0.000000  0.000000 -0.000000 -0.000000 -0.000000 -0.000000
  0C   1dyz       0.000000 -0.000000  0.000000  0.000000 -0.000000  0.000000
  0C   1dx2y2     0.000000 -0.006871  0.016736 -0.000000  0.000000 -0.000000
  0C   1dxy      -0.006871 -0.000000 -0.000000 -0.016736  0.000000 -0.000000
  0C   2dz2       0.000000 -0.000000 -0.000000  0.000000 -0.183415 -0.000000
  0C   2dxz      -0.000000  0.000000  0.000000 -0.000000  0.000000  0.000000
  0C   2dyz      -0.000000  0.000000  0.000000 -0.000000 -0.000000  0.000000
  0C   2dx2y2     0.000000 -0.201999 -0.594660  0.000000  0.000000 -0.000000
  0C   2dxy      -0.201999 -0.000000  0.000000  0.594660  0.000000 -0.000000
  0C   1f0       -0.000000 -0.000000 -0.000000 -0.000000 -0.000000  0.028692
  0C   1f+1      -0.000000  0.015030  0.044341 -0.000000  0.000000  0.000000
  0C   1f-1      -0.015030 -0.000000  0.000000  0.044341 -0.000000 -0.000000
  0C   1f+2      -0.000000  0.000000  0.000000 -0.000000  0.000000  0.000000
  0C   1f-2      -0.000000 -0.000000 -0.000000  0.000000  0.000000 -0.000000
  0C   1f+3       0.000000  0.000000 -0.000000  0.000000  0.034825 -0.000000
  0C   1f-3       0.000000  0.000000 -0.000000 -0.000000  0.000000 -0.000000
  1H   1s         0.000000 -0.006383  0.046541 -0.000000  0.079625  0.000000
  1H   2s        -0.000000  0.390106  2.086497 -0.000000  0.878644 -0.000000
  1H   3s        -0.000001  2.564572  0.482019 -0.000000 -0.172609 -0.000000
  1H   1pz       -0.000000 -0.000000  0.000000 -0.000000  0.000000 -0.010799
  1H   1px       -0.000000  0.016930 -0.034980  0.000000 -0.019576 -0.000000
  1H   1py        0.012297  0.000000 -0.000000 -0.001750  0.000000  0.000000
  1H   2pz        0.000000 -0.000000 -0.000000  0.000000 -0.000000  0.160254
  1H   2px        0.000000 -0.305061 -0.372516  0.000000  0.067561  0.000000
  1H   2py       -0.037527 -0.000000 -0.000000 -0.238120 -0.000000 -0.000000
  1H   1dz2       0.000000 -0.010847 -0.007128  0.000000 -0.004680  0.000000
  1H   1dxz      -0.000000  0.000000  0.000000 -0.000000  0.000000 -0.011997
  1H   1dyz      -0.000000  0.000000  0.000000 -0.000000 -0.000000  0.000000
  1H   1dx2y2    -0.000000  0.022755  0.037580 -0.000000  0.006423 -0.000000
  1H   1dxy       0.000680  0.000000  0.000000  0.017394  0.000000 -0.000000
  2H   1s         0.005528  0.003192 -0.023271  0.040306  0.079625  0.000000
  2H   2s        -0.337842 -0.195053 -1.043251  1.806962  0.878642 -0.000000
  2H   3s        -2.220985 -1.282288 -0.241010  0.417444 -0.172609 -0.000000
  2H   1pz        0.000000  0.000000  0.000000  0.000000  0.000000 -0.010799
  2H   1px        0.012655 -0.004990 -0.010058  0.014389  0.009788  0.000000
  2H   1py       -0.009623 -0.012655  0.014389 -0.026672 -0.016953 -0.000000
  2H   2pz        0.000000 -0.000000  0.000000 -0.000000  0.000000  0.160254
  2H   2px       -0.148345 -0.048120 -0.271719  0.058195 -0.033781 -0.000000
  2H   2py        0.219414  0.148345  0.058195 -0.338917  0.058510  0.000000
  2H   1dz2       0.009394  0.005424  0.003564 -0.006173 -0.004680  0.000000
  2H   1dxz      -0.000000  0.000000 -0.000000  0.000000  0.000000  0.005999
  2H   1dyz       0.000000 -0.000000  0.000000  0.000000 -0.000000 -0.010390
  2H   1dx2y2     0.009559  0.006199 -0.003651 -0.023805 -0.003211  0.000000
  2H   1dxy       0.017236  0.009559  0.023805 -0.023837 -0.005562  0.000000
  3H   1s        -0.005528  0.003192 -0.023271 -0.040306  0.079625  0.000000
  3H   2s         0.337842 -0.195053 -1.043251 -1.806962  0.878642 -0.000000
  3H   3s         2.220986 -1.282286 -0.241010 -0.417444 -0.172609 -0.000000
  3H   1pz       -0.000000 -0.000000 -0.000000 -0.000000 -0.000000 -0.010799
  3H   1px       -0.012655 -0.004990 -0.010058 -0.014389  0.009788  0.000000
  3H   1py       -0.009623  0.012655 -0.014389 -0.026672  0.016953  0.000000
  3H   2pz        0.000000  0.000000  0.000000  0.000000  0.000000  0.160254
  3H   2px        0.148345 -0.048120 -0.271719 -0.058195 -0.033781 -0.000000
  3H   2py        0.219414 -0.148345 -0.058195 -0.338917 -0.058510 -0.000000
  3H   1dz2      -0.009394  0.005424  0.003564  0.006173 -0.004680  0.000000
  3H   1dxz      -0.000000  0.000000  0.000000  0.000000 -0.000000  0.005999
  3H   1dyz      -0.000000  0.000000  0.000000 -0.000000 -0.000000  0.010390
  3H   1dx2y2    -0.009559  0.006199 -0.003651  0.023805 -0.003211  0.000000
  3H   1dxy       0.017236 -0.009559 -0.023805 -0.023837  0.005562 -0.000000
                     12        13        14        15        16        17   
                   0.67065   0.68357   0.68357   0.72149   0.72149   1.01893
                   0.00000   0.00000   0.00000   0.00000   0.00000   0.00000
                  --------  --------  --------  --------  --------  --------
  0C   1s        -0.084600  0.000000 -0.000000  0.000000  0.000000  0.000000
  0C   2s        -0.121968  0.000000 -0.000000  0.000000  0.000000  0.000000
  0C   1pz        0.000000 -0.000000 -0.000000 -0.000000 -0.000000 -0.000000
  0C   1px        0.000000  0.285116 -0.000000 -0.000000  0.000000  0.000000
  0C   1py        0.000000 -0.000000 -0.285116 -0.000000  0.000000  0.000000
  0C   3s         0.468588  0.000000  0.000000 -0.000000 -0.000000 -0.000000
  0C   2pz        0.000000  0.000000 -0.000000 -0.000000 -0.000000 -0.000000
  0C   2px        0.000000 -0.349830  0.000000  0.000000  0.000000 -0.000000
  0C   2py       -0.000000  0.000000  0.349831 -0.000000 -0.000000  0.000000
  0C   4s        -8.027530  0.000014 -0.000000  0.000000  0.000000 -0.000000
  0C   3pz       -0.000000  0.000000  0.000000  0.000000  0.000000 -0.000000
  0C   3px       -0.000006 -3.261885  0.000000  0.000000 -0.000000 -0.000000
  0C   3py       -0.000000  0.000000  3.261886  0.000000 -0.000000  0.000002
  0C   1dz2       0.046490 -0.000000  0.000000 -0.000000 -0.000000 -0.000000
  0C   1dxz      -0.000000  0.000000 -0.000000 -0.000000 -0.013052 -0.000000
  0C   1dyz      -0.000000 -0.000000  0.000000 -0.013052  0.000000  0.000000
  0C   1dx2y2    -0.000000 -0.050616  0.000000  0.000000 -0.000000 -0.000000
  0C   1dxy       0.000000 -0.000000 -0.050616 -0.000000 -0.000000  0.000000
  0C   2dz2       0.822355 -0.000001  0.000000 -0.000000 -0.000000  0.000000
  0C   2dxz       0.000000  0.000000 -0.000000 -0.000000 -0.503779  0.000000
  0C   2dyz      -0.000000  0.000000  0.000000 -0.503779  0.000000 -0.000000
  0C   2dx2y2    -0.000000 -1.042898  0.000000  0.000000 -0.000000 -0.000000
  0C   2dxy       0.000000 -0.000000 -1.042897 -0.000000  0.000000  0.000000
  0C   1f0       -0.000000 -0.000000  0.000000 -0.000000 -0.000000  0.000000
  0C   1f+1       0.000000  0.064757 -0.000000 -0.000000  0.000000  0.000000
  0C   1f-1       0.000000 -0.000000 -0.064757 -0.000000  0.000000 -0.000000
  0C   1f+2       0.000000  0.000000 -0.000000  0.000000  0.011166  0.000000
  0C   1f-2      -0.000000 -0.000000  0.000000 -0.011166  0.000000  0.000000
  0C   1f+3       0.124800 -0.000000  0.000000 -0.000000 -0.000000  0.000000
  0C   1f-3       0.000000 -0.000000  0.000000 -0.000000  0.000000  0.117772
  1H   1s        -0.074696 -0.104843  0.000000  0.000000 -0.000000 -0.000000
  1H   2s         1.744046  1.624381 -0.000000 -0.000000 -0.000000  0.000000
  1H   3s         1.439670  2.425244 -0.000000 -0.000000  0.000000  0.000000
  1H   1pz        0.000000 -0.000000  0.000000  0.000000  0.034489 -0.000000
  1H   1px       -0.003865 -0.010848  0.000000  0.000000  0.000000 -0.000000
  1H   1py       -0.000000  0.000000  0.011746 -0.000000 -0.000000 -0.030883
  1H   2pz       -0.000000  0.000000  0.000000 -0.000000 -0.494846  0.000000
  1H   2px       -1.013501 -1.179526  0.000000  0.000000 -0.000000 -0.000000
  1H   2py        0.000000 -0.000000 -0.118593 -0.000000  0.000000  0.774850
  1H   1dz2      -0.048458 -0.036099  0.000000  0.000000  0.000000 -0.000000
  1H   1dxz       0.000000  0.000000 -0.000000 -0.000000 -0.012741 -0.000000
  1H   1dyz      -0.000000  0.000000  0.000000 -0.001480  0.000000 -0.000000
  1H   1dx2y2     0.051368  0.077290 -0.000000 -0.000000 -0.000000  0.000000
  1H   1dxy      -0.000000  0.000000  0.003926  0.000000 -0.000000 -0.035504
  2H   1s        -0.074696  0.052422  0.090797  0.000000  0.000000 -0.000000
  2H   2s         1.744044 -0.812195 -1.406759 -0.000000 -0.000000 -0.000001
  2H   3s         1.439665 -1.212626 -2.100326 -0.000000 -0.000000 -0.000000
  2H   1pz        0.000000  0.000000 -0.000000  0.029869 -0.017245 -0.000000
  2H   1px        0.001932 -0.011521  0.000389 -0.000000 -0.000000  0.026745
  2H   1py       -0.003347 -0.000389  0.011072 -0.000000 -0.000000  0.015441
  2H   2pz       -0.000000 -0.000000  0.000000 -0.428549  0.247423  0.000000
  2H   2px        0.506749 -0.205938 -0.562102 -0.000000 -0.000000 -0.671041
  2H   2py       -0.877715  0.562104  0.854998  0.000000  0.000000 -0.387426
  2H   1dz2      -0.048458  0.018049  0.031263  0.000000  0.000000  0.000000
  2H   1dxz      -0.000000 -0.000000  0.000000  0.004876 -0.004295  0.000000
  2H   1dyz      -0.000000 -0.000000  0.000000 -0.009926  0.004876 -0.000000
  2H   1dx2y2    -0.025684  0.022267  0.031768  0.000000  0.000000 -0.030748
  2H   1dxy      -0.044486  0.031768  0.058949  0.000000  0.000000  0.017752
  3H   1s        -0.074696  0.052422 -0.090797  0.000000  0.000000  0.000000
  3H   2s         1.744044 -0.812195  1.406759 -0.000000 -0.000000  0.000001
  3H   3s         1.439665 -1.212626  2.100326 -0.000000 -0.000000  0.000000
  3H   1pz       -0.000000  0.000000 -0.000000 -0.029869 -0.017245 -0.000000
  3H   1px        0.001932 -0.011521 -0.000389 -0.000000 -0.000000 -0.026745
  3H   1py        0.003347  0.000389  0.011072 -0.000000 -0.000000  0.015441
  3H   2pz        0.000000 -0.000000 -0.000000  0.428550  0.247423  0.000000
  3H   2px        0.506749 -0.205938  0.562102 -0.000000 -0.000000  0.671041
  3H   2py        0.877715 -0.562104  0.854998 -0.000000 -0.000000 -0.387426
  3H   1dz2      -0.048458  0.018049 -0.031263  0.000000  0.000000 -0.000000
  3H   1dxz       0.000000  0.000000 -0.000000 -0.004876 -0.004295 -0.000000
  3H   1dyz       0.000000  0.000000 -0.000000 -0.009926 -0.004876 -0.000000
  3H   1dx2y2    -0.025684  0.022267 -0.031768  0.000000  0.000000  0.030748
  3H   1dxy       0.044486 -0.031768  0.058949 -0.000000 -0.000000  0.017752
                     18        19        20        21        22        23   
                   1.06747   1.11611   1.11611   1.15469   1.24566   1.24566
                   0.00000   0.00000   0.00000   0.00000   0.00000   0.00000
                  --------  --------  --------  --------  --------  --------
  0C   1s        -0.006552 -0.000000 -0.000000 -0.000000  0.000000  0.000000
  0C   2s        -0.014025  0.000000 -0.000000 -0.000000  0.000000  0.000000
  0C   1pz       -0.000000 -0.000000 -0.000000 -0.091972  0.000000 -0.000000
  0C   1px       -0.000000 -0.000000 -0.070598  0.000000 -0.000000 -0.000000
  0C   1py       -0.000000 -0.070598  0.000000  0.000000 -0.000000 -0.000000
  0C   3s        -0.298735  0.000000 -0.000000  0.000000 -0.000000 -0.000000
  0C   2pz       -0.000000 -0.000000 -0.000000 -0.502855 -0.000000  0.000000
  0C   2px       -0.000000 -0.000000 -0.227652  0.000000 -0.000000  0.000000
  0C   2py        0.000000 -0.227652  0.000000  0.000000 -0.000000 -0.000000
  0C   4s         3.129193 -0.000000 -0.000001 -0.000000  0.000000 -0.000000
  0C   3pz       -0.000000 -0.000000 -0.000000 -0.974373  0.000000  0.000000
  0C   3px        0.000000 -0.000000 -2.251747  0.000000  0.000000 -0.000000
  0C   3py        0.000000 -2.251749  0.000000  0.000000 -0.000000 -0.000000
  0C   1dz2       0.005706 -0.000000  0.000000 -0.000000  0.000000  0.000000
  0C   1dxz       0.000000  0.000000 -0.000000  0.000000 -0.010151  0.000000
  0C   1dyz       0.000000  0.000000  0.000000  0.000000 -0.000000 -0.010151
  0C   1dx2y2    -0.000000 -0.000000 -0.005230  0.000000 -0.000000 -0.000000
  0C   1dxy      -0.000000  0.005230 -0.000000 -0.000000  0.000000  0.000000
  0C   2dz2      -1.502844  0.000000  0.000000  0.000000  0.000000  0.000000
  0C   2dxz      -0.000000 -0.000000  0.000000  0.000000  1.656687 -0.000000
  0C   2dyz      -0.000000 -0.000000 -0.000000  0.000000  0.000000  1.656688
  0C   2dx2y2     0.000001 -0.000000 -0.769691  0.000000 -0.000000  0.000000
  0C   2dxy      -0.000000  0.769690 -0.000000 -0.000000  0.000000  0.000000
  0C   1f0        0.000000  0.000000  0.000000  0.052538  0.000000 -0.000000
  0C   1f+1       0.000000  0.000000  0.027296 -0.000000 -0.000000 -0.000000
  0C   1f-1      -0.000000  0.027296 -0.000000 -0.000000  0.000000  0.000000
  0C   1f+2      -0.000000 -0.000000  0.000000  0.000000  0.089871 -0.000000
  0C   1f-2       0.000000  0.000000  0.000000 -0.000000 -0.000000 -0.089871
  0C   1f+3      -0.102547  0.000000 -0.000000  0.000000 -0.000000 -0.000000
  0C   1f-3       0.000000  0.000000 -0.000000 -0.000000 -0.000000  0.000000
  1H   1s        -0.006789 -0.000000 -0.028915  0.000000 -0.000000  0.000000
  1H   2s        -1.445107  0.000000  1.761352 -0.000000  0.000000  0.000000
  1H   3s        -0.149332  0.000000  0.334222  0.000000 -0.000000 -0.000000
  1H   1pz       -0.000000 -0.000000  0.000000 -0.053498  0.063011 -0.000000
  1H   1px        0.050234 -0.000000 -0.045535 -0.000000  0.000000  0.000000
  1H   1py       -0.000000 -0.047833  0.000000  0.000000 -0.000000  0.000000
  1H   2pz        0.000000  0.000000 -0.000000  0.947193 -1.450807  0.000000
  1H   2px       -0.026154  0.000000  0.331764  0.000000 -0.000000 -0.000000
  1H   2py        0.000000  0.751762 -0.000000 -0.000000  0.000000 -0.000000
  1H   1dz2       0.000141 -0.000000 -0.013222  0.000000 -0.000000 -0.000000
  1H   1dxz      -0.000000 -0.000000  0.000000 -0.023311  0.096871 -0.000000
  1H   1dyz       0.000000  0.000000  0.000000  0.000000  0.000000  0.020233
  1H   1dx2y2    -0.012014 -0.000000 -0.008846 -0.000000  0.000000  0.000000
  1H   1dxy      -0.000000  0.012405 -0.000000 -0.000000 -0.000000  0.000000
  2H   1s        -0.006789 -0.025041  0.014458  0.000000 -0.000000 -0.000000
  2H   2s        -1.445106  1.525376 -0.880675 -0.000000  0.000000  0.000000
  2H   3s        -0.149332  0.289446 -0.167111  0.000000  0.000000  0.000000
  2H   1pz       -0.000000 -0.000000 -0.000000 -0.053498 -0.031506  0.054569
  2H   1px       -0.025117 -0.000995 -0.047258  0.000000 -0.000000 -0.000000
  2H   1py        0.043504 -0.046109 -0.000995 -0.000000  0.000000  0.000000
  2H   2pz        0.000000 -0.000000  0.000000  0.947194  0.725403 -1.256437
  2H   2px        0.013078  0.181863  0.646762 -0.000000  0.000000  0.000000
  2H   2py       -0.022650  0.436763  0.181864  0.000000 -0.000000 -0.000000
  2H   1dz2       0.000141 -0.011450  0.006611  0.000000 -0.000000 -0.000000
  2H   1dxz       0.000000 -0.000000  0.000000  0.011656  0.039393 -0.033185
  2H   1dyz      -0.000000  0.000000 -0.000000 -0.020188 -0.033185  0.077712
  2H   1dx2y2     0.006007 -0.001541 -0.011516  0.000000 -0.000000 -0.000000
  2H   1dxy       0.010404  0.009736  0.001541  0.000000 -0.000000 -0.000000
  3H   1s        -0.006789  0.025041  0.014458  0.000000  0.000000  0.000000
  3H   2s        -1.445106 -1.525376 -0.880675  0.000000 -0.000000 -0.000000
  3H   3s        -0.149332 -0.289446 -0.167111  0.000000 -0.000000 -0.000000
  3H   1pz       -0.000000  0.000000 -0.000000 -0.053498 -0.031506 -0.054569
  3H   1px       -0.025117  0.000995 -0.047258  0.000000 -0.000000 -0.000000
  3H   1py       -0.043504 -0.046109  0.000995  0.000000 -0.000000 -0.000000
  3H   2pz        0.000000 -0.000000  0.000000  0.947194  0.725403  1.256437
  3H   2px        0.013078 -0.181863  0.646762 -0.000000 -0.000000  0.000000
  3H   2py        0.022650  0.436763 -0.181864  0.000000 -0.000000 -0.000000
  3H   1dz2       0.000141  0.011450  0.006611 -0.000000  0.000000  0.000000
  3H   1dxz      -0.000000 -0.000000  0.000000  0.011656  0.039393  0.033185
  3H   1dyz      -0.000000 -0.000000  0.000000  0.020188  0.033185  0.077712
  3H   1dx2y2     0.006007  0.001541 -0.011516 -0.000000  0.000000  0.000000
  3H   1dxy      -0.010404  0.009736 -0.001541  0.000000 -0.000000 -0.000000
                     24        25        26        27        28        29   
                   1.45799   1.45799   1.58118   1.58118   1.72221   2.48499
                   0.00000   0.00000   0.00000   0.00000   0.00000   0.00000
                  --------  --------  --------  --------  --------  --------
  0C   1s        -0.000000  0.000000  0.000000  0.000000 -0.112888  0.063045
  0C   2s        -0.000000  0.000000  0.000000  0.000000 -0.283423  0.200769
  0C   1pz        0.000000 -0.000000 -0.000000  0.000000  0.000000 -0.000000
  0C   1px       -0.010182 -0.000000 -0.234305  0.000000 -0.000000 -0.000000
  0C   1py       -0.000000  0.010182 -0.000000 -0.234305 -0.000000  0.000000
  0C   3s         0.000000 -0.000000 -0.000000 -0.000000  2.730002 -2.261951
  0C   2pz        0.000000  0.000000  0.000000 -0.000000  0.000000  0.000000
  0C   2px        0.630885  0.000001 -3.215760  0.000001 -0.000005  0.000001
  0C   2py        0.000001 -0.630887 -0.000001 -3.215763 -0.000000 -0.000000
  0C   4s        -0.000003 -0.000000 -0.000005 -0.000000  5.549677 -5.874467
  0C   3pz       -0.000000 -0.000000 -0.000000 -0.000000  0.000000 -0.000000
  0C   3px       -0.005656 -0.000000 -2.988699  0.000001 -0.000004  0.000000
  0C   3py       -0.000000  0.005654 -0.000001 -2.988700 -0.000000 -0.000000
  0C   1dz2       0.000000  0.000000 -0.000000  0.000000  0.038717  0.237284
  0C   1dxz       0.000000 -0.000000 -0.000000  0.000000  0.000000 -0.000000
  0C   1dyz      -0.000000 -0.000000  0.000000 -0.000000  0.000000 -0.000000
  0C   1dx2y2     0.029410  0.000000 -0.079984  0.000000 -0.000000  0.000000
  0C   1dxy      -0.000000  0.029410  0.000000  0.079984  0.000000  0.000000
  0C   2dz2       0.000001  0.000000  0.000001 -0.000000 -1.128192  0.992283
  0C   2dxz       0.000000  0.000000 -0.000000 -0.000000  0.000000  0.000000
  0C   2dyz      -0.000000 -0.000000  0.000000 -0.000000  0.000000  0.000000
  0C   2dx2y2     2.908456  0.000003 -1.808855  0.000001 -0.000005 -0.000001
  0C   2dxy      -0.000003  2.908457  0.000001  1.808851  0.000000 -0.000000
  0C   1f0        0.000000 -0.000000 -0.000000 -0.000000  0.000000 -0.000000
  0C   1f+1      -0.055930 -0.000000  0.087317 -0.000000  0.000000 -0.000000
  0C   1f-1      -0.000000  0.055930  0.000000  0.087317  0.000000  0.000000
  0C   1f+2       0.000000 -0.000000  0.000000  0.000000 -0.000000  0.000000
  0C   1f-2       0.000000  0.000000 -0.000000  0.000000  0.000000 -0.000000
  0C   1f+3      -0.000000 -0.000000  0.000000 -0.000000  0.060498  0.588129
  0C   1f-3      -0.000000  0.000000 -0.000000 -0.000000 -0.000000  0.000000
  1H   1s         0.170287  0.000000  0.040809 -0.000000 -0.178732 -0.635934
  1H   2s        -2.550707 -0.000002  4.559171 -0.000002 -2.092582  3.161493
  1H   3s         0.517439  0.000000  1.684108 -0.000001 -0.883505  0.525543
  1H   1pz       -0.000000  0.000000 -0.000000  0.000000 -0.000000  0.000000
  1H   1px        0.063089  0.000000  0.031284 -0.000000 -0.099150 -0.062555
  1H   1py       -0.000000  0.092821 -0.000000 -0.012668  0.000000  0.000000
  1H   2pz        0.000000 -0.000000  0.000000  0.000000 -0.000000  0.000000
  1H   2px        0.413698  0.000000 -2.864393  0.000001  1.535313 -1.200497
  1H   2py        0.000002 -1.841865  0.000000  0.009019 -0.000000  0.000000
  1H   1dz2       0.004317  0.000000 -0.090133  0.000000  0.010861 -0.064069
  1H   1dxz      -0.000000 -0.000000  0.000000 -0.000000 -0.000000  0.000000
  1H   1dyz      -0.000000 -0.000000  0.000000 -0.000000  0.000000 -0.000000
  1H   1dx2y2    -0.033067 -0.000000  0.165563 -0.000000 -0.019305  0.067126
  1H   1dxy      -0.000000  0.078918  0.000000  0.000313  0.000000  0.000000
  2H   1s        -0.085144 -0.147474 -0.020404  0.035341 -0.178731 -0.635935
  2H   2s         1.275355  2.208981 -2.279582  3.948358 -2.092596  3.161496
  2H   3s        -0.258719 -0.448115 -0.842052  1.458480 -0.883508  0.525544
  2H   1pz       -0.000000 -0.000000  0.000000 -0.000000 -0.000000  0.000000
  2H   1px       -0.053844  0.067511 -0.001680 -0.019032  0.049575  0.031278
  2H   1py       -0.067511 -0.024111 -0.019032  0.020296 -0.085866 -0.054175
  2H   2pz        0.000000  0.000000 -0.000000  0.000000 -0.000000  0.000000
  2H   2px        1.484824 -0.618414 -0.709333  1.244223 -0.767660  0.600248
  2H   2py        0.618415 -0.770740  1.244221 -2.146041  1.329626 -1.039663
  2H   1dz2      -0.002158 -0.003739  0.045066 -0.078057  0.010861 -0.064069
  2H   1dxz       0.000000  0.000000 -0.000000 -0.000000  0.000000 -0.000000
  2H   1dyz      -0.000000  0.000000  0.000000 -0.000000  0.000000 -0.000000
  2H   1dx2y2     0.050922 -0.048491  0.041156 -0.071827  0.009653 -0.033563
  2H   1dxy      -0.048491 -0.005071  0.071827 -0.124094  0.016719 -0.058133
  3H   1s        -0.085144  0.147473 -0.020404 -0.035341 -0.178731 -0.635935
  3H   2s         1.275359 -2.208979 -2.279585 -3.948357 -2.092596  3.161496
  3H   3s        -0.258720  0.448115 -0.842053 -1.458480 -0.883508  0.525544
  3H   1pz       -0.000000 -0.000000  0.000000 -0.000000 -0.000000  0.000000
  3H   1px       -0.053844 -0.067511 -0.001680  0.019032  0.049575  0.031278
  3H   1py        0.067511 -0.024111  0.019032  0.020296  0.085866  0.054175
  3H   2pz       -0.000000 -0.000000 -0.000000 -0.000000  0.000000 -0.000000
  3H   2px        1.484823  0.618417 -0.709334 -1.244222 -0.767660  0.600248
  3H   2py       -0.618414 -0.770741 -1.244222 -2.146040 -1.329626  1.039663
  3H   1dz2      -0.002158  0.003739  0.045066  0.078057  0.010861 -0.064069
  3H   1dxz      -0.000000 -0.000000  0.000000  0.000000  0.000000  0.000000
  3H   1dyz       0.000000 -0.000000 -0.000000 -0.000000 -0.000000  0.000000
  3H   1dx2y2     0.050922  0.048491  0.041156  0.071827  0.009653 -0.033563
  3H   1dxy       0.048491 -0.005071 -0.071827 -0.124094 -0.016719  0.058133
                     30        31        32        33        34        35   
                   2.62572   2.62572   2.97346   2.97346   2.99111   3.19214
                   0.00000   0.00000   0.00000   0.00000   0.00000   0.00000
                  --------  --------  --------  --------  --------  --------
  0C   1s         0.000000 -0.000000  0.000000  0.000000  0.000000 -0.000000
  0C   2s         0.000000 -0.000000  0.000000  0.000000  0.000000 -0.000000
  0C   1pz        0.000000  0.000000  0.000000  0.000008 -1.257560  0.000000
  0C   1px        0.000000 -0.050451 -0.000000  0.000000 -0.000000  0.000000
  0C   1py        0.050451  0.000000 -0.000000 -0.000000 -0.000000  0.509840
  0C   3s        -0.000000  0.000001 -0.000000 -0.000000 -0.000000  0.000000
  0C   2pz       -0.000000 -0.000000 -0.000000 -0.000009  1.301077 -0.000000
  0C   2px       -0.000001  1.148958  0.000000 -0.000000  0.000000 -0.000000
  0C   2py       -1.148961 -0.000001  0.000000 -0.000000  0.000000 -1.379814
  0C   4s        -0.000000  0.000008 -0.000000 -0.000000 -0.000000  0.000000
  0C   3pz       -0.000000 -0.000000  0.000000  0.000003 -0.472659 -0.000000
  0C   3px       -0.000001  1.480543 -0.000000 -0.000000  0.000000 -0.000000
  0C   3py       -1.480546 -0.000001  0.000000 -0.000000 -0.000000 -0.800721
  0C   1dz2       0.000000 -0.000000  0.000000  0.000000 -0.000000 -0.000000
  0C   1dxz       0.000000 -0.000000 -0.000000 -0.410297 -0.000003  0.000000
  0C   1dyz      -0.000000 -0.000000  0.410297 -0.000000 -0.000000 -0.000000
  0C   1dx2y2    -0.000000  0.210861  0.000000  0.000000  0.000000  0.000000
  0C   1dxy       0.210861  0.000000  0.000000  0.000000 -0.000000 -0.249587
  0C   2dz2       0.000000 -0.000002  0.000000  0.000000  0.000000 -0.000000
  0C   2dxz      -0.000000  0.000000  0.000000  0.076924  0.000000 -0.000000
  0C   2dyz       0.000000 -0.000000 -0.076924  0.000000  0.000000  0.000000
  0C   2dx2y2     0.000000 -0.314839  0.000000 -0.000000 -0.000000 -0.000000
  0C   2dxy      -0.314840 -0.000000 -0.000000 -0.000000 -0.000000  0.664225
  0C   1f0       -0.000000  0.000000 -0.000000 -0.000001  0.287575  0.000000
  0C   1f+1       0.000000 -0.522485  0.000000 -0.000000  0.000000 -0.000000
  0C   1f-1       0.522485  0.000000  0.000000  0.000000  0.000000 -0.191449
  0C   1f+2       0.000000  0.000000 -0.000000 -0.408746 -0.000003 -0.000000
  0C   1f-2      -0.000000 -0.000000 -0.408746  0.000000  0.000000 -0.000000
  0C   1f+3       0.000000 -0.000001  0.000000  0.000000  0.000000 -0.000000
  0C   1f-3      -0.000001 -0.000000  0.000000  0.000000  0.000000 -0.000004
  1H   1s        -0.000001  0.927762 -0.000000 -0.000000  0.000000 -0.000000
  1H   2s         0.000002 -2.380654  0.000000  0.000000  0.000000  0.000000
  1H   3s         0.000000 -0.239999  0.000000  0.000000  0.000000  0.000000
  1H   1pz        0.000000  0.000000 -0.000000 -0.238010  0.018883 -0.000000
  1H   1px       -0.000000  0.077881  0.000000 -0.000000 -0.000000 -0.000000
  1H   1py        0.025157  0.000000 -0.000000  0.000000 -0.000000 -0.130376
  1H   2pz        0.000000 -0.000000  0.000000  0.232911 -0.034433  0.000000
  1H   2px       -0.000001  0.814739 -0.000000 -0.000000 -0.000000 -0.000000
  1H   2py        0.651087  0.000000  0.000000  0.000000  0.000000  0.043592
  1H   1dz2       0.000000 -0.120607  0.000000 -0.000000  0.000000 -0.000000
  1H   1dxz       0.000000  0.000000  0.000000  0.326546 -0.062167 -0.000000
  1H   1dyz      -0.000000 -0.000000 -0.267210  0.000000  0.000000 -0.000000
  1H   1dx2y2     0.000000 -0.168867  0.000000 -0.000000  0.000000 -0.000000
  1H   1dxy      -0.046048 -0.000000 -0.000000  0.000000  0.000000  0.231649
  2H   1s        -0.803464 -0.463881  0.000000 -0.000000 -0.000000 -0.570651
  2H   2s         2.061705  1.190323 -0.000000  0.000000  0.000000  1.909203
  2H   3s         0.207846  0.119999  0.000000  0.000000  0.000000  0.002632
  2H   1pz        0.000000  0.000000  0.206122  0.119005  0.018885 -0.000000
  2H   1px        0.044617  0.000602  0.000000 -0.000000  0.000000  0.050164
  2H   1py       -0.052121 -0.044617  0.000000  0.000000 -0.000000 -0.217266
  2H   2pz        0.000000  0.000000 -0.201706 -0.116455 -0.034435 -0.000000
  2H   2px        0.634722 -0.284631 -0.000000  0.000000 -0.000000  0.285459
  2H   2py       -0.448281 -0.634720 -0.000000 -0.000000 -0.000000 -0.450831
  2H   1dz2       0.104448  0.060303  0.000000  0.000000  0.000000 -0.318465
  2H   1dxz      -0.000000 -0.000000  0.025693  0.282043  0.031086  0.000000
  2H   1dyz      -0.000000 -0.000000 -0.311711 -0.025693 -0.053840  0.000000
  2H   1dx2y2    -0.053182 -0.076753  0.000000  0.000000  0.000000 -0.010626
  2H   1dxy      -0.138163 -0.053182 -0.000000  0.000000  0.000000  0.213245
  3H   1s         0.803465 -0.463879 -0.000000  0.000000 -0.000000  0.570651
  3H   2s        -2.061707  1.190320  0.000000 -0.000000  0.000000 -1.909203
  3H   3s        -0.207846  0.119998  0.000000 -0.000000  0.000000 -0.002632
  3H   1pz       -0.000000  0.000000 -0.206122  0.119005  0.018885 -0.000000
  3H   1px       -0.044617  0.000602 -0.000000 -0.000000 -0.000000 -0.050164
  3H   1py       -0.052122  0.044617  0.000000  0.000000  0.000000 -0.217266
  3H   2pz        0.000000  0.000000  0.201706 -0.116455 -0.034435 -0.000000
  3H   2px       -0.634721 -0.284632  0.000000 -0.000000  0.000000 -0.285459
  3H   2py       -0.448282  0.634719  0.000000 -0.000000  0.000000 -0.450832
  3H   1dz2      -0.104448  0.060303 -0.000000  0.000000 -0.000000  0.318465
  3H   1dxz      -0.000000 -0.000000 -0.025693  0.282043  0.031086  0.000000
  3H   1dyz       0.000000  0.000000 -0.311711  0.025693  0.053840 -0.000000
  3H   1dx2y2     0.053182 -0.076753 -0.000000 -0.000000 -0.000000  0.010626
  3H   1dxy      -0.138163  0.053182 -0.000000 -0.000000 -0.000000  0.213245
                     36        37        38        39        40        41   
                   3.19214   3.24698   3.30580   3.32927   3.37649   3.37765
                   0.00000   0.00000   0.00000   0.00000   0.00000   0.00000
                  --------  --------  --------  --------  --------  --------
  0C   1s        -0.000000  0.000000  0.000000 -0.000000 -0.034705  0.000000
  0C   2s        -0.000000  0.000000  0.000000 -0.000000 -0.099969  0.000000
  0C   1pz       -0.000000 -0.000000  0.266804  0.000000 -0.000000  0.000000
  0C   1px        0.509839  0.000000 -0.000000 -0.000000  0.000000 -0.000000
  0C   1py       -0.000000  0.000003 -0.000000 -0.000000 -0.000000  0.000000
  0C   3s         0.000001 -0.000000 -0.000000  0.000000  0.656801 -0.000000
  0C   2pz        0.000000  0.000000 -0.324203 -0.000000  0.000000  0.000000
  0C   2px       -1.379811 -0.000000  0.000000 -0.000000  0.000001 -0.000000
  0C   2py        0.000000 -0.000006  0.000000  0.000000 -0.000000  0.000000
  0C   4s         0.000000 -0.000000 -0.000000  0.000000  1.880092 -0.000000
  0C   3pz        0.000000  0.000000 -0.371638 -0.000000  0.000000 -0.000000
  0C   3px       -0.800720 -0.000000 -0.000000 -0.000000  0.000002 -0.000000
  0C   3py        0.000000 -0.000004  0.000000  0.000000 -0.000000  0.000000
  0C   1dz2      -0.000000 -0.000000  0.000000  0.000000  0.647680 -0.000000
  0C   1dxz      -0.000000  0.000000 -0.000000  0.000000  0.000000  0.000000
  0C   1dyz      -0.000000 -0.000000 -0.000000 -0.000003  0.000000  0.676653
  0C   1dx2y2     0.249588  0.000000  0.000000  0.000000 -0.000001  0.000000
  0C   1dxy       0.000000 -0.000001  0.000000  0.000000 -0.000000  0.000000
  0C   2dz2      -0.000000  0.000000 -0.000000 -0.000000 -1.110246  0.000000
  0C   2dxz       0.000000 -0.000000  0.000002  0.000000 -0.000000 -0.000000
  0C   2dyz       0.000000 -0.000000  0.000000  0.000005 -0.000000 -1.309167
  0C   2dx2y2    -0.664226 -0.000000 -0.000000 -0.000000  0.000003 -0.000000
  0C   2dxy      -0.000000  0.000005 -0.000000 -0.000000  0.000000 -0.000000
  0C   1f0       -0.000000 -0.000000  0.887199  0.000000 -0.000000  0.000000
  0C   1f+1      -0.191449 -0.000000  0.000000  0.000000 -0.000001  0.000000
  0C   1f-1       0.000000 -0.000001 -0.000000 -0.000000  0.000000 -0.000000
  0C   1f+2       0.000000 -0.000000  0.000001  0.000000 -0.000000 -0.000000
  0C   1f-2      -0.000000  0.000000 -0.000000 -0.000002  0.000000  0.607377
  0C   1f+3      -0.000000  0.000000 -0.000000 -0.000000 -0.589780  0.000000
  0C   1f-3       0.000000  0.821865  0.000000  0.000000  0.000000 -0.000000
  1H   1s        -0.658931 -0.000000 -0.000000  0.000000 -0.254409  0.000000
  1H   2s         2.204556  0.000000  0.000000  0.000000 -0.813930  0.000000
  1H   3s         0.003038  0.000000  0.000000  0.000000 -0.187882  0.000000
  1H   1pz        0.000000  0.000000 -0.188782 -0.000000  0.000000  0.000000
  1H   1px       -0.246228 -0.000000 -0.000000 -0.000000  0.226583 -0.000000
  1H   1py        0.000000 -0.284959 -0.000000 -0.000000 -0.000000  0.000000
  1H   2pz       -0.000000 -0.000000  0.424360  0.000000  0.000000  0.000000
  1H   2px       -0.615640 -0.000000 -0.000000 -0.000000  0.166523  0.000000
  1H   2py       -0.000000  0.439552  0.000000  0.000000 -0.000000  0.000000
  1H   1dz2      -0.367731 -0.000000  0.000000  0.000000  0.350828  0.000000
  1H   1dxz       0.000000 -0.000000  0.089284  0.000000 -0.000000 -0.000000
  1H   1dyz       0.000000  0.000000 -0.000000  0.581785  0.000000  0.430423
  1H   1dx2y2    -0.207109 -0.000000 -0.000000  0.000000 -0.005849  0.000000
  1H   1dxy      -0.000000  0.045806 -0.000000 -0.000000  0.000000 -0.000000
  2H   1s         0.329465 -0.000003 -0.000000 -0.000000 -0.254409 -0.000000
  2H   2s        -1.102279  0.000010 -0.000000 -0.000000 -0.813926 -0.000000
  2H   3s        -0.001519 -0.000000  0.000000 -0.000000 -0.187882 -0.000000
  2H   1pz        0.000000  0.000000 -0.188782 -0.000001 -0.000000  0.104342
  2H   1px       -0.159340  0.246781 -0.000000 -0.000000 -0.113291 -0.000000
  2H   1py        0.050165  0.142478  0.000000  0.000000  0.196226  0.000000
  2H   2pz       -0.000000 -0.000000  0.424363 -0.000003 -0.000000  0.662124
  2H   2px       -0.121214 -0.380663 -0.000000 -0.000000 -0.083260 -0.000000
  2H   2py        0.285457 -0.219779 -0.000000  0.000000  0.144213 -0.000000
  2H   1dz2       0.183865 -0.000001  0.000000 -0.000000  0.350828 -0.000000
  2H   1dxz      -0.000000  0.000000 -0.044642 -0.503843  0.000000  0.344696
  2H   1dyz      -0.000000  0.000000  0.077321 -0.290892  0.000000 -0.166616
  2H   1dx2y2    -0.225515  0.039667 -0.000000  0.000000  0.002924 -0.000000
  2H   1dxy       0.010626 -0.022901  0.000000  0.000000  0.005064  0.000000
  3H   1s         0.329465  0.000003 -0.000000 -0.000000 -0.254409 -0.000000
  3H   2s        -1.102278 -0.000010  0.000000  0.000000 -0.813926 -0.000000
  3H   3s        -0.001519  0.000000  0.000000  0.000000 -0.187882 -0.000000
  3H   1pz        0.000000  0.000000 -0.188782  0.000001 -0.000000 -0.104342
  3H   1px       -0.159340 -0.246781 -0.000000 -0.000000 -0.113291 -0.000000
  3H   1py       -0.050165  0.142478  0.000000 -0.000000 -0.196226  0.000000
  3H   2pz        0.000000 -0.000000  0.424363  0.000003 -0.000000 -0.662124
  3H   2px       -0.121214  0.380663 -0.000000 -0.000000 -0.083260 -0.000000
  3H   2py       -0.285457 -0.219779  0.000000  0.000000 -0.144213  0.000000
  3H   1dz2       0.183865  0.000001  0.000000  0.000000  0.350828 -0.000000
  3H   1dxz       0.000000  0.000000 -0.044642  0.503843  0.000000 -0.344696
  3H   1dyz       0.000000  0.000000 -0.077321 -0.290892 -0.000000 -0.166616
  3H   1dx2y2    -0.225515 -0.039667 -0.000000 -0.000000  0.002924 -0.000000
  3H   1dxy      -0.010627 -0.022901 -0.000000 -0.000000 -0.005064 -0.000000
                     42        43        44        45        46        47   
                   3.37765   3.37769   3.37769   3.49291   3.78077   3.78077
                   0.00000   0.00000   0.00000   0.00000   0.00000   0.00000
                  --------  --------  --------  --------  --------  --------
  0C   1s        -0.000000  0.000000  0.000000 -0.005314 -0.000000 -0.000000
  0C   2s        -0.000000  0.000000  0.000000  0.019271 -0.000000 -0.000000
  0C   1pz       -0.000000  0.000000  0.000000 -0.000000 -0.000000 -0.000000
  0C   1px        0.000000  0.167098  0.000000 -0.000000  0.000001  1.043031
  0C   1py       -0.000000  0.000000 -0.167097  0.000000  1.043030 -0.000001
  0C   3s         0.000000 -0.000001 -0.000000 -0.593912  0.000000  0.000004
  0C   2pz       -0.000000 -0.000000 -0.000000  0.000000  0.000000  0.000000
  0C   2px        0.000000  0.162466  0.000000 -0.000001 -0.000005 -4.437857
  0C   2py       -0.000000  0.000000 -0.162467 -0.000000 -4.437861  0.000005
  0C   4s         0.000000 -0.000004 -0.000000 -1.000149  0.000000  0.000001
  0C   3pz        0.000000 -0.000000 -0.000000 -0.000000 -0.000000  0.000000
  0C   3px        0.000000  0.716705  0.000000 -0.000001 -0.000002 -2.026277
  0C   3py       -0.000000  0.000000 -0.716706 -0.000000 -2.026278  0.000002
  0C   1dz2       0.000000 -0.000000 -0.000000  0.620263 -0.000000 -0.000000
  0C   1dxz      -0.676654  0.000000  0.000000  0.000000  0.000000  0.000000
  0C   1dyz       0.000000  0.000000  0.000000  0.000000  0.000000  0.000000
  0C   1dx2y2    -0.000000 -0.626165 -0.000000  0.000001 -0.000000 -0.342924
  0C   1dxy      -0.000000  0.000000 -0.626166  0.000000  0.342924 -0.000000
  0C   2dz2      -0.000000  0.000002  0.000000  0.073205  0.000000  0.000000
  0C   2dxz       1.309166 -0.000000 -0.000000 -0.000000 -0.000000 -0.000000
  0C   2dyz      -0.000000 -0.000000 -0.000000 -0.000000 -0.000000  0.000000
  0C   2dx2y2     0.000000  1.949087  0.000000 -0.000002 -0.000002 -1.406451
  0C   2dxy       0.000000 -0.000000  1.949089  0.000000  1.406449 -0.000002
  0C   1f0       -0.000001  0.000000  0.000000  0.000000  0.000000 -0.000000
  0C   1f+1      -0.000000 -0.534505 -0.000000  0.000001  0.000000  0.236293
  0C   1f-1       0.000000 -0.000000  0.534505  0.000000  0.236293 -0.000000
  0C   1f+2       0.607377 -0.000000 -0.000000 -0.000000  0.000000  0.000000
  0C   1f-2       0.000000  0.000000  0.000000  0.000000 -0.000000 -0.000000
  0C   1f+3      -0.000000  0.000001  0.000000  0.039178  0.000000  0.000000
  0C   1f-3       0.000000  0.000000  0.000000  0.000000 -0.000001  0.000000
  1H   1s        -0.000000 -0.457551 -0.000000  0.241986  0.000000  0.059235
  1H   2s        -0.000000 -1.080169 -0.000000  0.139367  0.000005  4.363009
  1H   3s        -0.000000 -0.175897 -0.000000  0.254369  0.000001  1.095268
  1H   1pz       -0.120484  0.000000  0.000000  0.000000  0.000000  0.000000
  1H   1px        0.000000  0.306943  0.000000  0.297673  0.000000  0.332239
  1H   1py       -0.000000  0.000000 -0.185551 -0.000000 -0.162028  0.000000
  1H   2pz       -0.764555  0.000000  0.000000  0.000000 -0.000000 -0.000000
  1H   2px       -0.000000 -0.057788 -0.000000 -0.426197 -0.000003 -2.771651
  1H   2py       -0.000000  0.000000 -0.610570  0.000000  0.153886 -0.000000
  1H   1dz2      -0.000000 -0.012069 -0.000000 -0.403194 -0.000000 -0.312004
  1H   1dxz       0.365626 -0.000000 -0.000000 -0.000000  0.000000  0.000000
  1H   1dyz       0.000000  0.000000  0.000000  0.000000  0.000000  0.000000
  1H   1dx2y2    -0.000000 -0.255330 -0.000000 -0.031011  0.000001  0.672969
  1H   1dxy       0.000000 -0.000000  0.271102 -0.000000 -0.040760  0.000000
  2H   1s         0.000000  0.228777  0.396252  0.241985  0.051300 -0.029618
  2H   2s         0.000000  0.540087  0.935457  0.139366  3.778477 -2.181510
  2H   3s         0.000000  0.087949  0.152331  0.254369  0.948529 -0.547635
  2H   1pz        0.060242  0.000000 -0.000000  0.000000  0.000000 -0.000000
  2H   1px        0.000000  0.215899  0.052564 -0.148837 -0.214024 -0.038461
  2H   1py       -0.000000 -0.052564 -0.276595  0.257793  0.208671 -0.214024
  2H   2pz        0.382277  0.000000 -0.000000 -0.000000 -0.000000 -0.000000
  2H   2px        0.000000  0.443480 -0.289408  0.213098  1.266794 -0.577499
  2H   2py        0.000000  0.289407 -0.109302 -0.369097 -2.040267  1.266798
  2H   1dz2       0.000000  0.006034  0.010452 -0.403193 -0.270203  0.156003
  2H   1dxz      -0.231409  0.000000  0.000000  0.000000  0.000000  0.000000
  2H   1dyz      -0.344699  0.000000  0.000000  0.000000  0.000000  0.000000
  2H   1dx2y2    -0.000000  0.139494 -0.227952  0.015506 -0.273754  0.198813
  2H   1dxy      -0.000000 -0.227951 -0.123721  0.026857 -0.514917  0.273755
  3H   1s        -0.000000  0.228777 -0.396252  0.241985 -0.051300 -0.029618
  3H   2s        -0.000000  0.540087 -0.935456  0.139366 -3.778482 -2.181502
  3H   3s        -0.000000  0.087949 -0.152331  0.254369 -0.948531 -0.547633
  3H   1pz        0.060242 -0.000000 -0.000000 -0.000000 -0.000000 -0.000000
  3H   1px        0.000000  0.215899 -0.052564 -0.148837  0.214023 -0.038462
  3H   1py       -0.000000  0.052564 -0.276595 -0.257793  0.208672  0.214023
  3H   2pz        0.382277 -0.000000 -0.000000 -0.000000  0.000000  0.000000
  3H   2px        0.000000  0.443480  0.289408  0.213098 -1.266796 -0.577497
  3H   2py       -0.000000 -0.289407 -0.109302  0.369097 -2.040270 -1.266793
  3H   1dz2       0.000000  0.006034 -0.010452 -0.403193  0.270204  0.156002
  3H   1dxz      -0.231409 -0.000000  0.000000  0.000000  0.000000  0.000000
  3H   1dyz       0.344699 -0.000000 -0.000000 -0.000000  0.000000 -0.000000
  3H   1dx2y2     0.000000  0.139494  0.227952  0.015506  0.273755  0.198813
  3H   1dxy       0.000000  0.227951 -0.123721 -0.026857 -0.514918 -0.273754
                     48        49        50        51        52        53   
                   3.88078   3.88078   3.92859   3.92859   4.05392   4.09675
                   0.00000   0.00000   0.00000   0.00000   0.00000   0.00000
                  --------  --------  --------  --------  --------  --------
  0C   1s         0.000000  0.000000  0.000000 -0.000000 -0.000000 -0.004035
  0C   2s        -0.000000  0.000000  0.000000  0.000000  0.000000 -0.112832
  0C   1pz       -0.000000 -0.000000 -0.000000  0.000000  0.000000  0.000000
  0C   1px        0.000000 -0.000000 -0.428796 -0.000000 -0.000000 -0.000001
  0C   1py        0.000000 -0.000000 -0.000000  0.428797 -0.000000  0.000000
  0C   3s         0.000000 -0.000000 -0.000001 -0.000000 -0.000000  1.834024
  0C   2pz        0.000001  0.000000 -0.000000 -0.000000 -0.000000 -0.000000
  0C   2px       -0.000000  0.000000  1.159828  0.000000  0.000000  0.000002
  0C   2py       -0.000000  0.000000  0.000000 -1.159829  0.000001 -0.000000
  0C   4s        -0.000000  0.000000 -0.000001  0.000000  0.000000  0.816423
  0C   3pz        0.000000  0.000000 -0.000000 -0.000000 -0.000000 -0.000000
  0C   3px       -0.000000  0.000000  0.301141  0.000000  0.000000 -0.000001
  0C   3py       -0.000000  0.000000  0.000000 -0.301140 -0.000000 -0.000000
  0C   1dz2       0.000000 -0.000000 -0.000000 -0.000000  0.000000 -0.054253
  0C   1dxz       0.161999  0.000000 -0.000000  0.000000 -0.000000 -0.000000
  0C   1dyz       0.000000 -0.161999  0.000000 -0.000000 -0.000000 -0.000000
  0C   1dx2y2    -0.000000 -0.000000 -0.300168 -0.000000 -0.000000 -0.000000
  0C   1dxy       0.000000 -0.000000  0.000000 -0.300168 -0.000000  0.000000
  0C   2dz2       0.000000 -0.000000  0.000000  0.000000 -0.000000  0.089786
  0C   2dxz      -0.368994 -0.000000  0.000000 -0.000000  0.000000  0.000000
  0C   2dyz      -0.000000  0.368995 -0.000000 -0.000000  0.000000  0.000000
  0C   2dx2y2    -0.000000  0.000000  1.237607  0.000000  0.000000  0.000001
  0C   2dxy       0.000000 -0.000000 -0.000000  1.237606 -0.000002 -0.000000
  0C   1f0       -0.000000 -0.000000 -0.000000  0.000000 -0.000000  0.000000
  0C   1f+1       0.000000  0.000000  0.637535  0.000000  0.000000 -0.000000
  0C   1f-1       0.000000 -0.000000  0.000000 -0.637536  0.000000  0.000000
  0C   1f+2      -0.713408 -0.000000  0.000000 -0.000000  0.000000  0.000000
  0C   1f-2       0.000000 -0.713408  0.000000  0.000000 -0.000000 -0.000000
  0C   1f+3       0.000000  0.000000  0.000000  0.000000  0.000000 -0.559680
  0C   1f-3      -0.000000  0.000000  0.000000 -0.000000 -0.732194 -0.000000
  1H   1s         0.000000  0.000000  0.232632  0.000000  0.000000 -0.196717
  1H   2s         0.000000 -0.000000 -1.638800 -0.000000 -0.000000 -0.432187
  1H   3s         0.000000 -0.000000  0.100232  0.000000 -0.000000 -0.216536
  1H   1pz       -0.557428 -0.000000  0.000000 -0.000000 -0.000000 -0.000000
  1H   1px        0.000000  0.000000  0.197983  0.000000  0.000000 -0.213885
  1H   1py       -0.000000  0.000000 -0.000000  0.132337  0.298080  0.000000
[...]
 ===============================================================================
    None exceeding thresholds


 NATURAL BOND ORBITALS (Summary):

           NBO                 Occupancy
 ========================================
 Molecular unit  1  (CH3)
 ------ Lewis ---------------------------
    1. CR ( 1) C  1             0.99954
    2. BD ( 1) C  1- H  2       0.98551
    3. BD ( 1) C  1- H  3       0.98551
    4. BD ( 1) C  1- H  4       0.98551
 ------ non-Lewis -----------------------
    5. LV ( 1) C  1             0.00354
    6. BD*( 1) C  1- H  2       0.00593
    7. BD*( 1) C  1- H  3       0.00593
    8. BD*( 1) C  1- H  4       0.00593
    9. RY ( 1) C  1             0.00295
   10. RY ( 2) C  1             0.00295
   11. RY ( 3) C  1             0.00146
   12. RY ( 4) C  1             0.00123
   13. RY ( 5) C  1             0.00123
   14. RY ( 6) C  1             0.00068
   15. RY ( 7) C  1             0.00068
   16. RY ( 8) C  1             0.00031
   17. RY ( 9) C  1             0.00027
   18. RY (10) C  1             0.00022
   19. RY (11) C  1             0.00017
   20. RY (12) C  1             0.00014
   21. RY (13) C  1             0.00014
   22. RY (14) C  1             0.00014
   23. RY (15) C  1             0.00014
   24. RY (16) C  1             0.00014
   25. RY (17) C  1             0.00009
   26. RY (18) C  1             0.00009
   27. RY (19) C  1             0.00008
   28. RY (20) C  1             0.00006
   29. RY (21) C  1             0.00006
   30. RY (22) C  1             0.00005
   31. RY (23) C  1             0.00004
   32. RY (24) C  1             0.00004
   33. RY (25) C  1             0.00002
   34. RY ( 1) H  2             0.00130
   35. RY ( 2) H  2             0.00056
   36. RY ( 3) H  2             0.00052
   37. RY ( 4) H  2             0.00033
   38. RY ( 5) H  2             0.00009
   39. RY ( 6) H  2             0.00006
   40. RY ( 7) H  2             0.00004
   41. RY ( 8) H  2             0.00004
   42. RY ( 9) H  2             0.00004
   43. RY (10) H  2             0.00003
   44. RY (11) H  2             0.00003
   45. RY (12) H  2             0.00002
   46. RY (13) H  2             0.00001
   47. RY ( 1) H  3             0.00130
   48. RY ( 2) H  3             0.00056
   49. RY ( 3) H  3             0.00052
   50. RY ( 4) H  3             0.00033
   51. RY ( 5) H  3             0.00009
   52. RY ( 6) H  3             0.00006
   53. RY ( 7) H  3             0.00004
   54. RY ( 8) H  3             0.00004
   55. RY ( 9) H  3             0.00004
   56. RY (10) H  3             0.00003
   57. RY (11) H  3             0.00003
   58. RY (12) H  3             0.00002
   59. RY (13) H  3             0.00001
   60. RY ( 1) H  4             0.00130
   61. RY ( 2) H  4             0.00056
   62. RY ( 3) H  4             0.00052
   63. RY ( 4) H  4             0.00033
   64. RY ( 5) H  4             0.00009
   65. RY ( 6) H  4             0.00006
   66. RY ( 7) H  4             0.00004
   67. RY ( 8) H  4             0.00004
   68. RY ( 9) H  4             0.00004
   69. RY (10) H  4             0.00003
   70. RY (11) H  4             0.00003
   71. RY (12) H  4             0.00002
   72. RY (13) H  4             0.00001
          -------------------------------
                 Total Lewis    3.95608  ( 98.9019%)
           Valence non-Lewis    0.02132  (  0.5330%)
           Rydberg non-Lewis    0.02261  (  0.5651%)
          -------------------------------
               Total unit  1    4.00000  (100.0000%)
              Charge unit  1    0.50000

 $CHOOSE
  ALPHA
   LONE 1 1 END
   BOND S 1 2 S 1 3 S 1 4 END
  END
  BETA
   BOND S 1 2 S 1 3 S 1 4 END
  END
 $END

 NBO analysis completed in 0.12 CPU seconds (1 wall second)
 Maximum scratch memory used by NBO was 437459 words (3.34 MB)
Stopping NBO...Storing NBOs: CH3·.pmp2re.nbo

                                *** returned from   NBO  program ***


----------------------------------
MP2 DERIVATIVE INTEGRAL GENERATION
----------------------------------


Input Wavefunction Amplitudes       ... CH3·.mp2tbb.tmp
Input Correlated Electron Density   ... CH3·.pmp2re
Input Energy Weighted Density       ... CH3·.wmp2.tmp
Input SCF Electron Density          ... CH3·.scfp

One-Electron Terms    ...
                        ... One-Electron Terms done
Prescreening matrices              ... done

Batch handling in the gradient evaluation:
Memory available                      ... 3000.0 MB
Memory per occupied orbital in Q2     ...    0.4 MB
Memory per occupied orbital in Q3     ...    0.0 MB
Total memory requirement per |i>      ...    0.4 MB
Max. Number of orbitals possible      ...   7835
Number of orbitals treated per batch  ...      9
Number of batches to be done          ...      1
Batch   0: i=    0 ...     8

---------------------------------------
MP2 TOTAL ENERGY:      -39.754456837 Eh
---------------------------------------

-----------------------------------
NORM OF THE MP2 GRADIENT:  0.000001
-----------------------------------

-------------------------   --------------------
FINAL SINGLE POINT ENERGY       -39.754456837178
-------------------------   --------------------

                                *** OPTIMIZATION RUN DONE ***

                            ***************************************
                            *     ORCA property calculations      *
                            ***************************************

                                    ---------------------
                                    Active property flags
                                    ---------------------
   (+) Dipole Moment


------------------------------------------------------------------------------
                       ORCA ELECTRIC PROPERTIES CALCULATION
------------------------------------------------------------------------------

Dipole Moment Calculation                       ... on
Quadrupole Moment Calculation                   ... off
Polarizability Calculation                      ... off
GBWName                                         ... CH3·.gbw
Electron density file                           ... CH3·.scfp
The origin for moment calculation is the CENTER OF MASS  = ( 0.000000, -0.000000 -0.000000)

-------------
DIPOLE MOMENT
-------------
                                X             Y             Z
Electronic contribution:     -0.00000      -0.00000      -0.00000
Nuclear contribution   :      0.00000       0.00000       0.00000
                        -----------------------------------------
Total Dipole Moment    :      0.00000       0.00000       0.00000
                        -----------------------------------------
Magnitude (a.u.)       :      0.00000
Magnitude (Debye)      :      0.00000



--------------------
Rotational spectrum 
--------------------
 
Rotational constants in cm-1:     9.682604     9.682600     4.841301 
Rotational constants in MHz : 290277.152273 290277.052032 145138.551076 

 Dipole components along the rotational axes: 
x,y,z [a.u.] :     0.000000    -0.000000     0.000000 
x,y,z [Debye]:     0.000000    -0.000000     0.000000 

 

                         *** MP2 UNRELAXED DENSITY ***

------------------------------------------------------------------------------
                       ORCA ELECTRIC PROPERTIES CALCULATION
------------------------------------------------------------------------------

Dipole Moment Calculation                       ... on
Quadrupole Moment Calculation                   ... off
Polarizability Calculation                      ... off
GBWName                                         ... CH3·.gbw
Electron density file                           ... CH3·.pmp2ur
The origin for moment calculation is the CENTER OF MASS  = ( 0.000000, -0.000000 -0.000000)

-------------
DIPOLE MOMENT
-------------
                                X             Y             Z
Electronic contribution:     -0.00000      -0.00000      -0.00000
Nuclear contribution   :      0.00000       0.00000       0.00000
                        -----------------------------------------
Total Dipole Moment    :      0.00000       0.00000       0.00000
                        -----------------------------------------
Magnitude (a.u.)       :      0.00000
Magnitude (Debye)      :      0.00000



--------------------
Rotational spectrum 
--------------------
 
Rotational constants in cm-1:     9.682604     9.682600     4.841301 
Rotational constants in MHz : 290277.152273 290277.052032 145138.551076 

 Dipole components along the rotational axes: 
x,y,z [a.u.] :     0.000000    -0.000000     0.000000 
x,y,z [Debye]:     0.000000    -0.000000     0.000000 

 

                           *** MP2 RELAXED DENSITY ***

------------------------------------------------------------------------------
                       ORCA ELECTRIC PROPERTIES CALCULATION
------------------------------------------------------------------------------

Dipole Moment Calculation                       ... on
Quadrupole Moment Calculation                   ... off
Polarizability Calculation                      ... off
GBWName                                         ... CH3·.gbw
Electron density file                           ... CH3·.pmp2re
The origin for moment calculation is the CENTER OF MASS  = ( 0.000000, -0.000000 -0.000000)

-------------
DIPOLE MOMENT
-------------
                                X             Y             Z
Electronic contribution:     -0.00000      -0.00000      -0.00000
Nuclear contribution   :      0.00000       0.00000       0.00000
                        -----------------------------------------
Total Dipole Moment    :      0.00000       0.00000       0.00000
                        -----------------------------------------
Magnitude (a.u.)       :      0.00000
Magnitude (Debye)      :      0.00000



--------------------
Rotational spectrum 
--------------------
 
Rotational constants in cm-1:     9.682604     9.682600     4.841301 
Rotational constants in MHz : 290277.152273 290277.052032 145138.551076 

 Dipole components along the rotational axes: 
x,y,z [a.u.] :     0.000000    -0.000000     0.000000 
x,y,z [Debye]:     0.000000    -0.000000     0.000000 

 
------------------------------------------------------------------------------
                         ORCA MP2 H E S S I A N CALCULATION
------------------------------------------------------------------------------

Calculating analytic MP2 second derivatives ... (>CH3·.last_mp2) done

-----------------------
VIBRATIONAL FREQUENCIES
-----------------------

Scaling factor for frequencies =  1.000000000  (already applied!)

   0:         0.00 cm**-1
   1:         0.00 cm**-1
   2:         0.00 cm**-1
   3:         0.00 cm**-1
   4:         0.00 cm**-1
   5:         0.00 cm**-1
   6:       477.09 cm**-1
   7:      1446.38 cm**-1
   8:      1446.41 cm**-1
   9:      3186.70 cm**-1
  10:      3378.10 cm**-1
  11:      3378.10 cm**-1


------------
NORMAL MODES
------------

These modes are the Cartesian displacements weighted by the diagonal matrix
M(i,i)=1/sqrt(m[i]) where m[i] is the mass of the displaced atom
Thus, these vectors are normalized but *not* orthogonal

                  0          1          2          3          4          5    
      0       0.000000   0.000000   0.000000   0.000000   0.000000   0.000000
      1       0.000000   0.000000   0.000000   0.000000   0.000000   0.000000
      2       0.000000   0.000000   0.000000   0.000000   0.000000   0.000000
      3       0.000000   0.000000   0.000000   0.000000   0.000000   0.000000
      4       0.000000   0.000000   0.000000   0.000000   0.000000   0.000000
      5       0.000000   0.000000   0.000000   0.000000   0.000000   0.000000
      6       0.000000   0.000000   0.000000   0.000000   0.000000   0.000000
      7       0.000000   0.000000   0.000000   0.000000   0.000000   0.000000
      8       0.000000   0.000000   0.000000   0.000000   0.000000   0.000000
      9       0.000000   0.000000   0.000000   0.000000   0.000000   0.000000
     10       0.000000   0.000000   0.000000   0.000000   0.000000   0.000000
     11       0.000000   0.000000   0.000000   0.000000   0.000000   0.000000
                  6          7          8          9         10         11    
      0      -0.000000   0.092345   0.000031  -0.000001   0.100383   0.000224
      1       0.000000  -0.000031   0.092345   0.000000   0.000224  -0.100382
      2       0.143847   0.000000  -0.000000  -0.000000  -0.000000  -0.000000
      3       0.000000   0.075892   0.000026   0.577357  -0.812230  -0.001815
      4      -0.000000   0.000275  -0.809458   0.000000   0.000033  -0.014822
      5      -0.571346  -0.000000   0.000000   0.000000   0.000000   0.000000
      6       0.000000  -0.587989  -0.383566  -0.288675  -0.191148  -0.358555
      7       0.000000  -0.383320  -0.145579   0.499996   0.356776   0.606271
      8      -0.571346  -0.000000  -0.000000   0.000000   0.000000   0.000000
      9       0.000000  -0.588250   0.383166  -0.288675  -0.192749   0.357697
     10      -0.000000   0.383419  -0.145318  -0.499996  -0.359482   0.604671
     11      -0.571346  -0.000000   0.000000   0.000000   0.000000  -0.000000


-----------
IR SPECTRUM
-----------

 Mode    freq (cm**-1)   T**2         TX         TY         TZ
-------------------------------------------------------------------
   6:       477.09   71.735530  ( -0.000000   0.000000  -8.469683)
   7:      1446.38    2.471975  ( -1.572251   0.000535  -0.000000)
   8:      1446.41    2.476658  ( -0.000534  -1.573740   0.000000)
   9:      3186.70    0.000000  (  0.000017   0.000000   0.000000)
  10:      3378.10    2.070410  (  1.438888   0.003215   0.000000)
  11:      3378.10    2.069867  (  0.003216  -1.438700  -0.000000)

The first frequency considered to be a vibration is 6
The total number of vibrations considered is 6


--------------------------
THERMOCHEMISTRY AT 298.15K
--------------------------

Temperature         ... 298.15 K
Pressure            ... 1.00 atm
Total Mass          ... 15.03 AMU

Throughout the following assumptions are being made:
  (1) The electronic state is orbitally nondegenerate
      but the spin degeneracy is treated
  (2) There are no thermally accessible electronically excited states
  (3) Hindered rotations indicated by low frequency modes are not
      treated as such but are treated as vibrations and this may
      cause some error
  (4) All equations used are the standard statistical mechanics
      equations for an ideal gas
  (5) All vibrations are strictly harmonic

freq.     477.09  E(vib)   ...       0.15 
freq.    1446.38  E(vib)   ...       0.00 
freq.    1446.41  E(vib)   ...       0.00 
freq.    3186.70  E(vib)   ...       0.00 
freq.    3378.10  E(vib)   ...       0.00 
freq.    3378.10  E(vib)   ...       0.00 

------------
INNER ENERGY
------------

The inner energy is: U= E(el) + E(ZPE) + E(vib) + E(rot) + E(trans)
    E(el)   - is the total energy from the electronic structure calculation
              = E(kin-el) + E(nuc-el) + E(el-el) + E(nuc-nuc)
    E(ZPE)  - the the zero temperature vibrational energy from the frequency calculation
    E(vib)  - the the finite temperature correction to E(ZPE) due to population
              of excited vibrational states
    E(rot)  - is the rotational thermal energy
    E(trans)- is the translational thermal energy

Summary of contributions to the inner energy U:
Electronic energy                ...    -39.75445684 Eh
Zero point energy                ...      0.03032871 Eh      19.03 kcal/mol
Thermal vibrational correction   ...      0.00025391 Eh       0.16 kcal/mol
Thermal rotational correction    ...      0.00141627 Eh       0.89 kcal/mol
Thermal translational correction ...      0.00141627 Eh       0.89 kcal/mol
-----------------------------------------------------------------------
Total thermal energy                    -39.72104167 Eh


Summary of corrections to the electronic energy:
(perhaps to be used in another calculation)
Total thermal correction                  0.00308646 Eh       1.94 kcal/mol
Non-thermal (ZPE) correction              0.03032871 Eh      19.03 kcal/mol
-----------------------------------------------------------------------
Total correction                          0.03341517 Eh      20.97 kcal/mol


--------
ENTHALPY
--------

The enthalpy is H = U + kB*T
                kB is Boltzmann's constant
Total free energy                 ...    -39.72104167 Eh 
Thermal Enthalpy correction       ...      0.00094421 Eh       0.59 kcal/mol
-----------------------------------------------------------------------
Total Enthalpy                    ...    -39.72009746 Eh


Note: Rotational entropy computed according to Herzberg 
Infrared and Raman Spectra, Chapter V,1, Van Nostrand Reinhold, 1945 
Point Group:  D3h, Symmetry Number:   6  
Rotational constants in cm-1:     9.682604     9.682600     4.841301 

Vibrational entropy computed according to the QRRHO of S. Grimme
Chem.Eur.J. 2012 18 9955


-------
ENTROPY
-------

The entropy contributions are T*S = T*(S(el)+S(vib)+S(rot)+S(trans))
     S(el)   - electronic entropy
     S(vib)  - vibrational entropy
     S(rot)  - rotational entropy
     S(trans)- translational entropy
The entropies will be listed as mutliplied by the temperature to get
units of energy

Electronic entropy                ...      0.00065446 Eh      0.41 kcal/mol
Vibrational entropy               ...      0.00035572 Eh      0.22 kcal/mol
Rotational entropy                ...      0.00493089 Eh      3.09 kcal/mol
Translational entropy             ...      0.01618771 Eh     10.16 kcal/mol
-----------------------------------------------------------------------
Final entropy term                ...      0.02212877 Eh     13.89 kcal/mol

In case the symmetry of your molecule has not been determined correctly
or in case you have a reason to use a different symmetry number we print 
out the resulting rotational entropy values for sn=1,12 :
 --------------------------------------------------------
|  sn= 1 | S(rot)=       0.00662263 Eh      4.16 kcal/mol|
|  sn= 2 | S(rot)=       0.00596818 Eh      3.75 kcal/mol|
|  sn= 3 | S(rot)=       0.00558535 Eh      3.50 kcal/mol|
|  sn= 4 | S(rot)=       0.00531372 Eh      3.33 kcal/mol|
|  sn= 5 | S(rot)=       0.00510303 Eh      3.20 kcal/mol|
|  sn= 6 | S(rot)=       0.00493089 Eh      3.09 kcal/mol|
|  sn= 7 | S(rot)=       0.00478534 Eh      3.00 kcal/mol|
|  sn= 8 | S(rot)=       0.00465926 Eh      2.92 kcal/mol|
|  sn= 9 | S(rot)=       0.00454806 Eh      2.85 kcal/mol|
|  sn=10 | S(rot)=       0.00444858 Eh      2.79 kcal/mol|
|  sn=11 | S(rot)=       0.00435859 Eh      2.74 kcal/mol|
|  sn=12 | S(rot)=       0.00427643 Eh      2.68 kcal/mol|
 --------------------------------------------------------


-------------------
GIBBS FREE ENERGY
-------------------

The Gibbs free energy is G = H - T*S

Total enthalpy                    ...    -39.72009746 Eh 
Total entropy correction          ...     -0.02212877 Eh    -13.89 kcal/mol
-----------------------------------------------------------------------
Final Gibbs free energy         ...    -39.74222623 Eh

For completeness - the Gibbs free energy minus the electronic energy
G-E(el)                           ...      0.01223061 Eh      7.67 kcal/mol


Timings for individual modules:

Sum of individual times         ...       98.349 sec (=   1.639 min)
GTO integral calculation        ...        3.885 sec (=   0.065 min)   4.0 %
SCF iterations                  ...       14.254 sec (=   0.238 min)  14.5 %
MP2 module                      ...       22.551 sec (=   0.376 min)  22.9 %
Geometry relaxation             ...        0.049 sec (=   0.001 min)   0.1 %
Analytical frequency calculation...       57.610 sec (=   0.960 min)  58.6 %
                             ****ORCA TERMINATED NORMALLY****
TOTAL RUN TIME: 0 days 0 hours 1 minutes 39 seconds 239 msec
