
                                 *****************
                                 * O   R   C   A *
                                 *****************

           --- An Ab Initio, DFT and Semiempirical electronic structure package ---

                  #######################################################
                  #                        -***-                        #
                  #          Department of theory and spectroscopy      #
                  #               Directorship: Frank Neese             #
                  #        Max Planck Institute fuer Kohlenforschung    #
                  #                Kaiser Wilhelm Platz 1               #
                  #                 D-45470 Muelheim/Ruhr               #
                  #                      Germany                        #
                  #                                                     #
                  #                  All rights reserved                #
                  #                        -***-                        #
                  #######################################################


                         Program Version 4.2.1 -  RELEASE  -


 With contributions from (in alphabetic order):
   Daniel Aravena         : Magnetic Suceptibility
   Michael Atanasov       : Ab Initio Ligand Field Theory (pilot matlab implementation)
   Alexander A. Auer      : GIAO ZORA, VPT2
   Ute Becker             : Parallelization
   Giovanni Bistoni       : ED, misc. LED, open-shell LED, HFLD
   Martin Brehm           : Molecular dynamics
   Dmytro Bykov           : SCF Hessian
   Vijay G. Chilkuri      : MRCI spin determinant printing, contributions to CSF-ICE
   Dipayan Datta          : RHF DLPNO-CCSD density
   Achintya Kumar Dutta   : EOM-CC, STEOM-CC
   Dmitry Ganyushin       : Spin-Orbit,Spin-Spin,Magnetic field MRCI
   Miquel Garcia          : C-PCM Hessian, Gaussian charge scheme
   Yang Guo               : DLPNO-NEVPT2, CIM, IAO-localization
   Andreas Hansen         : Spin unrestricted coupled pair/coupled cluster methods
   Benjamin Helmich-Paris : CASSCF linear response (MC-RPA)
   Lee Huntington         : MR-EOM, pCC
   Robert Izsak           : Overlap fitted RIJCOSX, COSX-SCS-MP3, EOM
   Christian Kollmar      : KDIIS, OOCD, Brueckner-CCSD(T), CCSD density
   Simone Kossmann        : Meta GGA functionals, TD-DFT gradient, OOMP2, MP2 Hessian
   Martin Krupicka        : AUTO-CI
   Lucas Lang             : DCDCAS
   Dagmar Lenk            : GEPOL surface, SMD
   Dimitrios Liakos       : Extrapolation schemes; Compound Job, initial MDCI parallelization
   Dimitrios Manganas     : Further ROCIS development; embedding schemes
   Dimitrios Pantazis     : SARC Basis sets
   Taras Petrenko         : DFT Hessian,TD-DFT gradient, ASA, ECA, R-Raman, ABS, FL, XAS/XES, NRVS
   Peter Pinski           : DLPNO-MP2, DLPNO-MP2 Gradient
   Christoph Reimann      : Effective Core Potentials
   Marius Retegan         : Local ZFS, SOC
   Christoph Riplinger    : Optimizer, TS searches, QM/MM, DLPNO-CCSD(T), (RO)-DLPNO pert. Triples
   Tobias Risthaus        : Range-separated hybrids, TD-DFT gradient, RPA, STAB
   Michael Roemelt        : Original ROCIS implementation
   Masaaki Saitow         : Open-shell DLPNO-CCSD energy and density
   Barbara Sandhoefer     : DKH picture change effects
   Avijit Sen             : IP-ROCIS
   Kantharuban Sivalingam : CASSCF convergence, NEVPT2, FIC-MRCI
   Bernardo de Souza      : ESD, SOC TD-DFT
   Georgi Stoychev        : AutoAux, RI-MP2 NMR
   Willem Van den Heuvel  : Paramagnetic NMR
   Boris Wezisla          : Elementary symmetry handling
   Frank Wennmohs         : Technical directorship


 We gratefully acknowledge several colleagues who have allowed us to
 interface, adapt or use parts of their codes:
   Stefan Grimme, W. Hujo, H. Kruse,             : VdW corrections, initial TS optimization,
                  C. Bannwarth                     DFT functionals, gCP, sTDA/sTD-DF
   Ed Valeev, F. Pavosevic, A. Kumar             : LibInt (2-el integral package), F12 methods
   Garnet Chan, S. Sharma, J. Yang, R. Olivares  : DMRG
   Ulf Ekstrom                                   : XCFun DFT Library
   Mihaly Kallay                                 : mrcc  (arbitrary order and MRCC methods)
   Andreas Klamt, Michael Diedenhofen            : otool_cosmo (COSMO solvation model)
   Jiri Pittner, Ondrej Demel                    : Mk-CCSD
   Frank Weinhold                                : gennbo (NPA and NBO analysis)
   Christopher J. Cramer and Donald G. Truhlar   : smd solvation model
   Lars Goerigk                                  : TD-DFT with DH, B97 family of functionals
   V. Asgeirsson, H. Jonsson                     : NEB implementation
   FAccTs GmbH                                   : IRC, NEB, NEB-TS, Multilevel, MM, QM/MM, CI optimization
   S Lehtola, MJT Oliveira, MAL Marques          : LibXC Library


 Your calculation uses the libint2 library for the computation of 2-el integrals
 For citations please refer to: http://libint.valeyev.net

 Your ORCA version has been built with support for libXC version: 4.2.3
 For citations please refer to: https://tddft.org/programs/libxc/

 This ORCA versions uses:
   CBLAS   interface :  Fast vector & matrix operations
   LAPACKE interface :  Fast linear algebra routines
   SCALAPACK package :  Parallel linear algebra routines


----- Orbital basis set information -----
Your calculation utilizes the basis: 6-311G(2df,2pd)
   H, Li - Ne  : R. Krishnan, J. S. Binkley, R. Seeger and J. A. Pople, J. Chem. Phys. 72, 650 (1980).
   Na - Ar     : A. D. McLean and G. S. Chandler J. Chem. Phys. 72, 5639, (1980).
   K  - Ca     : J.-P. Blaudeau, M. P. McGrath, L. A. Curtiss and L. Radom, J. Chem. Phys. 107, 5016 (1997).
   Ga - Kr     : L. A. Curtiss, M. P. McGrath, J.-P. Blandeau, N. E. Davis, R. C. Binning and L. Radom, J. Chem. Phys. 103, 6104 (1995).
   Pol./Diff.
   H, Li - Cl  : T. Clark, J. Chandrasekhar and P. v. R. Schleyer, J. Comp. Chem. 4, 294 (1983).
   H - Ne      : M. J. Frisch, J. A. Pople and J. S. Binkley, J. Chem. Phys. 80, 3265 (1984).

================================================================================
                                        WARNINGS
                       Please study these warnings very carefully!
================================================================================


WARNING: No MP2 level density has been requested!
         To caclulate MP2 level properties use
         %mp2 Density relaxed end
         or
         %mp2 Density unrelaxed end

WARNING: Post HF methods need fully converged wavefunctions
  ===> : Setting SCFConvForced true
         You can overwrite this default with %scf ConvForced false 


INFO   : the flag for use of LIBINT has been found!

================================================================================
                                       INPUT FILE
================================================================================
NAME = Cl·.inp
|  1> ! UHF MP2 6-311G(2df,2pd) Freq NoFrozenCore TightSCF Grid4 FinalGrid5 PrintBasis PrintMOs NBO
|  2> %maxcore 3000
|  3> 
|  4> *xyz 0 2
|  5> Cl       0.000000000      0.000000000      0.000000000
|  6> *
|  7> 
|  8> %pal
|  9>  nprocs 12
| 10> end
| 11> 
| 12>                          ****END OF INPUT****
================================================================================

                       ****************************
                       * Single Point Calculation *
                       ****************************

---------------------------------
CARTESIAN COORDINATES (ANGSTROEM)
---------------------------------
  Cl     0.000000    0.000000    0.000000

----------------------------
CARTESIAN COORDINATES (A.U.)
----------------------------
  NO LB      ZA    FRAG     MASS         X           Y           Z
   0 Cl   17.0000    0    35.453    0.000000    0.000000    0.000000

--------------------------------
INTERNAL COORDINATES (ANGSTROEM)
--------------------------------
 Cl     0   0   0     0.000000000000     0.00000000     0.00000000

---------------------------
INTERNAL COORDINATES (A.U.)
---------------------------
 Cl     0   0   0     0.000000000000     0.00000000     0.00000000

---------------------
BASIS SET INFORMATION
---------------------
There are 1 groups of distinct atoms

 Group   1 Type Cl  : 13s10p2d1f contracted to 6s5p2d1f pattern {631111/52111/11/1}

Atom   0Cl   basis set group =>   1

-------------------------
BASIS SET IN INPUT FORMAT
-------------------------

 # Basis set for element : Cl
 NewGTO Cl
 S 6 
   1  105819.0000000000      0.0007380002
   2   15872.0000000000      0.0057180019
   3    3619.6500000000      0.0294950099
   4    1030.8000000000      0.1172860392
   5     339.9080000000      0.3629491212
   6     124.5380000000      0.5841491951
 S 3 
   1     124.5380000000      0.1341769734
   2      49.5135000000      0.6242498762
   3      20.8056000000      0.2917559421
 S 1 
   1       6.5834600000      1.0000000000
 S 1 
   1       2.5646800000      1.0000000000
 S 1 
   1       0.5597630000      1.0000000000
 S 1 
   1       0.1832730000      1.0000000000
 P 5 
   1     589.7760000000      0.0023909997
   2     139.8490000000      0.0185039976
   3      45.1413000000      0.0813769893
   4      16.8733000000      0.2215519708
   5       6.7411000000      0.7725688983
 P 2 
   1       6.7411000000     -1.5722438126
   2       2.7715200000      0.9923888817
 P 1 
   1       1.0238700000      1.0000000000
 P 1 
   1       0.3813680000      1.0000000000
 P 1 
   1       0.1094370000      1.0000000000
 D 1 
   1       1.5000000000      1.0000000000
 D 1 
   1       0.3750000000      1.0000000000
 F 1 
   1       0.7000000000      1.0000000000
  end;



           ************************************************************
           *        Program running with 12 parallel MPI-processes    *
           *              working on a common directory               *
           ************************************************************
------------------------------------------------------------------------------
                           ORCA GTO INTEGRAL CALCULATION
------------------------------------------------------------------------------

                         BASIS SET STATISTICS AND STARTUP INFO

 # of primitive gaussian shells          ...   26
 # of primitive gaussian functions       ...   60
 # of contracted shells                  ...   14
 # of contracted basis functions         ...   38
 Highest angular momentum                ...    3
 Maximum contraction depth               ...    6
 Integral package used                   ... LIBINT
 Integral threshhold            Thresh   ...  2.500e-11
 Primitive cut-off              TCut     ...  2.500e-12


------------------------------ INTEGRAL EVALUATION ----------------------------


 * One electron integrals 
 Pre-screening matrix                    ... done
 Shell pair data                         ... done (   0.000 sec)



           ************************************************************
           *        Program running with 12 parallel MPI-processes    *
           *              working on a common directory               *
           ************************************************************
-------------------------------------------------------------------------------
                                 ORCA SCF
-------------------------------------------------------------------------------

------------
SCF SETTINGS
------------
Hamiltonian:
 Ab initio Hamiltonian  Method          .... Hartree-Fock(GTOs)


General Settings:
 Integral files         IntName         .... Cl·
 Hartree-Fock type      HFTyp           .... UHF
 Total Charge           Charge          ....    0
 Multiplicity           Mult            ....    2
 Number of Electrons    NEL             ....   17
 Basis Dimension        Dim             ....   38
 Nuclear Repulsion      ENuc            ....      0.0000000000 Eh

Convergence Acceleration:
 DIIS                   CNVDIIS         .... on
   Start iteration      DIISMaxIt       ....    12
   Startup error        DIISStart       ....  0.200000
   # of expansion vecs  DIISMaxEq       ....     5
   Bias factor          DIISBfac        ....   1.050
   Max. coefficient     DIISMaxC        ....  10.000
 Newton-Raphson         CNVNR           .... off
 SOSCF                  CNVSOSCF        .... off
 Level Shifting         CNVShift        .... on
   Level shift para.    LevelShift      ....    0.2500
   Turn off err/grad.   ShiftErr        ....    0.0010
 Zerner damping         CNVZerner       .... off
 Static damping         CNVDamp         .... on
   Fraction old density DampFac         ....    0.7000
   Max. Damping (<1)    DampMax         ....    0.9800
   Min. Damping (>=0)   DampMin         ....    0.0000
   Turn off err/grad.   DampErr         ....    0.1000
 Fernandez-Rico         CNVRico         .... off

SCF Procedure:
 Maximum # iterations   MaxIter         ....   125
 SCF integral mode      SCFMode         .... Direct
   Integral package                     .... LIBINT
 Reset frequency        DirectResetFreq ....    20
 Integral Threshold     Thresh          ....  2.500e-11 Eh
 Primitive CutOff       TCut            ....  2.500e-12 Eh

Convergence Tolerance:
 Convergence Check Mode ConvCheckMode   .... Total+1el-Energy
 Convergence forced     ConvForced      .... 1
 Energy Change          TolE            ....  1.000e-08 Eh
 1-El. energy change                    ....  1.000e-05 Eh
 DIIS Error             TolErr          ....  5.000e-07


Diagonalization of the overlap matrix:
Smallest eigenvalue                        ... 2.919e-02
Time for diagonalization                   ...    0.001 sec
Threshold for overlap eigenvalues          ... 1.000e-08
Number of eigenvalues below threshold      ... 0
Time for construction of square roots      ...    0.010 sec
Total time needed                          ...    0.011 sec

-------------------
DFT GRID GENERATION
-------------------

General Integration Accuracy     IntAcc      ...  4.670
Radial Grid Type                 RadialGrid  ... Gauss-Chebyshev
Angular Grid (max. acc.)         AngularGrid ... Lebedev-302
Angular grid pruning method      GridPruning ... 3 (G Style)
Weight generation scheme         WeightScheme... Becke
Basis function cutoff            BFCut       ...    1.0000e-11
Integration weight cutoff        WCut        ...    1.0000e-14
Grids for H and He will be reduced by one unit

# of grid points (after initial pruning)     ...   6738 (   0.0 sec)
# of grid points (after weights+screening)   ...   6738 (   0.0 sec)
Grid point division into batches done        ...    0.0 sec
Reduced shell lists constructed in    0.1 sec

Total number of grid points                  ...     6738
Total number of batches                      ...      106
Average number of points per batch           ...       63
Average number of grid points per atom       ...     6738
Average number of shells per batch           ...     1.20 ( 8.57%)
Average number of basis functions per batch  ...     3.00 ( 7.89%)
Average number of large shells per batch     ...     0.90 (75.00%)
Average number of large basis fcns per batch ...     2.70 (90.00%)
Maximum spatial batch extension              ...  25.31, 17.78, 17.78 au
Average spatial batch extension              ...   1.61,  1.30,  1.27 au

Time for grid setup =    0.162 sec

------------------------------
INITIAL GUESS: MODEL POTENTIAL
------------------------------
Loading Hartree-Fock densities                     ... done
Calculating cut-offs                               ... done
Setting up the integral package                    ... done
Initializing the effective Hamiltonian             ... done
Starting the Coulomb interaction                   ... done (   0.0 sec)
Reading the grid                                   ... done
Mapping shells                                     ... done
Starting the XC term evaluation                    ... done (   0.0 sec)
Transforming the Hamiltonian                       ... done (   0.0 sec)
Diagonalizing the Hamiltonian                      ... done (   0.0 sec)
Back transforming the eigenvectors                 ... done (   0.0 sec)
Now organizing SCF variables                       ... done
                      ------------------
                      INITIAL GUESS DONE (   0.4 sec)
                      ------------------
--------------
SCF ITERATIONS
--------------
ITER       Energy         Delta-E        Max-DP      RMS-DP      [F,P]     Damp
               ***  Starting incremental Fock matrix formation  ***
  0   -459.4519435636   0.000000000000 0.01088589  0.00061987  0.6515136 0.7000
  1   -459.4582958468  -0.006352283156 0.00981910  0.00050710  0.4573469 0.7000
  2   -459.4630438465  -0.004747999777 0.00793839  0.00039057  0.3209665 0.7000
  3   -459.4665505819  -0.003506735334 0.00631800  0.00029993  0.2253017 0.7000
                               ***Turning on DIIS***
  4   -459.4691240228  -0.002573440963 0.00501432  0.00023134  0.1581800 0.7000
  5   -459.4612485316   0.007875491218 0.00451430  0.00020153  0.1110752 0.7000
  6   -459.4626274697  -0.001378938082 0.01245240  0.00054564  0.0778747 0.0000
  7   -459.4757747442  -0.013147274547 0.00137383  0.00006654  0.0010999 0.0000
  8   -459.4749769927   0.000797751510 0.00121041  0.00006082  0.0006024 0.0000
  9   -459.4757717361  -0.000794743366 0.00014235  0.00000829  0.0000848 0.0000
 10   -459.4759186183  -0.000146882189 0.00002905  0.00000131  0.0000126 0.0000
 11   -459.4758920926   0.000026525655 0.00000567  0.00000036  0.0000024 0.0000
                            ***DIIS convergence achieved***

               *****************************************************
               *                     SUCCESS                       *
               *           SCF CONVERGED AFTER  12 CYCLES          *
               *****************************************************


----------------
TOTAL SCF ENERGY
----------------

Total Energy       :         -459.47589065 Eh          -12502.97462 eV

Components:
Nuclear Repulsion  :            0.00000000 Eh               0.00000 eV
Electronic Energy  :         -459.47589065 Eh          -12502.97462 eV
One Electron Energy:         -634.79451266 Eh          -17273.63686 eV
Two Electron Energy:          175.31862201 Eh            4770.66224 eV

Virial components:
Potential Energy   :         -918.96063716 Eh          -25006.19023 eV
Kinetic Energy     :          459.48474651 Eh           12503.21560 eV
Virial Ratio       :            1.99998073


---------------
SCF CONVERGENCE
---------------

  Last Energy change         ...    1.4409e-06  Tolerance :   1.0000e-08
  Last MAX-Density change    ...    1.9850e-06  Tolerance :   1.0000e-07
  Last RMS-Density change    ...    1.3305e-07  Tolerance :   5.0000e-09
  Last DIIS Error            ...    3.6835e-07  Tolerance :   5.0000e-07

             **** THE GBW FILE WAS UPDATED (Cl·.gbw) ****
             **** DENSITY FILE WAS UPDATED (Cl·.scfp) ****
             **** ENERGY FILE WAS UPDATED (Cl·.en.tmp) ****
----------------------
UHF SPIN CONTAMINATION
----------------------

Expectation value of <S**2>     :     0.759442
Ideal value S*(S+1) for S=0.5   :     0.750000
Deviation                       :     0.009442

             **** THE GBW FILE WAS UPDATED (Cl·.gbw) ****
             **** DENSITY FILE WAS UPDATED (Cl·.scfp) ****
----------------
ORBITAL ENERGIES
----------------
                 SPIN UP ORBITALS
  NO   OCC          E(Eh)            E(eV) 
   0   1.0000    -104.891901     -2854.2537 
   1   1.0000     -10.615489      -288.8622 
   2   1.0000      -8.101464      -220.4521 
   3   1.0000      -8.076952      -219.7850 
   4   1.0000      -8.076952      -219.7850 
   5   1.0000      -1.138358       -30.9763 
   6   1.0000      -0.583799       -15.8860 
   7   1.0000      -0.505105       -13.7446 
   8   1.0000      -0.505105       -13.7446 
   9   0.0000       0.375896        10.2287 
  10   0.0000       0.406537        11.0624 
  11   0.0000       0.406537        11.0624 
  12   0.0000       0.586702        15.9650 
  13   0.0000       0.599954        16.3256 
  14   0.0000       0.599954        16.3256 
  15   0.0000       0.646917        17.6035 
  16   0.0000       0.646917        17.6035 
  17   0.0000       0.744979        20.2719 
  18   0.0000       2.300974        62.6127 
  19   0.0000       2.308643        62.8214 
  20   0.0000       2.308643        62.8214 
  21   0.0000       2.331051        63.4311 
  22   0.0000       2.331051        63.4311 
  23   0.0000       2.369367        64.4738 
  24   0.0000       2.369367        64.4738 
  25   0.0000       2.372790        64.5669 
  26   0.0000       2.426187        66.0199 
  27   0.0000       2.426187        66.0199 
  28   0.0000       2.654340        72.2283 
  29   0.0000       2.667040        72.5739 
  30   0.0000       2.667040        72.5739 
  31   0.0000       2.707854        73.6844 
  32   0.0000       2.707854        73.6844 
  33   0.0000       9.923847       270.0416 
  34   0.0000      26.131434       711.0725 
  35   0.0000      26.174323       712.2395 
  36   0.0000      26.174323       712.2395 
  37   0.0000     218.715636      5951.5550 

                 SPIN DOWN ORBITALS
  NO   OCC          E(Eh)            E(eV) 
   0   1.0000    -104.880813     -2853.9520 
   1   1.0000     -10.603982      -288.5490 
   2   1.0000      -8.071010      -219.6233 
   3   1.0000      -8.071010      -219.6233 
   4   1.0000      -8.052479      -219.1191 
   5   1.0000      -1.017066       -27.6758 
   6   1.0000      -0.482894       -13.1402 
   7   1.0000      -0.482894       -13.1402 
   8   0.0000      -0.042197        -1.1482 
   9   0.0000       0.412257        11.2181 
  10   0.0000       0.412257        11.2181 
  11   0.0000       0.450798        12.2668 
  12   0.0000       0.651154        17.7188 
  13   0.0000       0.651154        17.7188 
  14   0.0000       0.687643        18.7117 
  15   0.0000       0.687643        18.7117 
  16   0.0000       0.701569        19.0907 
  17   0.0000       0.774188        21.0667 
  18   0.0000       2.362787        64.2947 
  19   0.0000       2.363766        64.3213 
  20   0.0000       2.363766        64.3213 
  21   0.0000       2.366587        64.3981 
  22   0.0000       2.366587        64.3981 
  23   0.0000       2.370446        64.5031 
  24   0.0000       2.370446        64.5031 
  25   0.0000       2.435324        66.2685 
  26   0.0000       2.435324        66.2685 
  27   0.0000       2.454915        66.8016 
  28   0.0000       2.698489        73.4296 
  29   0.0000       2.701779        73.5191 
  30   0.0000       2.701779        73.5191 
  31   0.0000       2.711218        73.7760 
  32   0.0000       2.711218        73.7760 
  33   0.0000       9.942014       270.5360 
  34   0.0000      26.156094       711.7435 
  35   0.0000      26.179079       712.3690 
  36   0.0000      26.179079       712.3690 
  37   0.0000     218.721665      5951.7191 
------------------
MOLECULAR ORBITALS
------------------
                      0         1         2         3         4         5   
                 -104.89190 -10.61549  -8.10146  -8.07695  -8.07695  -1.13836
                   1.00000   1.00000   1.00000   1.00000   1.00000   1.00000
                  --------  --------  --------  --------  --------  --------
  0Cl  1s        -0.411715  0.121997 -0.000000 -0.000000 -0.000000 -0.037152
  0Cl  2s        -0.654659  0.331592 -0.000000 -0.000000 -0.000000 -0.107413
  0Cl  3s        -0.012130 -0.512280  0.000000  0.000000  0.000000  0.211583
  0Cl  4s         0.000914 -0.605576  0.000000 -0.000000 -0.000000  0.430357
  0Cl  5s        -0.000172 -0.040911 -0.000000 -0.000000  0.000000 -0.665850
  0Cl  6s         0.000084  0.007146  0.000000  0.000000 -0.000000 -0.554580
  0Cl  1pz        0.000000  0.000000 -0.010758  0.076746 -1.229104  0.000000
  0Cl  1px       -0.000000  0.000000  1.049191  0.643159  0.030965  0.000000
  0Cl  1py       -0.000000 -0.000000 -0.643438  1.047454  0.071042  0.000000
  0Cl  2pz        0.000000  0.000000 -0.002861  0.020396 -0.326650  0.000000
  0Cl  2px       -0.000000  0.000000  0.279016  0.170928  0.008229  0.000000
  0Cl  2py       -0.000000 -0.000000 -0.171112  0.278374  0.018880  0.000000
  0Cl  3pz       -0.000000 -0.000000 -0.000438  0.003035 -0.048603 -0.000000
  0Cl  3px        0.000000 -0.000000  0.042758  0.025433  0.001224 -0.000000
  0Cl  3py        0.000000  0.000000 -0.026222  0.041420  0.002809 -0.000000
  0Cl  4pz        0.000000  0.000000  0.000017 -0.000116  0.001863  0.000000
  0Cl  4px       -0.000000  0.000000 -0.001651 -0.000975 -0.000047  0.000000
  0Cl  4py       -0.000000 -0.000000  0.001012 -0.001588 -0.000108 -0.000000
  0Cl  5pz       -0.000000 -0.000000 -0.000006  0.000037 -0.000593 -0.000000
  0Cl  5px        0.000000  0.000000  0.000556  0.000310  0.000015 -0.000000
  0Cl  5py        0.000000 -0.000000 -0.000341  0.000505  0.000034  0.000000
  0Cl  1dz2       0.000001  0.000663  0.000000 -0.000000 -0.000000  0.007666
  0Cl  1dxz       0.000000  0.000017  0.000000  0.000000  0.000000  0.000198
  0Cl  1dyz      -0.000000 -0.000011 -0.000000 -0.000000  0.000000 -0.000121
  0Cl  1dx2y2    -0.000000 -0.000521 -0.000000 -0.000000 -0.000000 -0.006021
  0Cl  1dxy       0.000001  0.001024  0.000000 -0.000000  0.000000  0.011837
  0Cl  2dz2      -0.000001 -0.000068 -0.000000  0.000000  0.000000  0.016049
  0Cl  2dxz      -0.000000 -0.000002 -0.000000 -0.000000 -0.000000  0.000414
  0Cl  2dyz       0.000000  0.000001  0.000000  0.000000 -0.000000 -0.000254
  0Cl  2dx2y2     0.000000  0.000053 -0.000000 -0.000000 -0.000000 -0.012605
  0Cl  2dxy      -0.000001 -0.000105 -0.000000 -0.000000 -0.000000  0.024781
  0Cl  1f0        0.000000 -0.000000  0.000007 -0.000016  0.000251 -0.000000
  0Cl  1f+1      -0.000000 -0.000000 -0.000266 -0.000054  0.000005  0.000000
  0Cl  1f-1      -0.000000  0.000000  0.000163 -0.000087 -0.000011 -0.000000
  0Cl  1f+2      -0.000000  0.000000 -0.000004  0.000004 -0.000148  0.000000
  0Cl  1f-2      -0.000000 -0.000000  0.000008 -0.000021  0.000289 -0.000000
  0Cl  1f+3      -0.000000  0.000000  0.000032 -0.000396 -0.000025  0.000000
  0Cl  1f-3       0.000000  0.000000  0.000402  0.000032 -0.000001 -0.000000
                      6         7         8         9        10        11   
                  -0.58380  -0.50511  -0.50511   0.37590   0.40654   0.40654
                   1.00000   1.00000   1.00000   0.00000   0.00000   0.00000
                  --------  --------  --------  --------  --------  --------
  0Cl  1s         0.000000 -0.000000  0.000000  0.000000  0.000000  0.000000
  0Cl  2s         0.000000 -0.000000  0.000000  0.000000  0.000000 -0.000000
  0Cl  3s        -0.000000  0.000000 -0.000000 -0.000000 -0.000000  0.000000
  0Cl  4s        -0.000000  0.000000 -0.000000 -0.000000 -0.000000 -0.000000
  0Cl  5s         0.000000  0.000000  0.000000  0.000000  0.000000  0.000000
  0Cl  6s         0.000000 -0.000000  0.000000  0.000000  0.000000 -0.000000
  0Cl  1pz        0.003066  0.066847  0.335274  0.001574 -0.178398 -0.050758
  0Cl  1px       -0.299042 -0.174786  0.037447 -0.153473  0.025208 -0.093646
  0Cl  1py        0.183394 -0.286125  0.055455  0.094120  0.044086 -0.151852
  0Cl  2pz        0.000736  0.015954  0.080019  0.000258 -0.028455 -0.008096
  0Cl  2px       -0.071741 -0.041716  0.008937 -0.025123  0.004021 -0.014937
  0Cl  2py        0.043997 -0.068289  0.013235  0.015407  0.007032 -0.024220
  0Cl  3pz       -0.002204 -0.048573 -0.243619 -0.000423  0.043714  0.012438
  0Cl  3px        0.214901  0.127004 -0.027210  0.041209 -0.006177  0.022947
  0Cl  3py       -0.131792  0.207906 -0.040295 -0.025272 -0.010803  0.037210
  0Cl  4pz       -0.005615 -0.119874 -0.601232 -0.008138  0.925180  0.263235
  0Cl  4px        0.547577  0.313436 -0.067151  0.793672 -0.130728  0.485654
  0Cl  4py       -0.335813  0.513095 -0.099445 -0.486735 -0.228634  0.787508
  0Cl  5pz       -0.002415 -0.062015 -0.311040  0.011045 -1.209105 -0.344017
  0Cl  5px        0.235564  0.162152 -0.034740 -1.077139  0.170846 -0.634695
  0Cl  5py       -0.144464  0.265443 -0.051446  0.660577  0.298798 -1.029183
  0Cl  1dz2      -0.000000 -0.000000  0.000000 -0.000000 -0.000000 -0.000000
  0Cl  1dxz      -0.000000  0.000000  0.000000 -0.000000 -0.000000 -0.000000
  0Cl  1dyz       0.000000 -0.000000 -0.000000  0.000000  0.000000 -0.000000
  0Cl  1dx2y2     0.000000  0.000000 -0.000000 -0.000000 -0.000000 -0.000000
  0Cl  1dxy      -0.000000 -0.000000  0.000000 -0.000000 -0.000000  0.000000
  0Cl  2dz2      -0.000000 -0.000000  0.000000 -0.000000 -0.000000 -0.000000
  0Cl  2dxz      -0.000000  0.000000  0.000000 -0.000000 -0.000000 -0.000000
  0Cl  2dyz       0.000000  0.000000 -0.000000  0.000000  0.000000 -0.000000
  0Cl  2dx2y2     0.000000  0.000000 -0.000000 -0.000000 -0.000000 -0.000000
  0Cl  2dxy       0.000000 -0.000000  0.000000 -0.000000  0.000000  0.000000
  0Cl  1f0        0.000242  0.001836  0.009206  0.000107 -0.004378 -0.001246
  0Cl  1f+1      -0.009617 -0.001903  0.000700 -0.004245  0.000119 -0.000976
  0Cl  1f-1       0.005898 -0.003242  0.000450  0.002604  0.000523 -0.001498
  0Cl  1f+2      -0.000141 -0.001260 -0.005352 -0.000062  0.002588  0.000641
  0Cl  1f-2       0.000278  0.002018  0.010614  0.000123 -0.005026 -0.001478
  0Cl  1f+3       0.001158 -0.014517  0.002884  0.000511  0.001969 -0.006902
  0Cl  1f-3       0.014522  0.001132 -0.000358  0.006411 -0.000096  0.000568
                     12        13        14        15        16        17   
                   0.58670   0.59995   0.59995   0.64692   0.64692   0.74498
                   0.00000   0.00000   0.00000   0.00000   0.00000   0.00000
                  --------  --------  --------  --------  --------  --------
  0Cl  1s         0.001555 -0.000000  0.000000  0.000000 -0.000000 -0.034308
  0Cl  2s         0.004683 -0.000000  0.000000  0.000000 -0.000000 -0.094107
  0Cl  3s        -0.010894  0.000000 -0.000000 -0.000000  0.000000  0.141762
  0Cl  4s        -0.014567  0.000000 -0.000000 -0.000000  0.000000  0.654956
  0Cl  5s         0.026676 -0.000000  0.000000  0.000000 -0.000000 -2.124850
  0Cl  6s         0.022566  0.000000 -0.000000  0.000000  0.000000  1.736546
  0Cl  1pz       -0.000000 -0.000000 -0.000000  0.000000 -0.000000  0.000000
  0Cl  1px       -0.000000 -0.000000  0.000000  0.000000 -0.000000  0.000000
  0Cl  1py       -0.000000 -0.000000  0.000000  0.000000  0.000000 -0.000000
  0Cl  2pz        0.000000 -0.000000 -0.000000 -0.000000 -0.000000 -0.000000
  0Cl  2px       -0.000000 -0.000000 -0.000000 -0.000000 -0.000000  0.000000
  0Cl  2py       -0.000000 -0.000000  0.000000  0.000000 -0.000000  0.000000
  0Cl  3pz        0.000000  0.000000  0.000000  0.000000  0.000000 -0.000000
  0Cl  3px        0.000000  0.000000 -0.000000 -0.000000  0.000000  0.000000
  0Cl  3py        0.000000  0.000000 -0.000000 -0.000000 -0.000000 -0.000000
  0Cl  4pz        0.000000  0.000000 -0.000000 -0.000000  0.000000  0.000000
  0Cl  4px        0.000000 -0.000000 -0.000000 -0.000000  0.000000 -0.000000
  0Cl  4py        0.000000 -0.000000 -0.000000 -0.000000 -0.000000  0.000000
  0Cl  5pz       -0.000000 -0.000000  0.000000  0.000000 -0.000000 -0.000000
  0Cl  5px       -0.000000 -0.000000  0.000000  0.000000 -0.000000  0.000000
  0Cl  5py       -0.000000  0.000000  0.000000  0.000000  0.000000 -0.000000
  0Cl  1dz2       0.095044 -0.002822 -0.000522 -0.128082  0.097699  0.010387
  0Cl  1dxz       0.002454  0.158707  0.030229 -0.060081 -0.076481  0.000268
  0Cl  1dyz      -0.001505 -0.097683 -0.016627 -0.095496 -0.126596 -0.000164
  0Cl  1dx2y2    -0.074647  0.031458 -0.165987 -0.034411  0.024425 -0.008158
  0Cl  1dxy       0.146751  0.014174 -0.084770  0.065474 -0.050870  0.016037
  0Cl  2dz2       0.448744 -0.013381 -0.002474 -0.620385  0.473220 -0.006149
  0Cl  2dxz       0.011585  0.752639  0.143356 -0.291015 -0.370447 -0.000159
  0Cl  2dyz      -0.007105 -0.463247 -0.078853 -0.462553 -0.613189  0.000097
  0Cl  2dx2y2    -0.352444  0.149186 -0.787167 -0.166674  0.118308  0.004829
  0Cl  2dxy       0.692879  0.067218 -0.402009  0.317134 -0.246396 -0.009494
  0Cl  1f0        0.000000 -0.000000 -0.000000 -0.000000  0.000000  0.000000
  0Cl  1f+1       0.000000  0.000000  0.000000 -0.000000  0.000000  0.000000
  0Cl  1f-1      -0.000000 -0.000000 -0.000000 -0.000000 -0.000000  0.000000
  0Cl  1f+2      -0.000000  0.000000 -0.000000 -0.000000 -0.000000 -0.000000
  0Cl  1f-2       0.000000  0.000000 -0.000000 -0.000000 -0.000000  0.000000
  0Cl  1f+3       0.000000 -0.000000  0.000000  0.000000 -0.000000  0.000000
  0Cl  1f-3      -0.000000  0.000000  0.000000 -0.000000  0.000000 -0.000000
                     18        19        20        21        22        23   
                   2.30097   2.30864   2.30864   2.33105   2.33105   2.36937
                   0.00000   0.00000   0.00000   0.00000   0.00000   0.00000
                  --------  --------  --------  --------  --------  --------
  0Cl  1s         0.000000  0.000000  0.000000  0.000000  0.000000  0.000000
  0Cl  2s         0.000000  0.000000  0.000000  0.000000 -0.000000  0.000000
  0Cl  3s        -0.000000 -0.000000 -0.000000 -0.000000  0.000000 -0.000000
  0Cl  4s        -0.000000 -0.000000 -0.000000 -0.000000  0.000000 -0.000000
  0Cl  5s         0.000000  0.000000  0.000000  0.000000 -0.000000  0.000000
  0Cl  6s         0.000000  0.000000 -0.000000  0.000000  0.000000  0.000000
  0Cl  1pz        0.000709  0.042350  0.000913 -0.000000  0.000000  0.000000
  0Cl  1px       -0.069106  0.000793 -0.022134  0.000000  0.000000  0.000000
  0Cl  1py        0.042381  0.000585 -0.036107 -0.000000 -0.000000 -0.000000
  0Cl  2pz        0.000221  0.012730  0.000274 -0.000000  0.000000  0.000000
  0Cl  2px       -0.021593  0.000238 -0.006653  0.000000  0.000000  0.000000
  0Cl  2py        0.013242  0.000176 -0.010853 -0.000000 -0.000000 -0.000000
  0Cl  3pz       -0.001629 -0.093795 -0.002022  0.000000 -0.000000 -0.000000
  0Cl  3px        0.158833 -0.001756  0.049022 -0.000000 -0.000000 -0.000000
  0Cl  3py       -0.097408 -0.001295  0.079969  0.000000  0.000000  0.000000
  0Cl  4pz        0.001340  0.068647  0.001480 -0.000000  0.000000  0.000000
  0Cl  4px       -0.130681  0.001285 -0.035878  0.000000  0.000000  0.000000
  0Cl  4py        0.080143  0.000948 -0.058528 -0.000000 -0.000000 -0.000000
  0Cl  5pz       -0.000442 -0.022778 -0.000491  0.000000 -0.000000 -0.000000
  0Cl  5px        0.043071 -0.000426  0.011905 -0.000000 -0.000000 -0.000000
  0Cl  5py       -0.026414 -0.000315  0.019421  0.000000  0.000000  0.000000
  0Cl  1dz2       0.000000 -0.000000  0.000000  0.000000  0.000000  0.000000
  0Cl  1dxz       0.000000 -0.000000  0.000000  0.000000 -0.000000 -0.000000
  0Cl  1dyz      -0.000000 -0.000000  0.000000 -0.000000  0.000000 -0.000000
  0Cl  1dx2y2     0.000000  0.000000 -0.000000 -0.000000 -0.000000  0.000000
  0Cl  1dxy       0.000000 -0.000000  0.000000 -0.000000 -0.000000 -0.000000
  0Cl  2dz2      -0.000000  0.000000 -0.000000 -0.000000  0.000000 -0.000000
  0Cl  2dxz      -0.000000 -0.000000 -0.000000 -0.000000  0.000000  0.000000
  0Cl  2dyz       0.000000  0.000000 -0.000000  0.000000 -0.000000  0.000000
  0Cl  2dx2y2    -0.000000 -0.000000  0.000000  0.000000  0.000000 -0.000000
  0Cl  2dxy      -0.000000  0.000000 -0.000000  0.000000  0.000000  0.000000
  0Cl  1f0       -0.013047 -0.611198 -0.013175 -0.016887  0.001123  0.575603
  0Cl  1f+1       0.519315 -0.023269  0.130011  0.672745 -0.037491 -0.341660
  0Cl  1f-1      -0.318480  0.007960  0.212985 -0.411499  0.039168 -0.568899
  0Cl  1f+2       0.007637  0.357533  0.020012 -0.057149 -0.889348  0.195637
  0Cl  1f-2      -0.015013 -0.703538 -0.008907 -0.033961 -0.452056 -0.400790
  0Cl  1f+3      -0.062527 -0.020102  0.963678  0.049273  0.007418  0.171226
  0Cl  1f-3      -0.784219  0.010079 -0.076652  0.609057 -0.041350 -0.008863
                     24        25        26        27        28        29   
                   2.36937   2.37279   2.42619   2.42619   2.65434   2.66704
                   0.00000   0.00000   0.00000   0.00000   0.00000   0.00000
                  --------  --------  --------  --------  --------  --------
  0Cl  1s        -0.000000  0.000000  0.000000  0.000000  0.000692 -0.000000
  0Cl  2s        -0.000000  0.000000  0.000000  0.000000  0.001751 -0.000000
  0Cl  3s         0.000000 -0.000000 -0.000000 -0.000000 -0.001563  0.000000
  0Cl  4s         0.000000 -0.000000  0.000000 -0.000000 -0.016765 -0.000000
  0Cl  5s        -0.000000  0.000000  0.000000  0.000000  0.045374  0.000000
  0Cl  6s         0.000000  0.000000 -0.000000  0.000000 -0.029095 -0.000000
  0Cl  1pz        0.000000 -0.006818  0.535393  0.571892 -0.000000  0.000000
  0Cl  1px       -0.000000  0.664891 -0.295001  0.284170  0.000000  0.000000
  0Cl  1py        0.000000 -0.407758 -0.489981  0.453806  0.000000 -0.000000
  0Cl  2pz        0.000000 -0.002260  0.177310  0.189398 -0.000000  0.000000
  0Cl  2px       -0.000000  0.220386 -0.097698  0.094111  0.000000  0.000000
  0Cl  2py        0.000000 -0.135156 -0.162271  0.150290  0.000000 -0.000000
  0Cl  3pz       -0.000000  0.016583 -1.301598 -1.390332  0.000000 -0.000000
  0Cl  3px        0.000000 -1.617301  0.717180 -0.690847 -0.000000 -0.000000
  0Cl  3py       -0.000000  0.991842  1.191198 -1.103252 -0.000000  0.000000
  0Cl  4pz        0.000000 -0.015778  1.233335  1.317414 -0.000000  0.000000
  0Cl  4px       -0.000000  1.538819 -0.679567  0.654615  0.000000  0.000000
  0Cl  4py        0.000000 -0.943711 -1.128724  1.045391  0.000000 -0.000000
  0Cl  5pz       -0.000000  0.005088 -0.394409 -0.421297  0.000000 -0.000000
  0Cl  5px        0.000000 -0.496171  0.217319 -0.209340 -0.000000 -0.000000
  0Cl  5py       -0.000000  0.304287  0.360956 -0.334306 -0.000000  0.000000
  0Cl  1dz2       0.000000 -0.000000  0.000000  0.000000  0.554072  0.014039
  0Cl  1dxz       0.000000  0.000000 -0.000000  0.000000  0.014304 -0.787657
  0Cl  1dyz       0.000000 -0.000000  0.000000 -0.000000 -0.008772  0.489278
  0Cl  1dx2y2     0.000000  0.000000  0.000000  0.000000 -0.435170 -0.545386
  0Cl  1dxy      -0.000000  0.000000  0.000000  0.000000  0.855510 -0.268326
  0Cl  2dz2      -0.000000  0.000000 -0.000000 -0.000000 -0.338422 -0.008563
  0Cl  2dxz      -0.000000  0.000000 -0.000000  0.000000 -0.008737  0.480405
  0Cl  2dyz      -0.000000  0.000000 -0.000000 -0.000000  0.005358 -0.298419
  0Cl  2dx2y2    -0.000000 -0.000000 -0.000000  0.000000  0.265797  0.332640
  0Cl  2dxy       0.000000 -0.000000 -0.000000 -0.000000 -0.522538  0.163656
  0Cl  1f0        0.541791 -0.001251  0.019800  0.021150 -0.000000 -0.000000
  0Cl  1f+1       0.373508  0.049813 -0.003851  0.004934 -0.000000  0.000000
  0Cl  1f-1       0.597948 -0.030549 -0.007767  0.006457 -0.000000 -0.000000
  0Cl  1f+2       0.197248  0.000733 -0.012017 -0.011983  0.000000  0.000000
  0Cl  1f-2      -0.370581 -0.001440  0.022571  0.024543 -0.000000  0.000000
  0Cl  1f+3      -0.181151 -0.005998 -0.033368  0.031195 -0.000000 -0.000000
  0Cl  1f-3       0.018951 -0.075223  0.002386 -0.002781  0.000000 -0.000000
                     30        31        32        33        34        35   
                   2.66704   2.70785   2.70785   9.92385  26.13143  26.17432
                   0.00000   0.00000   0.00000   0.00000   0.00000   0.00000
                  --------  --------  --------  --------  --------  --------
  0Cl  1s        -0.000000 -0.000000  0.000000 -0.115947  0.000000  0.000000
  0Cl  2s        -0.000000 -0.000000  0.000000 -0.481576 -0.000000  0.000000
  0Cl  3s         0.000000  0.000000 -0.000000  2.618824  0.000000 -0.000000
  0Cl  4s        -0.000000 -0.000000 -0.000000 -2.997790 -0.000000  0.000000
  0Cl  5s         0.000000 -0.000000  0.000000  1.463599 -0.000000 -0.000000
  0Cl  6s        -0.000000  0.000000 -0.000000 -0.575017 -0.000000  0.000000
  0Cl  1pz        0.000000 -0.000000  0.000000  0.000000 -0.029323  3.354810
  0Cl  1px       -0.000000 -0.000000 -0.000000 -0.000000  2.859780  0.043862
  0Cl  1py       -0.000000 -0.000000 -0.000000 -0.000000 -1.753817  0.015430
  0Cl  2pz        0.000000 -0.000000  0.000000  0.000000 -0.029720  3.399952
  0Cl  2px       -0.000000 -0.000000 -0.000000 -0.000000  2.898443  0.044452
  0Cl  2py       -0.000000 -0.000000 -0.000000 -0.000000 -1.777528  0.015638
  0Cl  3pz       -0.000000  0.000000 -0.000000 -0.000000  0.020204 -2.311368
  0Cl  3px        0.000000  0.000000  0.000000  0.000000 -1.970393 -0.030220
  0Cl  3py        0.000000  0.000000  0.000000  0.000000  1.208383 -0.010631
  0Cl  4pz        0.000000 -0.000000  0.000000  0.000000 -0.009385  1.073130
  0Cl  4px       -0.000000 -0.000000 -0.000000 -0.000000  0.915261  0.014031
  0Cl  4py       -0.000000 -0.000000 -0.000000 -0.000000 -0.561302  0.004936
  0Cl  5pz       -0.000000  0.000000 -0.000000 -0.000000  0.002493 -0.284861
  0Cl  5px        0.000000  0.000000  0.000000  0.000000 -0.243090 -0.003724
  0Cl  5py        0.000000  0.000000  0.000000  0.000000  0.149080 -0.001310
  0Cl  1dz2      -0.009201  0.449973 -0.848796 -0.000323 -0.000000  0.000000
  0Cl  1dxz       0.522275 -0.508536 -0.278947 -0.000008  0.000000  0.000000
  0Cl  1dyz      -0.310787 -0.837908 -0.438464  0.000005 -0.000000 -0.000000
  0Cl  1dx2y2    -0.824147  0.110167 -0.226263  0.000254 -0.000000  0.000000
  0Cl  1dxy      -0.425176 -0.235477  0.434799 -0.000499 -0.000000 -0.000000
  0Cl  2dz2       0.005612 -0.273139  0.515229  0.000684 -0.000000 -0.000000
  0Cl  2dxz      -0.318544  0.308687  0.169324  0.000018 -0.000000  0.000000
  0Cl  2dyz       0.189554  0.508620  0.266153 -0.000011  0.000000 -0.000000
  0Cl  2dx2y2     0.502661 -0.066873  0.137345 -0.000537 -0.000000  0.000000
  0Cl  2dxy       0.259322  0.142937 -0.263928  0.001057  0.000000  0.000000
  0Cl  1f0        0.000000 -0.000000  0.000000 -0.000000  0.000004 -0.000162
  0Cl  1f+1      -0.000000  0.000000  0.000000 -0.000000 -0.000168 -0.000006
  0Cl  1f-1       0.000000  0.000000  0.000000  0.000000  0.000103  0.000003
  0Cl  1f+2       0.000000 -0.000000  0.000000  0.000000 -0.000002  0.000095
  0Cl  1f-2       0.000000  0.000000 -0.000000 -0.000000  0.000005 -0.000186
  0Cl  1f+3      -0.000000  0.000000 -0.000000 -0.000000  0.000020 -0.000003
  0Cl  1f-3      -0.000000 -0.000000  0.000000  0.000000  0.000254  0.000002
                     36        37   
                  26.17432 218.71564
                   0.00000   0.00000
                  --------  --------
  0Cl  1s        -0.000000  1.541315
  0Cl  2s        -0.000000 -1.911226
  0Cl  3s         0.000000  1.419525
  0Cl  4s        -0.000000 -0.929937
  0Cl  5s         0.000000  0.330585
  0Cl  6s        -0.000000 -0.126744
  0Cl  1pz       -0.036083 -0.000000
  0Cl  1px        1.753657 -0.000000
  0Cl  1py        2.860122 -0.000000
  0Cl  2pz       -0.036569 -0.000000
  0Cl  2px        1.777254 -0.000000
  0Cl  2py        2.898608 -0.000000
  0Cl  3pz        0.024860  0.000000
  0Cl  3px       -1.208219  0.000000
  0Cl  3py       -1.970542  0.000000
  0Cl  4pz       -0.011542 -0.000000
  0Cl  4px        0.560956 -0.000000
  0Cl  4py        0.914890 -0.000000
  0Cl  5pz        0.003064  0.000000
  0Cl  5px       -0.148905  0.000000
  0Cl  5py       -0.242856 -0.000000
  0Cl  1dz2       0.000000 -0.000005
  0Cl  1dxz       0.000000 -0.000000
  0Cl  1dyz      -0.000000  0.000000
  0Cl  1dx2y2     0.000000  0.000004
  0Cl  1dxy      -0.000000 -0.000008
  0Cl  2dz2      -0.000000  0.000006
  0Cl  2dxz       0.000000  0.000000
  0Cl  2dyz      -0.000000 -0.000000
  0Cl  2dx2y2     0.000000 -0.000005
  0Cl  2dxy       0.000000  0.000009
  0Cl  1f0        0.000002  0.000000
  0Cl  1f+1      -0.000035  0.000000
  0Cl  1f-1      -0.000056 -0.000000
  0Cl  1f+2      -0.000004  0.000000
  0Cl  1f-2       0.000000 -0.000000
  0Cl  1f+3      -0.000255 -0.000000
  0Cl  1f-3       0.000020 -0.000000

                      0         1         2         3         4         5   
                 -104.88081 -10.60398  -8.07101  -8.07101  -8.05248  -1.01707
                   1.00000   1.00000   1.00000   1.00000   1.00000   1.00000
                  --------  --------  --------  --------  --------  --------
  0Cl  1s        -0.411758  0.121949  0.000000 -0.000000  0.000000  0.036870
  0Cl  2s        -0.654678  0.331482  0.000000 -0.000000  0.000000  0.106903
  0Cl  3s        -0.011972 -0.511347 -0.000000  0.000000 -0.000000 -0.213268
  0Cl  4s         0.000839 -0.607477 -0.000000 -0.000000 -0.000000 -0.420698
  0Cl  5s        -0.000178 -0.039283  0.000000 -0.000000  0.000000  0.647785
  0Cl  6s         0.000076  0.007297 -0.000000  0.000000 -0.000000  0.568090
  0Cl  1pz       -0.000000  0.000000 -0.713407 -1.003881  0.010743  0.000000
  0Cl  1px       -0.000000 -0.000000 -0.530154  0.365496 -1.047756  0.000000
  0Cl  1py        0.000000  0.000000 -0.852543  0.612763  0.642557 -0.000000
  0Cl  2pz       -0.000000  0.000000 -0.189633 -0.266845  0.002858  0.000000
  0Cl  2px       -0.000000 -0.000000 -0.140922  0.097154 -0.278776  0.000000
  0Cl  2py        0.000000  0.000000 -0.226617  0.162881  0.170965 -0.000000
  0Cl  3pz        0.000000 -0.000000 -0.028275 -0.039787  0.000473 -0.000000
  0Cl  3px        0.000000  0.000000 -0.021012  0.014486 -0.046162 -0.000000
  0Cl  3py       -0.000000 -0.000000 -0.033789  0.024286  0.028310 -0.000000
  0Cl  4pz       -0.000000  0.000000  0.001243  0.001749 -0.000040  0.000000
  0Cl  4px       -0.000000 -0.000000  0.000924 -0.000637  0.003923  0.000000
  0Cl  4py        0.000000  0.000000  0.001485 -0.001068 -0.002406  0.000000
  0Cl  5pz        0.000000 -0.000000 -0.000384 -0.000540  0.000012  0.000000
  0Cl  5px        0.000000  0.000000 -0.000285  0.000197 -0.001142 -0.000000
  0Cl  5py        0.000000 -0.000000 -0.000459  0.000330  0.000701 -0.000000
  0Cl  1dz2       0.000008  0.000245  0.000000 -0.000000  0.000000  0.008017
  0Cl  1dxz       0.000000  0.000006  0.000000  0.000000  0.000000  0.000207
  0Cl  1dyz      -0.000000 -0.000004  0.000000 -0.000000 -0.000000 -0.000127
  0Cl  1dx2y2    -0.000006 -0.000192  0.000000 -0.000000  0.000000 -0.006297
  0Cl  1dxy       0.000013  0.000378  0.000000  0.000000 -0.000000  0.012379
  0Cl  2dz2       0.000003 -0.000345 -0.000000 -0.000000 -0.000000  0.020400
  0Cl  2dxz       0.000000 -0.000009 -0.000000 -0.000000  0.000000  0.000527
  0Cl  2dyz      -0.000000  0.000005 -0.000000 -0.000000  0.000000 -0.000323
  0Cl  2dx2y2    -0.000002  0.000271 -0.000000 -0.000000  0.000000 -0.016023
  0Cl  2dxy       0.000005 -0.000533  0.000000 -0.000000  0.000000  0.031499
  0Cl  1f0        0.000000 -0.000000 -0.000038 -0.000053  0.000002 -0.000000
  0Cl  1f+1      -0.000000 -0.000000 -0.000013  0.000006 -0.000066 -0.000000
  0Cl  1f-1      -0.000000  0.000000 -0.000018  0.000014  0.000041 -0.000000
  0Cl  1f+2      -0.000000 -0.000000  0.000021  0.000032 -0.000001  0.000000
  0Cl  1f-2      -0.000000 -0.000000 -0.000044 -0.000061  0.000002 -0.000000
  0Cl  1f+3      -0.000000  0.000000 -0.000084  0.000060  0.000008  0.000000
  0Cl  1f-3       0.000000  0.000000  0.000007 -0.000004  0.000100  0.000000
                      6         7         8         9        10        11   
                  -0.48289  -0.48289  -0.04220   0.41226   0.41226   0.45080
                   1.00000   1.00000   0.00000   0.00000   0.00000   0.00000
                  --------  --------  --------  --------  --------  --------
  0Cl  1s        -0.000000  0.000000  0.000000  0.000000 -0.000000  0.000000
  0Cl  2s        -0.000000  0.000000  0.000000  0.000000 -0.000000  0.000000
  0Cl  3s         0.000000 -0.000000 -0.000000 -0.000000  0.000000 -0.000000
  0Cl  4s         0.000000 -0.000000 -0.000000 -0.000000  0.000000 -0.000000
  0Cl  5s        -0.000000 -0.000000  0.000000  0.000000 -0.000000  0.000000
  0Cl  6s         0.000000  0.000000 -0.000000  0.000000  0.000000  0.000000
  0Cl  1pz       -0.008630  0.338499  0.002493 -0.154994  0.106424  0.002053
  0Cl  1px       -0.177035 -0.001989 -0.243129  0.054485  0.081825 -0.200180
  0Cl  1py       -0.288530 -0.008903  0.149104  0.091435  0.131645  0.122764
  0Cl  2pz       -0.002055  0.080595  0.000606 -0.024618  0.016903  0.000352
  0Cl  2px       -0.042151 -0.000474 -0.059143  0.008654  0.012996 -0.034319
  0Cl  2py       -0.068697 -0.002120  0.036271  0.014522  0.020909  0.021047
  0Cl  3pz        0.006282 -0.246406 -0.001735  0.037177 -0.025527 -0.000473
  0Cl  3px        0.128870  0.001448  0.169163 -0.013069 -0.019627  0.046154
  0Cl  3py        0.210031  0.006481 -0.103743 -0.021932 -0.031577 -0.028305
  0Cl  4pz        0.015357 -0.602404 -0.003888  0.801692 -0.550470 -0.009624
  0Cl  4px        0.315057  0.003540  0.379229 -0.281817 -0.423233  0.938636
  0Cl  4py        0.513476  0.015845 -0.232570 -0.472936 -0.680922 -0.575637
  0Cl  5pz        0.008462 -0.331943 -0.004793 -1.033886  0.709903  0.010328
  0Cl  5px        0.173606  0.001951  0.467472  0.363440  0.545815 -1.007206
  0Cl  5py        0.282941  0.008731 -0.286687  0.609913  0.878138  0.617689
  0Cl  1dz2      -0.000000 -0.000000 -0.000000  0.000000 -0.000000  0.000000
  0Cl  1dxz      -0.000000 -0.000000  0.000000  0.000000 -0.000000  0.000000
  0Cl  1dyz       0.000000  0.000000 -0.000000 -0.000000 -0.000000  0.000000
  0Cl  1dx2y2     0.000000 -0.000000  0.000000 -0.000000 -0.000000  0.000000
  0Cl  1dxy       0.000000 -0.000000  0.000000  0.000000  0.000000  0.000000
  0Cl  2dz2      -0.000000 -0.000000 -0.000000  0.000000 -0.000000 -0.000000
  0Cl  2dxz       0.000000 -0.000000  0.000000 -0.000000 -0.000000  0.000000
  0Cl  2dyz       0.000000 -0.000000 -0.000000 -0.000000 -0.000000  0.000000
  0Cl  2dx2y2     0.000000  0.000000  0.000000 -0.000000 -0.000000  0.000000
  0Cl  2dxy       0.000000 -0.000000  0.000000  0.000000  0.000000  0.000000
  0Cl  1f0        0.000053 -0.002094 -0.000050  0.000255 -0.000175 -0.000016
  0Cl  1f+1       0.000449 -0.000059  0.001971 -0.000029 -0.000060  0.000643
  0Cl  1f-1       0.000728  0.000062 -0.001209 -0.000066 -0.000085 -0.000394
  0Cl  1f+2       0.000011  0.001227  0.000029 -0.000153  0.000097  0.000009
  0Cl  1f-2       0.000083 -0.002409 -0.000057  0.000292 -0.000204 -0.000019
  0Cl  1f+3       0.003302  0.000086 -0.000237 -0.000276 -0.000402 -0.000077
  0Cl  1f-3      -0.000264  0.000022 -0.002977  0.000019  0.000034 -0.000971
                     12        13        14        15        16        17   
                   0.65115   0.65115   0.68764   0.68764   0.70157   0.77419
                   0.00000   0.00000   0.00000   0.00000   0.00000   0.00000
                  --------  --------  --------  --------  --------  --------
  0Cl  1s        -0.000000  0.000000  0.000000  0.000000  0.000499  0.034578
  0Cl  2s        -0.000000  0.000000  0.000000  0.000000  0.000958  0.094841
  0Cl  3s         0.000000 -0.000000 -0.000000 -0.000000  0.002538 -0.142819
  0Cl  4s        -0.000000 -0.000000 -0.000000 -0.000000 -0.026560 -0.659152
  0Cl  5s         0.000000  0.000000  0.000000  0.000000  0.114581  2.127978
  0Cl  6s        -0.000000 -0.000000 -0.000000 -0.000000 -0.147210 -1.726754
  0Cl  1pz       -0.000000  0.000000  0.000000 -0.000000  0.000000  0.000000
  0Cl  1px       -0.000000  0.000000 -0.000000 -0.000000 -0.000000  0.000000
  0Cl  1py       -0.000000  0.000000 -0.000000 -0.000000  0.000000 -0.000000
  0Cl  2pz       -0.000000  0.000000 -0.000000 -0.000000  0.000000  0.000000
  0Cl  2px       -0.000000 -0.000000 -0.000000 -0.000000 -0.000000 -0.000000
  0Cl  2py       -0.000000 -0.000000 -0.000000 -0.000000  0.000000 -0.000000
  0Cl  3pz        0.000000 -0.000000  0.000000  0.000000 -0.000000  0.000000
  0Cl  3px        0.000000  0.000000 -0.000000  0.000000  0.000000  0.000000
  0Cl  3py        0.000000  0.000000 -0.000000  0.000000 -0.000000  0.000000
  0Cl  4pz       -0.000000 -0.000000 -0.000000  0.000000 -0.000000 -0.000000
  0Cl  4px        0.000000 -0.000000  0.000000  0.000000  0.000000 -0.000000
  0Cl  4py        0.000000 -0.000000  0.000000  0.000000  0.000000 -0.000000
  0Cl  5pz        0.000000  0.000000  0.000000 -0.000000  0.000000  0.000000
  0Cl  5px       -0.000000  0.000000 -0.000000 -0.000000 -0.000000  0.000000
  0Cl  5py       -0.000000  0.000000 -0.000000 -0.000000 -0.000000  0.000000
  0Cl  1dz2       0.090134  0.132595 -0.002395  0.001274  0.088048 -0.006204
  0Cl  1dxz      -0.079270  0.055554  0.135241 -0.071021  0.002273 -0.000160
  0Cl  1dyz      -0.130999  0.088027 -0.082076  0.045178 -0.001394  0.000098
  0Cl  1dx2y2     0.022404  0.035524 -0.074396 -0.141352 -0.069153  0.004872
  0Cl  1dxy      -0.046997 -0.067831 -0.039394 -0.071076  0.135950 -0.009579
  0Cl  2dz2       0.438910  0.645672 -0.012097  0.006436  0.451585 -0.030867
  0Cl  2dxz      -0.386008  0.270520  0.683046 -0.358700  0.011658 -0.000797
  0Cl  2dyz      -0.637899  0.428646 -0.414532  0.228173 -0.007150  0.000489
  0Cl  2dx2y2     0.109098  0.172986 -0.375744 -0.713913 -0.354676  0.024243
  0Cl  2dxy      -0.228853 -0.330306 -0.198964 -0.358975  0.697266 -0.047661
  0Cl  1f0        0.000000  0.000000 -0.000000  0.000000  0.000000 -0.000000
  0Cl  1f+1      -0.000000  0.000000  0.000000 -0.000000  0.000000 -0.000000
  0Cl  1f-1      -0.000000  0.000000 -0.000000  0.000000 -0.000000  0.000000
  0Cl  1f+2       0.000000  0.000000  0.000000 -0.000000 -0.000000  0.000000
  0Cl  1f-2      -0.000000  0.000000 -0.000000 -0.000000  0.000000 -0.000000
  0Cl  1f+3      -0.000000 -0.000000  0.000000  0.000000  0.000000 -0.000000
  0Cl  1f-3       0.000000  0.000000  0.000000  0.000000 -0.000000  0.000000
                     18        19        20        21        22        23   
                   2.36279   2.36377   2.36377   2.36659   2.36659   2.37045
                   0.00000   0.00000   0.00000   0.00000   0.00000   0.00000
                  --------  --------  --------  --------  --------  --------
  0Cl  1s         0.000000  0.000000 -0.000000  0.000000  0.000000  0.000000
  0Cl  2s         0.000000  0.000000 -0.000000  0.000000  0.000000  0.000000
  0Cl  3s        -0.000000 -0.000000  0.000000 -0.000000 -0.000000 -0.000000
  0Cl  4s        -0.000000 -0.000000 -0.000000  0.000000 -0.000000 -0.000000
  0Cl  5s         0.000000  0.000000  0.000000 -0.000000  0.000000  0.000000
  0Cl  6s         0.000000  0.000000 -0.000000  0.000000  0.000000  0.000000
  0Cl  1pz        0.000326 -0.034187 -0.016148  0.000000 -0.000000 -0.000000
  0Cl  1px       -0.031747  0.008188 -0.017993 -0.000000 -0.000000  0.000000
  0Cl  1py        0.019469  0.013922 -0.029070  0.000000  0.000000  0.000000
  0Cl  2pz        0.000108 -0.011392 -0.005381  0.000000 -0.000000 -0.000000
  0Cl  2px       -0.010551  0.002728 -0.005996 -0.000000 -0.000000  0.000000
  0Cl  2py        0.006471  0.004639 -0.009687  0.000000  0.000000  0.000000
  0Cl  3pz       -0.000798  0.084781  0.040046 -0.000000  0.000000  0.000000
  0Cl  3px        0.077823 -0.020305  0.044623  0.000000  0.000000 -0.000000
  0Cl  3py       -0.047726 -0.034527  0.072093 -0.000000 -0.000000 -0.000000
  0Cl  4pz        0.000774 -0.083259 -0.039327  0.000000 -0.000000 -0.000000
  0Cl  4px       -0.075496  0.019940 -0.043822 -0.000000 -0.000000  0.000000
  0Cl  4py        0.046300  0.033907 -0.070798  0.000000  0.000000  0.000000
  0Cl  5pz       -0.000232  0.025379  0.011988 -0.000000  0.000000  0.000000
  0Cl  5px        0.022622 -0.006078  0.013358  0.000000  0.000000 -0.000000
  0Cl  5py       -0.013873 -0.010336  0.021581 -0.000000 -0.000000 -0.000000
  0Cl  1dz2      -0.000000  0.000000  0.000000  0.000000  0.000000 -0.000000
  0Cl  1dxz       0.000000  0.000000  0.000000 -0.000000 -0.000000  0.000000
  0Cl  1dyz      -0.000000 -0.000000  0.000000  0.000000 -0.000000  0.000000
  0Cl  1dx2y2     0.000000 -0.000000 -0.000000 -0.000000  0.000000 -0.000000
  0Cl  1dxy      -0.000000  0.000000  0.000000 -0.000000  0.000000  0.000000
  0Cl  2dz2       0.000000 -0.000000 -0.000000 -0.000000 -0.000000  0.000000
  0Cl  2dxz      -0.000000 -0.000000 -0.000000  0.000000  0.000000 -0.000000
  0Cl  2dyz       0.000000  0.000000 -0.000000 -0.000000 -0.000000 -0.000000
  0Cl  2dx2y2    -0.000000  0.000000  0.000000  0.000000 -0.000000  0.000000
  0Cl  2dxy      -0.000000 -0.000000 -0.000000  0.000000 -0.000000 -0.000000
  0Cl  1f0       -0.013094  0.552792  0.261110  0.011305  0.012595 -0.598185
  0Cl  1f+1       0.521195 -0.037228  0.126725 -0.444655 -0.506234  0.325421
  0Cl  1f-1      -0.319633 -0.102221  0.187028  0.284758  0.299630  0.542882
  0Cl  1f+2       0.007664 -0.328861 -0.141731 -0.664544  0.593790 -0.203871
  0Cl  1f-2      -0.015068  0.633513  0.306159 -0.334757  0.305689  0.416229
  0Cl  1f+3      -0.062753 -0.412294  0.871289 -0.024570 -0.043350 -0.163344
  0Cl  1f-3      -0.787057  0.025206 -0.073090 -0.408390 -0.453738  0.008047
                     24        25        26        27        28        29   
                   2.37045   2.43532   2.43532   2.45492   2.69849   2.70178
                   0.00000   0.00000   0.00000   0.00000   0.00000   0.00000
                  --------  --------  --------  --------  --------  --------
  0Cl  1s        -0.000000  0.000000  0.000000  0.000000  0.000329 -0.000000
  0Cl  2s        -0.000000  0.000000  0.000000  0.000000  0.001001 -0.000000
  0Cl  3s         0.000000 -0.000000 -0.000000 -0.000000 -0.002556  0.000000
  0Cl  4s         0.000000  0.000000 -0.000000 -0.000000 -0.001758 -0.000000
  0Cl  5s        -0.000000 -0.000000  0.000000  0.000000  0.003031 -0.000000
  0Cl  6s         0.000000  0.000000  0.000000  0.000000  0.004428 -0.000000
  0Cl  1pz        0.000000  0.510164 -0.595674  0.006980  0.000000  0.000000
  0Cl  1px        0.000000 -0.307623 -0.271157 -0.680755 -0.000000 -0.000000
  0Cl  1py        0.000000 -0.510140 -0.432190  0.417487 -0.000000  0.000000
  0Cl  2pz        0.000000  0.168868 -0.197173  0.002304  0.000000  0.000000
  0Cl  2px        0.000000 -0.101826 -0.089755 -0.224678 -0.000000 -0.000000
  0Cl  2py        0.000000 -0.168861 -0.143058  0.137788 -0.000000 -0.000000
  0Cl  3pz       -0.000000 -1.239012  1.446688 -0.016701 -0.000000 -0.000000
  0Cl  3px       -0.000000  0.747110  0.658546  1.628814  0.000000 -0.000000
  0Cl  3py       -0.000000  1.238956  1.049640 -0.998903  0.000000 -0.000000
  0Cl  4pz        0.000000  1.171873 -1.368296  0.015502  0.000000  0.000000
  0Cl  4px        0.000000 -0.706626 -0.622861 -1.511873 -0.000000 -0.000000
  0Cl  4py        0.000000 -1.171820 -0.992762  0.927186 -0.000000  0.000000
  0Cl  5pz       -0.000000 -0.373987  0.436672 -0.004922 -0.000000 -0.000000
  0Cl  5px       -0.000000  0.225510  0.198777  0.479999  0.000000  0.000000
  0Cl  5py       -0.000000  0.373970  0.316826 -0.294369  0.000000 -0.000000
  0Cl  1dz2       0.000000  0.000000  0.000000  0.000000 -0.555285  0.016360
  0Cl  1dxz       0.000000  0.000000 -0.000000  0.000000 -0.014335 -0.919917
  0Cl  1dyz       0.000000 -0.000000  0.000000  0.000000  0.008791  0.566780
  0Cl  1dx2y2     0.000000 -0.000000 -0.000000 -0.000000  0.436122 -0.232228
  0Cl  1dxy      -0.000000  0.000000 -0.000000 -0.000000 -0.857382 -0.107530
  0Cl  2dz2      -0.000000 -0.000000 -0.000000 -0.000000  0.333014 -0.009839
  0Cl  2dxz      -0.000000 -0.000000  0.000000 -0.000000  0.008597  0.553249
  0Cl  2dyz      -0.000000  0.000000 -0.000000 -0.000000 -0.005272 -0.340868
  0Cl  2dx2y2    -0.000000  0.000000  0.000000  0.000000 -0.261550  0.139665
  0Cl  2dxy       0.000000 -0.000000  0.000000  0.000000  0.514187  0.064670
  0Cl  1f0        0.516751  0.019765 -0.023078  0.000632  0.000000  0.000000
  0Cl  1f+1       0.387738 -0.004264 -0.004991 -0.025139 -0.000000  0.000000
  0Cl  1f-1       0.621665 -0.008438 -0.006405  0.015417  0.000000 -0.000000
  0Cl  1f+2       0.188725 -0.012035  0.013112 -0.000370 -0.000000  0.000000
  0Cl  1f-2      -0.353152  0.022511 -0.026762  0.000727  0.000000  0.000000
  0Cl  1f+3      -0.188288 -0.036409 -0.031138  0.003027  0.000000  0.000000
  0Cl  1f-3       0.019312  0.002629  0.002803  0.037962  0.000000 -0.000000
                     30        31        32        33        34        35   
                   2.70178   2.71122   2.71122   9.94201  26.15609  26.17908
                   0.00000   0.00000   0.00000   0.00000   0.00000   0.00000
                  --------  --------  --------  --------  --------  --------
  0Cl  1s         0.000000 -0.000000 -0.000000 -0.115946  0.000000  0.000000
  0Cl  2s         0.000000 -0.000000 -0.000000 -0.481589  0.000000  0.000000
  0Cl  3s        -0.000000  0.000000 -0.000000  2.618837  0.000000 -0.000000
  0Cl  4s         0.000000  0.000000  0.000000 -2.997819 -0.000000  0.000000
  0Cl  5s         0.000000 -0.000000 -0.000000  1.463667  0.000000  0.000000
  0Cl  6s         0.000000 -0.000000 -0.000000 -0.573632 -0.000000  0.000000
  0Cl  1pz       -0.000000  0.000000 -0.000000 -0.000000 -0.029322  0.745334
  0Cl  1px       -0.000000 -0.000000 -0.000000 -0.000000  2.859645 -1.704651
  0Cl  1py       -0.000000  0.000000  0.000000 -0.000000 -1.753734 -2.792072
  0Cl  2pz       -0.000000  0.000000 -0.000000 -0.000000 -0.029719  0.755360
  0Cl  2px        0.000000 -0.000000 -0.000000 -0.000000  2.898388 -1.727581
  0Cl  2py       -0.000000  0.000000 -0.000000 -0.000000 -1.777494 -2.829629
  0Cl  3pz        0.000000 -0.000000  0.000000  0.000000  0.020200 -0.513516
  0Cl  3px        0.000000  0.000000  0.000000  0.000000 -1.970045  1.174462
  0Cl  3py        0.000000 -0.000000 -0.000000  0.000000  1.208170  1.923668
  0Cl  4pz       -0.000000  0.000000 -0.000000 -0.000000 -0.009376  0.238380
  0Cl  4px       -0.000000 -0.000000 -0.000000 -0.000000  0.914425 -0.545197
  0Cl  4py       -0.000000  0.000000  0.000000 -0.000000 -0.560789 -0.892986
  0Cl  5pz       -0.000000 -0.000000  0.000000  0.000000  0.002489 -0.063274
  0Cl  5px        0.000000  0.000000  0.000000  0.000000 -0.242790  0.144713
  0Cl  5py        0.000000 -0.000000 -0.000000  0.000000  0.148896  0.237028
  0Cl  1dz2       0.003872 -0.282370 -0.918391 -0.000265  0.000000  0.000000
  0Cl  1dxz      -0.222922 -0.556851  0.162561 -0.000007  0.000000 -0.000000
  0Cl  1dyz       0.125631 -0.902552  0.282804  0.000004 -0.000000 -0.000000
  0Cl  1dx2y2     0.962165 -0.082187 -0.237895  0.000208 -0.000000  0.000000
  0Cl  1dxy       0.491929  0.141127  0.473970 -0.000409 -0.000000  0.000000
  0Cl  2dz2      -0.002328  0.171198  0.556810 -0.000202 -0.000000 -0.000000
  0Cl  2dxz       0.134068  0.337612 -0.098559 -0.000005 -0.000000  0.000000
  0Cl  2dyz      -0.075556  0.547207 -0.171461  0.000003  0.000000 -0.000000
  0Cl  2dx2y2    -0.578657  0.049829  0.144233  0.000159  0.000000  0.000000
  0Cl  2dxy      -0.295852 -0.085564 -0.287362 -0.000312 -0.000000 -0.000000
  0Cl  1f0        0.000000 -0.000000  0.000000 -0.000000  0.000000 -0.000002
  0Cl  1f+1       0.000000  0.000000 -0.000000 -0.000000 -0.000010  0.000002
  0Cl  1f-1      -0.000000  0.000000  0.000000  0.000000  0.000006  0.000003
  0Cl  1f+2      -0.000000 -0.000000  0.000000  0.000000 -0.000000  0.000001
  0Cl  1f-2      -0.000000  0.000000 -0.000000 -0.000000  0.000000 -0.000002
  0Cl  1f+3      -0.000000 -0.000000 -0.000000 -0.000000  0.000001  0.000013
  0Cl  1f-3       0.000000 -0.000000 -0.000000  0.000000  0.000015 -0.000001
                     36        37   
                  26.17908 218.72166
                   0.00000   0.00000
                  --------  --------
  0Cl  1s        -0.000000  1.541309
  0Cl  2s         0.000000 -1.911233
  0Cl  3s        -0.000000  1.419519
  0Cl  4s         0.000000 -0.929942
  0Cl  5s        -0.000000  0.330579
  0Cl  6s         0.000000 -0.126734
  0Cl  1pz       -3.271184 -0.000000
  0Cl  1px       -0.414042 -0.000000
  0Cl  1py       -0.620445 -0.000000
  0Cl  2pz       -3.315185 -0.000000
  0Cl  2px       -0.419611 -0.000000
  0Cl  2py       -0.628791 -0.000000
  0Cl  3pz        2.253764  0.000000
  0Cl  3px        0.285264  0.000000
  0Cl  3py        0.427471  0.000000
  0Cl  4pz       -1.046220 -0.000000
  0Cl  4px       -0.132423 -0.000000
  0Cl  4py       -0.198436 -0.000000
  0Cl  5pz        0.277701  0.000000
  0Cl  5px        0.035149  0.000000
  0Cl  5py        0.052672 -0.000000
  0Cl  1dz2      -0.000000  0.000000
  0Cl  1dxz       0.000000  0.000000
  0Cl  1dyz      -0.000000 -0.000000
  0Cl  1dx2y2    -0.000000 -0.000000
  0Cl  1dxy       0.000000  0.000001
  0Cl  2dz2       0.000000  0.000000
  0Cl  2dxz      -0.000000  0.000000
  0Cl  2dyz      -0.000000 -0.000000
  0Cl  2dx2y2    -0.000000 -0.000000
  0Cl  2dxy       0.000000  0.000000
  0Cl  1f0        0.000008  0.000000
  0Cl  1f+1       0.000001  0.000000
  0Cl  1f-1       0.000000 -0.000000
  0Cl  1f+2      -0.000005  0.000000
  0Cl  1f-2       0.000010 -0.000000
  0Cl  1f+3       0.000003 -0.000000
  0Cl  1f-3      -0.000000 -0.000000



                    ********************************
                    * MULLIKEN POPULATION ANALYSIS *
                    ********************************

--------------------------------------------
MULLIKEN ATOMIC CHARGES AND SPIN POPULATIONS
--------------------------------------------
   0 Cl:    0.000000    1.000000
Sum of atomic charges         :    0.0000000
Sum of atomic spin populations:    1.0000000

-----------------------------------------------------
MULLIKEN REDUCED ORBITAL CHARGES AND SPIN POPULATIONS
-----------------------------------------------------
CHARGE
  0 Cls       :     5.995759  s :     5.995759
      pz      :     3.999677  p :    10.999166
      px      :     3.273050
      py      :     3.726440
      dz2     :     0.001060  d :     0.004241
      dxz     :     0.000001
      dyz     :     0.000000
      dx2y2   :     0.000654
      dxy     :     0.002527
      f0      :     0.000093  f :     0.000834
      f+1     :     0.000097
      f-1     :     0.000046
      f+2     :     0.000032
      f-2     :     0.000123
      f+3     :     0.000231
      f-3     :     0.000213

SPIN
  0 Cls       :     0.000804  s :     0.000804
      pz      :    -0.000147  p :     0.999213
      px      :     0.726328
      py      :     0.273032
      dz2     :    -0.000201  d :    -0.000804
      dxz     :    -0.000000
      dyz     :    -0.000000
      dx2y2   :    -0.000124
      dxy     :    -0.000479
      f0      :     0.000084  f :     0.000787
      f+1     :     0.000096
      f-1     :     0.000045
      f+2     :     0.000029
      f-2     :     0.000111
      f+3     :     0.000210
      f-3     :     0.000212


                     *******************************
                     * LOEWDIN POPULATION ANALYSIS *
                     *******************************

-------------------------------------------
LOEWDIN ATOMIC CHARGES AND SPIN POPULATIONS
-------------------------------------------
   0 Cl:    0.000000    1.000000

----------------------------------------------------
LOEWDIN REDUCED ORBITAL CHARGES AND SPIN POPULATIONS
----------------------------------------------------
CHARGE
  0 Cls       :     5.995759  s :     5.995759
      pz      :     3.999677  p :    10.999166
      px      :     3.273050
      py      :     3.726440
      dz2     :     0.001060  d :     0.004241
      dxz     :     0.000001
      dyz     :     0.000000
      dx2y2   :     0.000654
      dxy     :     0.002527
      f0      :     0.000093  f :     0.000834
      f+1     :     0.000097
      f-1     :     0.000046
      f+2     :     0.000032
      f-2     :     0.000123
      f+3     :     0.000231
      f-3     :     0.000213

SPIN
  0 Cls       :     0.000804  s :     0.000804
      pz      :    -0.000147  p :     0.999213
      px      :     0.726328
      py      :     0.273032
      dz2     :    -0.000201  d :    -0.000804
      dxz     :    -0.000000
      dyz     :    -0.000000
      dx2y2   :    -0.000124
      dxy     :    -0.000479
      f0      :     0.000084  f :     0.000787
      f+1     :     0.000096
      f-1     :     0.000045
      f+2     :     0.000029
      f-2     :     0.000111
      f+3     :     0.000210
      f-3     :     0.000212


                      *****************************
                      * MAYER POPULATION ANALYSIS *
                      *****************************

  NA   - Mulliken gross atomic population
  ZA   - Total nuclear charge
  QA   - Mulliken gross atomic charge
  VA   - Mayer's total valence
  BVA  - Mayer's bonded valence
  FA   - Mayer's free valence

  ATOM       NA         ZA         QA         VA         BVA        FA
  0 Cl    17.0000    17.0000     0.0000     1.0189     0.0000     1.0189

  Mayer bond orders larger than 0.100000


Now starting NBO....

 *********************************** NBO 7.0 ***********************************
             N A T U R A L   A T O M I C   O R B I T A L   A N D
          N A T U R A L   B O N D   O R B I T A L   A N A L Y S I S
 *********************** Giovanni  F. Caramori (I101916) ***********************
  (c) Copyright 1996-2020 Board of Regents of the University of Wisconsin System
      on behalf of the Theoretical Chemistry Institute.  All rights reserved.

          Cite this program [NBO 7.0.8 (11-Feb-2020)] as:

          NBO 7.0.  E. D. Glendening, J. K. Badenhoop, A. E. Reed,
          J. E. Carpenter, J. A. Bohmann, C. M. Morales, P. Karafiloglou,
          C. R. Landis, and F. Weinhold, Theoretical Chemistry Institute,
          University of Wisconsin, Madison, WI (2018)

       /NPA    / : Natural Population Analysis
       /NBO    / : Natural Bond Orbital Analysis
       /AONBO  / : Checkpoint the AO to NBO transformation
       /ARCHIVE/ : Write the archive file to lfn47

 Job title: ORCA Job: Cl·


 NATURAL POPULATIONS:  Natural atomic orbital occupancies

  NAO Atom No lang   Type(AO)    Occupancy     Spin
 -----------------------------------------------------
   1   Cl  1  s      Cor( 1s)     2.00000     0.00000
   2   Cl  1  s      Cor( 2s)     2.00000     0.00000
   3   Cl  1  s      Val( 3s)     1.99573     0.00080
   4   Cl  1  s      Ryd( 4s)     0.00003     0.00000
   5   Cl  1  s      Ryd( 5s)     0.00000     0.00000
   6   Cl  1  s      Ryd( 6s)     0.00000     0.00000
   7   Cl  1  px     Cor( 2p)     2.00000     0.00000
   8   Cl  1  px     Val( 3p)     1.27229     0.72568
   9   Cl  1  px     Ryd( 4p)     0.00076     0.00065
  10   Cl  1  px     Ryd( 5p)     0.00000     0.00000
  11   Cl  1  px     Ryd( 6p)     0.00000     0.00000
  12   Cl  1  py     Cor( 2p)     2.00000     0.00000
  13   Cl  1  py     Val( 3p)     1.72603     0.27291
  14   Cl  1  py     Ryd( 4p)     0.00041     0.00013
  15   Cl  1  py     Ryd( 5p)     0.00000     0.00000
  16   Cl  1  py     Ryd( 6p)     0.00000     0.00000
  17   Cl  1  pz     Cor( 2p)     2.00000     0.00000
  18   Cl  1  pz     Val( 3p)     1.99948     0.00004
  19   Cl  1  pz     Ryd( 4p)     0.00019    -0.00019
  20   Cl  1  pz     Ryd( 5p)     0.00000     0.00000
  21   Cl  1  pz     Ryd( 6p)     0.00000     0.00000
  22   Cl  1  dxy    Ryd( 3d)     0.00252    -0.00048
  23   Cl  1  dxy    Ryd( 4d)     0.00000     0.00000
  24   Cl  1  dxz    Ryd( 3d)     0.00000     0.00000
  25   Cl  1  dxz    Ryd( 4d)     0.00000     0.00000
  26   Cl  1  dyz    Ryd( 3d)     0.00000     0.00000
  27   Cl  1  dyz    Ryd( 4d)     0.00000     0.00000
  28   Cl  1  dx2y2  Ryd( 3d)     0.00065    -0.00012
  29   Cl  1  dx2y2  Ryd( 4d)     0.00000     0.00000
  30   Cl  1  dz2    Ryd( 3d)     0.00106    -0.00020
  31   Cl  1  dz2    Ryd( 4d)     0.00000     0.00000
  32   Cl  1  f(0)   Ryd( 4f)     0.00009     0.00008
  33   Cl  1  f(c1)  Ryd( 4f)     0.00010     0.00010
  34   Cl  1  f(s1)  Ryd( 4f)     0.00005     0.00004
  35   Cl  1  f(c2)  Ryd( 4f)     0.00003     0.00003
  36   Cl  1  f(s2)  Ryd( 4f)     0.00012     0.00011
  37   Cl  1  f(c3)  Ryd( 4f)     0.00023     0.00021
  38   Cl  1  f(s3)  Ryd( 4f)     0.00021     0.00021


 Summary of Natural Population Analysis:

                                     Natural Population                 Natural
             Natural    ---------------------------------------------    Spin
  Atom No    Charge        Core      Valence    Rydberg      Total      Density
 -------------------------------------------------------------------------------
   Cl  1    0.00000      9.99999     6.99354    0.00647    17.00000     1.00000
 ===============================================================================
 * Total *  0.00000      9.99999     6.99354    0.00647    17.00000     1.00000

                                 Natural Population
 ---------------------------------------------------------
   Core                       9.99999 ( 99.9999% of   10)
   Valence                    6.99354 ( 99.9077% of    7)
   Natural Minimal Basis     16.99353 ( 99.9619% of   17)
   Natural Rydberg Basis      0.00647 (  0.0381% of   17)
 ---------------------------------------------------------

    Atom No         Natural Electron Configuration
 ----------------------------------------------------------------------------
     Cl  1      [core]3s( 2.00)3p( 5.00)


 ***************************************************
 *******         Alpha spin orbitals         *******
 ***************************************************


 NATURAL POPULATIONS:  Natural atomic orbital occupancies

  NAO Atom No lang   Type(AO)    Occupancy      Energy
 -------------------------------------------------------
   1   Cl  1  s      Cor( 1s)     1.00000    -104.86877
   2   Cl  1  s      Cor( 2s)     1.00000     -10.63706
   3   Cl  1  s      Val( 3s)     0.99827      -1.13681
   4   Cl  1  s      Ryd( 4s)     0.00001       1.01730
   5   Cl  1  s      Ryd( 5s)     0.00000       9.82826
   6   Cl  1  s      Ryd( 6s)     0.00000     218.53952
   7   Cl  1  px     Cor( 2p)     1.00000      -8.09475
   8   Cl  1  px     Val( 3p)     0.99898      -0.56074
   9   Cl  1  px     Ryd( 4p)     0.00070       0.38779
  10   Cl  1  px     Ryd( 5p)     0.00000       2.50050
  11   Cl  1  px     Ryd( 6p)     0.00000      26.02543
  12   Cl  1  py     Cor( 2p)     1.00000      -8.08363
  13   Cl  1  py     Val( 3p)     0.99947      -0.52563
  14   Cl  1  py     Ryd( 4p)     0.00027       0.40247
  15   Cl  1  py     Ryd( 5p)     0.00000       2.52456
  16   Cl  1  py     Ryd( 6p)     0.00000      26.04481
  17   Cl  1  pz     Cor( 2p)     1.00000      -8.07692
  18   Cl  1  pz     Val( 3p)     0.99976      -0.50447
  19   Cl  1  pz     Ryd( 4p)     0.00000       0.41132
  20   Cl  1  pz     Ryd( 5p)     0.00000       2.53906
  21   Cl  1  pz     Ryd( 6p)     0.00000      26.05649
  22   Cl  1  dxy    Ryd( 3d)     0.00102       0.63869
  23   Cl  1  dxy    Ryd( 4d)     0.00000       2.62806
  24   Cl  1  dxz    Ryd( 3d)     0.00000       0.65230
  25   Cl  1  dxz    Ryd( 4d)     0.00000       2.63868
  26   Cl  1  dyz    Ryd( 3d)     0.00000       0.67436
  27   Cl  1  dyz    Ryd( 4d)     0.00000       2.65642
  28   Cl  1  dx2y2  Ryd( 3d)     0.00026       0.63893
  29   Cl  1  dx2y2  Ryd( 4d)     0.00000       2.62801
  30   Cl  1  dz2    Ryd( 3d)     0.00043       0.67130
  31   Cl  1  dz2    Ryd( 4d)     0.00000       2.65410
  32   Cl  1  f(0)   Ryd( 4f)     0.00009       2.34640
  33   Cl  1  f(c1)  Ryd( 4f)     0.00010       2.33216
  34   Cl  1  f(s1)  Ryd( 4f)     0.00005       2.35298
  35   Cl  1  f(c2)  Ryd( 4f)     0.00003       2.33106
  36   Cl  1  f(s2)  Ryd( 4f)     0.00012       2.33109
  37   Cl  1  f(c3)  Ryd( 4f)     0.00022       2.31197
  38   Cl  1  f(s3)  Ryd( 4f)     0.00021       2.31197


 Summary of Natural Population Analysis:

                                     Natural Population
             Natural    ---------------------------------------------
  Atom No    Charge        Core      Valence    Rydberg      Total
 --------------------------------------------------------------------
   Cl  1   -0.50000      5.00000     3.99648    0.00352     9.00000
 ====================================================================
 * Total * -0.50000      5.00000     3.99648    0.00352     9.00000

                                 Natural Population
 ---------------------------------------------------------
   Core                       5.00000 ( 99.9999% of    5)
   Valence                    3.99648 ( 99.9121% of    4)
   Natural Minimal Basis      8.99648 ( 99.9609% of    9)
   Natural Rydberg Basis      0.00352 (  0.0391% of    9)
 ---------------------------------------------------------

    Atom No         Natural Electron Configuration
 ----------------------------------------------------------------------------
     Cl  1      [core]3s( 1.00)3p( 3.00)


 NATURAL BOND ORBITAL ANALYSIS, alpha spin orbitals:

                            Occupancies       Lewis Structure    Low   High
         Max    Occ     -------------------  -----------------   occ   occ
  Cycle  Ctr   Thresh    Lewis   non-Lewis     CR  BD  nC  LP    (L)   (NL)
 ============================================================================
    1     1     0.50     9.00000   0.00000      5   0   0   4     0      0
 ----------------------------------------------------------------------------

 Structure accepted: No low occupancy Lewis orbitals

 -------------------------------------------------------
   Core                      5.00000 (100.000% of   5)
   Valence Lewis             4.00000 (100.000% of   4)
  ==================      =============================
   Total Lewis               9.00000 (100.000% of   9)
  -----------------------------------------------------
   Valence non-Lewis         0.00000 (  0.000% of   9)
   Rydberg non-Lewis         0.00000 (  0.000% of   9)
  ==================      =============================
   Total non-Lewis           0.00000 (  0.000% of   9)
 -------------------------------------------------------


     (Occupancy)   Bond orbital / Coefficients / Hybrids
 ------------------ Lewis ------------------------------------------------------
   1. (1.00000) CR ( 1)Cl  1            s(100.00%)
                                         1.0000  0.0000  0.0000  0.0000  0.0000
                                         0.0000  0.0000  0.0000  0.0000  0.0000
                                         0.0000  0.0000  0.0000  0.0000  0.0000
                                         0.0000  0.0000  0.0000  0.0000  0.0000
                                         0.0000  0.0000  0.0000  0.0000  0.0000
                                         0.0000  0.0000  0.0000  0.0000  0.0000
                                         0.0000  0.0000  0.0000  0.0000  0.0000
                                         0.0000  0.0000  0.0000
   2. (1.00000) CR ( 2)Cl  1            s(100.00%)
                                         0.0000  1.0000  0.0000  0.0000  0.0000
                                         0.0000  0.0000  0.0000  0.0000  0.0000
                                         0.0000  0.0000  0.0000  0.0000  0.0000
                                         0.0000  0.0000  0.0000  0.0000  0.0000
                                         0.0000  0.0000  0.0000  0.0000  0.0000
                                         0.0000  0.0000  0.0000  0.0000  0.0000
                                         0.0000  0.0000  0.0000  0.0000  0.0000
                                         0.0000  0.0000  0.0000
   3. (1.00000) CR ( 3)Cl  1            s(  0.00%)p 1.00(100.00%)
                                         0.0000  0.0000  0.0000  0.0000  0.0000
                                         0.0000  1.0000  0.0000  0.0000  0.0000
                                         0.0000  0.0000  0.0000  0.0000  0.0000
[...]
  30. (0.00000) RY (21)Cl  1            s(  0.43%)p 0.00(  0.00%)d99.99( 99.57%)
  31. (0.00000) RY (22)Cl  1            s(  1.06%)p 0.00(  0.00%)d93.13( 98.94%)
  32. (0.00000) RY (23)Cl  1            s(  0.00%)p 1.00(  1.26%)d 0.00(  0.00%)
                                                  f78.67( 98.74%)
  33. (0.00000) RY (24)Cl  1            s(  0.00%)p 1.00(  0.13%)d 0.00(  0.00%)
                                                  f99.99( 99.87%)
  34. (0.00000) RY (25)Cl  1            s(  0.00%)p 1.00(  0.18%)d 0.00(  0.00%)
                                                  f99.99( 99.82%)
  35. (0.00000) RY (26)Cl  1            s(  0.00%)p 1.00(  0.42%)d 0.00(  0.00%)
                                                  f99.99( 99.58%)
  36. (0.00000) RY (27)Cl  1            s(  0.00%)p 1.00(  1.60%)d 0.00(  0.00%)
                                                  f61.45( 98.40%)
  37. (0.00000) RY (28)Cl  1            s(  0.00%)p 1.00(  3.08%)d 0.00(  0.00%)
                                                  f31.48( 96.92%)
  38. (0.00000) RY (29)Cl  1            s(  0.00%)p 1.00(  0.20%)d 0.00(  0.00%)
                                                  f99.99( 99.80%)


 NHO DIRECTIONALITY AND BOND BENDING (deviation from line of nuclear centers at
                                      the position of maximum hybrid amplitude)

         [Thresholds for printing:  angular deviation  >  1.0 degree]
                                    p- or d-character  > 25.0%
                                    orbital occupancy  >  0.10e

                        Line of Centers        Hybrid 1             Hybrid 2
                        ---------------  -------------------  ------------------
           NBO            Theta   Phi    Theta   Phi    Dev   Theta   Phi    Dev
 ===============================================================================
   7. LP ( 2)Cl  1          --     --     90.0  238.5   --      --     --    --
   8. LP ( 3)Cl  1          --     --      0.5  328.5   --      --     --    --


 SECOND ORDER PERTURBATION THEORY ANALYSIS OF FOCK MATRIX IN NBO BASIS

     Threshold for printing:   0.25 kcal/mol
                                                          E(2) E(NL)-E(L) F(L,NL)
      Donor (L) NBO              Acceptor (NL) NBO      kcal/mol   a.u.    a.u.
 ===============================================================================

 within unit  1
       None above threshold


 NATURAL BOND ORBITALS (Summary):

                                                     Principal Delocalizations
           NBO                 Occupancy    Energy   (geminal,vicinal,remote)
 ===============================================================================
 Molecular unit  1  (Cl)
 ------ Lewis --------------------------------------
    1. CR ( 1)Cl  1             1.00000  -104.85786
    2. CR ( 2)Cl  1             1.00000   -10.62563
    3. CR ( 3)Cl  1             1.00000    -8.05749
    4. CR ( 4)Cl  1             1.00000    -8.06591
    5. CR ( 5)Cl  1             1.00000    -8.07098
    6. LP ( 1)Cl  1             1.00000    -1.01837
    7. LP ( 2)Cl  1             1.00000    -0.48292
    8. LP ( 3)Cl  1             1.00000    -0.48292
 ------ non-Lewis ----------------------------------
    9. LV ( 1)Cl  1             0.00000    -0.02371
   10. RY ( 1)Cl  1             0.00001     2.28896
   11. RY ( 2)Cl  1             0.00000     2.73101
   12. RY ( 3)Cl  1             0.00000     0.95220
   13. RY ( 4)Cl  1             0.00000   195.18527
   14. RY ( 5)Cl  1             0.00000     0.78773
   15. RY ( 6)Cl  1             0.00000    26.05354
   16. RY ( 7)Cl  1             0.00000     0.93284
   17. RY ( 8)Cl  1             0.00000     1.95135
   18. RY ( 9)Cl  1             0.00000    26.06725
   19. RY (10)Cl  1             0.00000     1.01442
   20. RY (11)Cl  1             0.00000     1.95135
   21. RY (12)Cl  1             0.00000    26.07551
   22. RY (13)Cl  1             0.00000    29.54108
   23. RY (14)Cl  1             0.00000     3.38976
   24. RY (15)Cl  1             0.00000     0.72048
   25. RY (16)Cl  1             0.00000     2.66182
   26. RY (17)Cl  1             0.00000     0.70292
   27. RY (18)Cl  1             0.00000     2.66695
   28. RY (19)Cl  1             0.00000     0.86700
   29. RY (20)Cl  1             0.00000     3.03205
   30. RY (21)Cl  1             0.00000     0.85582
   31. RY (22)Cl  1             0.00000     3.03515
   32. RY (23)Cl  1             0.00000     2.36229
   33. RY (24)Cl  1             0.00000     2.36637
   34. RY (25)Cl  1             0.00000     2.36822
   35. RY (26)Cl  1             0.00000     2.36464
   36. RY (27)Cl  1             0.00000     2.35923
   37. RY (28)Cl  1             0.00000     2.35286
   38. RY (29)Cl  1             0.00000     2.36441
          -------------------------------
                 Total Lewis    7.99999  ( 99.9999%)
           Valence non-Lewis    0.00000  (  0.0000%)
           Rydberg non-Lewis    0.00001  (  0.0001%)
          -------------------------------
               Total unit  1    8.00000  (100.0000%)
              Charge unit  1    0.50000

 $CHOOSE
  ALPHA
   LONE 1 4 END
  END
  BETA
   LONE 1 3 END
  END
 $END

 NBO analysis completed in 0.08 CPU seconds (0 wall seconds)
 Maximum scratch memory used by NBO was 487459 words (3.72 MB)
Stopping NBO...Storing NBOs: Cl·.nbo

                                *** returned from  NBO  program ***

-------
TIMINGS
-------

Total SCF time: 0 days 0 hours 0 min 5 sec 

Total time                  ....       5.465 sec
Sum of individual times     ....       4.874 sec  ( 89.2%)

Fock matrix formation       ....       4.089 sec  ( 74.8%)
Diagonalization             ....       0.048 sec  (  0.9%)
Density matrix formation    ....       0.012 sec  (  0.2%)
Population analysis         ....       0.303 sec  (  5.5%)
Initial guess               ....       0.190 sec  (  3.5%)
Orbital Transformation      ....       0.000 sec  (  0.0%)
Orbital Orthonormalization  ....       0.000 sec  (  0.0%)
DIIS solution               ....       0.071 sec  (  1.3%)


           ************************************************************
           *        Program running with 12 parallel MPI-processes    *
           *              working on a common directory               *
           ************************************************************

------------------------------------------------------------------------------
                                ORCA  MP2 
------------------------------------------------------------------------------


----------
MP2 ENERGY (disk based algorithm)
----------

Dimension of the basis                    ...   38
Memory devoted to MP2                     ... 3000 MB   
Data format for buffers                   ... DOUBLE
Compression type for matrix containers    ... UNCOMPRESSED

-------------------------------
PARTIAL EXCHANGE TRANSFORMATION
-------------------------------

Transformation type                        ... two-operators
Generation of integrals (i,mue|j,nue)      ... ON
Generation of integrals (mue,kappa|nue,tau)... OFF
Generation of integrals (i,mue|a,nue)      ... OFF
Dimension of the basis                     ...   38
Number of internal alpha-MOs               ...    9 (   0-   8)
Number of internal beta-MOs                ...    8 (   0-   7)
Pair cutoff                                ... 2.500e-12 Eh
Number of AO pairs in the trafo            ...  741
Total Number of distinct AO pairs          ...  741
Memory devoted for trafo                   ... 3000.0 MB 
Max. Number of MO pairs treated together   ... 272310      
Number Format for Storage                  ... Double (8 Byte)
Integral package used                      ... LIBINT

Starting integral evaluation:
    ... done with AO integral generation
Closing buffer AOK[aa] ( 0.00 GB; CompressionRatio= 1.67)
Closing buffer AOK[bb] ( 0.00 GB; CompressionRatio= 1.60)
Closing buffer AOK[ab] ( 0.00 GB; CompressionRatio= 1.60)
Closing buffer AOK[ba] ( 0.00 GB; CompressionRatio= 1.68)
Collecting buffer AOK 
Number of alpha/alpha MO pairs in trafo    ...   45
Number of beta /beta  MO pairs in trafo    ...   36
Number of alpha/ beta MO pairs in trafo    ...   72
------------------------
SORTING OF (i,mue|j,nue)
------------------------

SORTING OF ALPHA/ALPHA PAIRS
IBATCH = 1 of  1
Closing buffer KAO[aa] ( 0.00 GB; CompressionRatio= 1.00)
Collecting buffer KAO 
SORTING OF BETA /BETA  PAIRS
IBATCH = 1 of  1
Closing buffer KAO[bb] ( 0.00 GB; CompressionRatio= 1.00)
Collecting buffer KAO 
SORTING OF ALPHA/BETA  PAIRS
IBATCH = 1 of  1
Closing buffer KAO[ab] ( 0.00 GB; CompressionRatio= 0.998962296783)
Collecting buffer KAO[ab] 
N(AO-Batches) Done                         ...       588 
N(AO-Batches) Skipped                      ...         0 
N(IJ)-pairs Skipped                        ...         0 
TOTAL TIME for half transformation         ...     0.200 sec
AO-integral generation                     ...     0.003 sec
Half transformation                        ...     0.008 sec
K-integral sorting                         ...     0.052 sec
Process  5:   Internal MO   5
Process  8:   Internal MO   8

Finished integral transformation - now doing MP2 part

OPERATOR COMBINATION   0   0: ij=(  0..  8,  0..  8)
Process  2:   Internal MO   2
Process  8:   Internal MO   8
Process  2:   Internal MO   2
Process  5:   Internal MO   5
OPERATOR COMBINATION   0   1: ij=(  0..  8,  0..  7)
Process  2:   Internal MO   2
Process  5:   Internal MO   5
OPERATOR COMBINATION   1   1: ij=(  0..  7,  0..  7)

Correlation energy components
 E2 and T2 for alpha/alpha pairs :     -0.031844942 Eh 
 E2 and T2 for beta/beta   pairs :     -0.018838207 Eh 
 E2 and T2 for alpha/beta  pairs :     -0.163718611 Eh 

-----------------------------------------------
 MP2 CORRELATION ENERGY   :     -0.214401760 Eh
-----------------------------------------------


-------
TIMINGS
-------
Total time                :    0.558 sec
Integral trafo            :    0.205 sec ( 36.7%)
K(i,j)                    :    0.000 sec (  0.0%)
T(i,j)                    :    0.000 sec (  0.0%)

---------------------------------------
MP2 TOTAL ENERGY:     -459.690292411 Eh
---------------------------------------

-------------------------   --------------------
FINAL SINGLE POINT ENERGY      -459.690292411245
-------------------------   --------------------


                            ***************************************
                            *     ORCA property calculations      *
                            ***************************************


  WARNING: The energy has been calculated at the MP2 level but the densities
           used in the property calculations are still SCF densities
           MP2 response densities have not been calculated 
           use %mp2 Density relaxed end
           or  %mp2 Density unrelaxed end

                                    ---------------------
                                    Active property flags
                                    ---------------------
   (+) Dipole Moment


------------------------------------------------------------------------------
                       ORCA ELECTRIC PROPERTIES CALCULATION
------------------------------------------------------------------------------

Dipole Moment Calculation                       ... on
Quadrupole Moment Calculation                   ... off
Polarizability Calculation                      ... off
GBWName                                         ... Cl·.gbw
Electron density file                           ... Cl·.scfp
The origin for moment calculation is the CENTER OF MASS  = ( 0.000000,  0.000000  0.000000)

-------------
DIPOLE MOMENT
-------------
                                X             Y             Z
Electronic contribution:     -0.00000       0.00000      -0.00000
Nuclear contribution   :      0.00000       0.00000       0.00000
                        -----------------------------------------
Total Dipole Moment    :     -0.00000       0.00000      -0.00000
                        -----------------------------------------
Magnitude (a.u.)       :      0.00000
Magnitude (Debye)      :      0.00000



--------------------
Rotational spectrum 
--------------------
 
Rotational constants in cm-1:     0.000000     0.000000     0.000000 
Rotational constants in MHz :     0.000000     0.000000     0.000000 

 Dipole components along the rotational axes: 
x,y,z [a.u.] :    -0.000000     0.000000    -0.000000 
x,y,z [Debye]:    -0.000000     0.000000    -0.000000 

 
------------------------------------------------------------------------------
                         ORCA MP2 H E S S I A N CALCULATION
------------------------------------------------------------------------------

Calculating analytic MP2 second derivatives ... (>Cl·.last_mp2) done
Warning: T+R mode no 3 is zero 
Warning: T+R mode no 4 is zero 
Warning: T+R mode no 5 is zero 
WARNING     : the number of degrees of freedom found cannot be correct
CONSEQUENCE : will not project translation and rotation

-----------------------
VIBRATIONAL FREQUENCIES
-----------------------

Scaling factor for frequencies =  1.000000000  (already applied!)

   0:         0.00 cm**-1
   1:         0.00 cm**-1
   2:         0.00 cm**-1


------------
NORMAL MODES
------------

These modes are the Cartesian displacements weighted by the diagonal matrix
M(i,i)=1/sqrt(m[i]) where m[i] is the mass of the displaced atom
Thus, these vectors are normalized but *not* orthogonal

                   0          1          2    
      0       0.000023   0.005468  -0.999985
      1      -0.000384   0.999985   0.005468
      2       1.000000   0.000384   0.000026


-----------
IR SPECTRUM
-----------

 Mode    freq (cm**-1)   T**2         TX         TY         TZ
-------------------------------------------------------------------

The first frequency considered to be a vibration is 0
The total number of vibrations considered is 3


--------------------------
THERMOCHEMISTRY AT 298.15K
--------------------------

Temperature         ... 298.15 K
Pressure            ... 1.00 atm
Total Mass          ... 35.45 AMU
The molecule is recognized as being linear

Throughout the following assumptions are being made:
  (1) The electronic state is orbitally nondegenerate
      but the spin degeneracy is treated
  (2) There are no thermally accessible electronically excited states
  (3) Hindered rotations indicated by low frequency modes are not
      treated as such but are treated as vibrations and this may
      cause some error
  (4) All equations used are the standard statistical mechanics
      equations for an ideal gas
  (5) All vibrations are strictly harmonic

freq.       0.00  E(vib)   ...       0.59 
freq.       0.00  E(vib)   ...       0.59 
freq.       0.00  E(vib)   ...       0.59 

------------
INNER ENERGY
------------

The inner energy is: U= E(el) + E(ZPE) + E(vib) + E(rot) + E(trans)
    E(el)   - is the total energy from the electronic structure calculation
              = E(kin-el) + E(nuc-el) + E(el-el) + E(nuc-nuc)
    E(ZPE)  - the the zero temperature vibrational energy from the frequency calculation
    E(vib)  - the the finite temperature correction to E(ZPE) due to population
              of excited vibrational states
    E(rot)  - is the rotational thermal energy
    E(trans)- is the translational thermal energy

Summary of contributions to the inner energy U:
Electronic energy                ...   -459.69029241 Eh
Zero point energy                ...      0.00000003 Eh       0.00 kcal/mol
Thermal vibrational correction   ...      0.00283260 Eh       1.78 kcal/mol
Thermal rotational correction    ...      0.00000000 Eh       0.00 kcal/mol
Thermal translational correction ...      0.00141627 Eh       0.89 kcal/mol
-----------------------------------------------------------------------
Total thermal energy                   -459.68604351 Eh


Summary of corrections to the electronic energy:
(perhaps to be used in another calculation)
Total thermal correction                  0.00424887 Eh       2.67 kcal/mol
Non-thermal (ZPE) correction              0.00000003 Eh       0.00 kcal/mol
-----------------------------------------------------------------------
Total correction                          0.00424890 Eh       2.67 kcal/mol


--------
ENTHALPY
--------

The enthalpy is H = U + kB*T
                kB is Boltzmann's constant
Total free energy                 ...   -459.68604351 Eh 
Thermal Enthalpy correction       ...      0.00094421 Eh       0.59 kcal/mol
-----------------------------------------------------------------------
Total Enthalpy                    ...   -459.68509930 Eh


Note: Rotational entropy computed according to Herzberg 
Infrared and Raman Spectra, Chapter V,1, Van Nostrand Reinhold, 1945 
Point Group:  Kh, Symmetry Number:   1  
Rotational constants in cm-1:     0.000000     0.000000     0.000000 

Vibrational entropy computed according to the QRRHO of S. Grimme
Chem.Eur.J. 2012 18 9955


-------
ENTROPY
-------

The entropy contributions are T*S = T*(S(el)+S(vib)+S(rot)+S(trans))
     S(el)   - electronic entropy
     S(vib)  - vibrational entropy
     S(rot)  - rotational entropy
     S(trans)- translational entropy
The entropies will be listed as mutliplied by the temperature to get
units of energy

Electronic entropy                ...      0.00065446 Eh      0.41 kcal/mol
Vibrational entropy               ...            -inf Eh      -inf kcal/mol
Rotational entropy                ...      0.00000000 Eh      0.00 kcal/mol
Translational entropy             ...      0.01740262 Eh     10.92 kcal/mol
-----------------------------------------------------------------------
Final entropy term                ...            -inf Eh      -inf kcal/mol

In case the symmetry of your molecule has not been determined correctly
or in case you have a reason to use a different symmetry number we print 
out the resulting rotational entropy values for sn=1,12 :
 --------------------------------------------------------
|  sn= 1 | S(rot)=             -inf Eh      -inf kcal/mol|
|  sn= 2 | S(rot)=             -inf Eh      -inf kcal/mol|
|  sn= 3 | S(rot)=             -inf Eh      -inf kcal/mol|
|  sn= 4 | S(rot)=             -inf Eh      -inf kcal/mol|
|  sn= 5 | S(rot)=             -inf Eh      -inf kcal/mol|
|  sn= 6 | S(rot)=             -inf Eh      -inf kcal/mol|
|  sn= 7 | S(rot)=             -inf Eh      -inf kcal/mol|
|  sn= 8 | S(rot)=             -inf Eh      -inf kcal/mol|
|  sn= 9 | S(rot)=             -inf Eh      -inf kcal/mol|
|  sn=10 | S(rot)=             -inf Eh      -inf kcal/mol|
|  sn=11 | S(rot)=             -inf Eh      -inf kcal/mol|
|  sn=12 | S(rot)=             -inf Eh      -inf kcal/mol|
 --------------------------------------------------------


-------------------
GIBBS FREE ENERGY
-------------------

The Gibbs free energy is G = H - T*S

Total enthalpy                    ...   -459.68509930 Eh 
Total entropy correction          ...             inf Eh       inf kcal/mol
-----------------------------------------------------------------------
Final Gibbs free energy         ...             inf Eh

For completeness - the Gibbs free energy minus the electronic energy
G-E(el)                           ...             inf Eh       inf kcal/mol


Timings for individual modules:

Sum of individual times         ...       18.523 sec (=   0.309 min)
GTO integral calculation        ...        1.222 sec (=   0.020 min)   6.6 %
SCF iterations                  ...        5.998 sec (=   0.100 min)  32.4 %
MP2 module                      ...        1.318 sec (=   0.022 min)   7.1 %
Analytical frequency calculation...        9.985 sec (=   0.166 min)  53.9 %
                             ****ORCA TERMINATED NORMALLY****
TOTAL RUN TIME: 0 days 0 hours 0 minutes 19 seconds 116 msec
