
                                 *****************
                                 * O   R   C   A *
                                 *****************

           --- An Ab Initio, DFT and Semiempirical electronic structure package ---

                  #######################################################
                  #                        -***-                        #
                  #          Department of theory and spectroscopy      #
                  #               Directorship: Frank Neese             #
                  #        Max Planck Institute fuer Kohlenforschung    #
                  #                Kaiser Wilhelm Platz 1               #
                  #                 D-45470 Muelheim/Ruhr               #
                  #                      Germany                        #
                  #                                                     #
                  #                  All rights reserved                #
                  #                        -***-                        #
                  #######################################################


                         Program Version 4.2.1 -  RELEASE  -


 With contributions from (in alphabetic order):
   Daniel Aravena         : Magnetic Suceptibility
   Michael Atanasov       : Ab Initio Ligand Field Theory (pilot matlab implementation)
   Alexander A. Auer      : GIAO ZORA, VPT2
   Ute Becker             : Parallelization
   Giovanni Bistoni       : ED, misc. LED, open-shell LED, HFLD
   Martin Brehm           : Molecular dynamics
   Dmytro Bykov           : SCF Hessian
   Vijay G. Chilkuri      : MRCI spin determinant printing, contributions to CSF-ICE
   Dipayan Datta          : RHF DLPNO-CCSD density
   Achintya Kumar Dutta   : EOM-CC, STEOM-CC
   Dmitry Ganyushin       : Spin-Orbit,Spin-Spin,Magnetic field MRCI
   Miquel Garcia          : C-PCM Hessian, Gaussian charge scheme
   Yang Guo               : DLPNO-NEVPT2, CIM, IAO-localization
   Andreas Hansen         : Spin unrestricted coupled pair/coupled cluster methods
   Benjamin Helmich-Paris : CASSCF linear response (MC-RPA)
   Lee Huntington         : MR-EOM, pCC
   Robert Izsak           : Overlap fitted RIJCOSX, COSX-SCS-MP3, EOM
   Christian Kollmar      : KDIIS, OOCD, Brueckner-CCSD(T), CCSD density
   Simone Kossmann        : Meta GGA functionals, TD-DFT gradient, OOMP2, MP2 Hessian
   Martin Krupicka        : AUTO-CI
   Lucas Lang             : DCDCAS
   Dagmar Lenk            : GEPOL surface, SMD
   Dimitrios Liakos       : Extrapolation schemes; Compound Job, initial MDCI parallelization
   Dimitrios Manganas     : Further ROCIS development; embedding schemes
   Dimitrios Pantazis     : SARC Basis sets
   Taras Petrenko         : DFT Hessian,TD-DFT gradient, ASA, ECA, R-Raman, ABS, FL, XAS/XES, NRVS
   Peter Pinski           : DLPNO-MP2, DLPNO-MP2 Gradient
   Christoph Reimann      : Effective Core Potentials
   Marius Retegan         : Local ZFS, SOC
   Christoph Riplinger    : Optimizer, TS searches, QM/MM, DLPNO-CCSD(T), (RO)-DLPNO pert. Triples
   Tobias Risthaus        : Range-separated hybrids, TD-DFT gradient, RPA, STAB
   Michael Roemelt        : Original ROCIS implementation
   Masaaki Saitow         : Open-shell DLPNO-CCSD energy and density
   Barbara Sandhoefer     : DKH picture change effects
   Avijit Sen             : IP-ROCIS
   Kantharuban Sivalingam : CASSCF convergence, NEVPT2, FIC-MRCI
   Bernardo de Souza      : ESD, SOC TD-DFT
   Georgi Stoychev        : AutoAux, RI-MP2 NMR
   Willem Van den Heuvel  : Paramagnetic NMR
   Boris Wezisla          : Elementary symmetry handling
   Frank Wennmohs         : Technical directorship


 We gratefully acknowledge several colleagues who have allowed us to
 interface, adapt or use parts of their codes:
   Stefan Grimme, W. Hujo, H. Kruse,             : VdW corrections, initial TS optimization,
                  C. Bannwarth                     DFT functionals, gCP, sTDA/sTD-DF
   Ed Valeev, F. Pavosevic, A. Kumar             : LibInt (2-el integral package), F12 methods
   Garnet Chan, S. Sharma, J. Yang, R. Olivares  : DMRG
   Ulf Ekstrom                                   : XCFun DFT Library
   Mihaly Kallay                                 : mrcc  (arbitrary order and MRCC methods)
   Andreas Klamt, Michael Diedenhofen            : otool_cosmo (COSMO solvation model)
   Jiri Pittner, Ondrej Demel                    : Mk-CCSD
   Frank Weinhold                                : gennbo (NPA and NBO analysis)
   Christopher J. Cramer and Donald G. Truhlar   : smd solvation model
   Lars Goerigk                                  : TD-DFT with DH, B97 family of functionals
   V. Asgeirsson, H. Jonsson                     : NEB implementation
   FAccTs GmbH                                   : IRC, NEB, NEB-TS, Multilevel, MM, QM/MM, CI optimization
   S Lehtola, MJT Oliveira, MAL Marques          : LibXC Library


 Your calculation uses the libint2 library for the computation of 2-el integrals
 For citations please refer to: http://libint.valeyev.net

 Your ORCA version has been built with support for libXC version: 4.2.3
 For citations please refer to: https://tddft.org/programs/libxc/

 This ORCA versions uses:
   CBLAS   interface :  Fast vector & matrix operations
   LAPACKE interface :  Fast linear algebra routines
   SCALAPACK package :  Parallel linear algebra routines


----- Orbital basis set information -----
Your calculation utilizes the basis: 6-311G(2df,2pd)
   H, Li - Ne  : R. Krishnan, J. S. Binkley, R. Seeger and J. A. Pople, J. Chem. Phys. 72, 650 (1980).
   Na - Ar     : A. D. McLean and G. S. Chandler J. Chem. Phys. 72, 5639, (1980).
   K  - Ca     : J.-P. Blaudeau, M. P. McGrath, L. A. Curtiss and L. Radom, J. Chem. Phys. 107, 5016 (1997).
   Ga - Kr     : L. A. Curtiss, M. P. McGrath, J.-P. Blandeau, N. E. Davis, R. C. Binning and L. Radom, J. Chem. Phys. 103, 6104 (1995).
   Pol./Diff.
   H, Li - Cl  : T. Clark, J. Chandrasekhar and P. v. R. Schleyer, J. Comp. Chem. 4, 294 (1983).
   H - Ne      : M. J. Frisch, J. A. Pople and J. S. Binkley, J. Chem. Phys. 80, 3265 (1984).

================================================================================
                                        WARNINGS
                       Please study these warnings very carefully!
================================================================================


WARNING: Geometry Optimization
  ===> : Switching off AutoStart
         For restart on a previous wavefunction, please use MOREAD

WARNING: Post HF methods need fully converged wavefunctions
  ===> : Setting SCFConvForced true
         You can overwrite this default with %scf ConvForced false 


INFO   : the flag for use of LIBINT has been found!

================================================================================
                                       INPUT FILE
================================================================================
NAME = H3CHCl‡.inp
|  1> ! UHF MP2 6-311G(2df,2pd) OptTS Freq IRC NoFrozenCore TightOpt TightSCF Grid4 FinalGrid5 PrintBasis PrintMOs NBO
|  2> %maxcore 2000
|  3> 
|  4> *xyz 0 2
|  5> C        0.000084000      0.000009000      1.937284000
|  6> H       -1.056738000      0.000072000      2.154239000
|  7> H        0.528433000     -0.915241000      2.154332000
|  8> H       -0.000001000     -0.000097000      0.597378000
|  9> H        0.528527000      0.915228000      2.154201000
| 10> Cl      -0.000303000      0.000029000     -0.853145000
| 11> *
| 12> 
| 13> %pal
| 14>  nprocs 12
| 15> end
| 16> 
| 17> %geom
| 18>  inhess read
| 19>  inhessname "freq.hess"
| 20>  ts_mode
| 21>   {B 0 3}
| 22>  end
| 23>  ts_active_atoms
| 24>   {0 3 5}
| 25>  end
| 26>  modify_internal
| 27>   {B 0 3 A}
| 28>   {B 3 5 A}
| 29>  end
| 30> end
| 31> 
| 32> %irc
| 33>  maxiter 1000
| 34>  de_init_displ 0.25
| 35> end
| 36> 
| 37>                          ****END OF INPUT****
================================================================================

                       *****************************
                       * Geometry Optimization Run *
                       *****************************

Geometry optimization settings:
Update method            Update   .... Bofill
Choice of coordinates    CoordSys .... Z-matrix Internals
Initial Hessian          InHess   .... Read

Convergence Tolerances:
Energy Change            TolE     ....  1.0000e-06 Eh
Max. Gradient            TolMAXG  ....  1.0000e-04 Eh/bohr
RMS Gradient             TolRMSG  ....  3.0000e-05 Eh/bohr
Max. Displacement        TolMAXD  ....  1.0000e-03 bohr
RMS Displacement         TolRMSD  ....  6.0000e-04 bohr
Strict Convergence                ....  False
------------------------------------------------------------------------------
                        ORCA OPTIMIZATION COORDINATE SETUP
------------------------------------------------------------------------------

The optimization will be done in new redundant internal coordinates
Making redundant internal coordinates   ...  (new redundants) Bond   3,  0 is already included
Bond   5,  3 is already included
done
Following TS mode number                ...    internal coordinate number:  3
TS-active-atoms for coordinate setup... 0 3 5 
Evaluating the initial hessian          ... (Reading Exact Hessian)...  
InHessName: freq.hess	The file <freq.hess> is opened as a .hess file
done
done
Diagonalizing the Hessian               .... done
Dimension of the hessian                .... 14
Lowest eigenvalues of the non projected Hessian:
 -0.028652719 -0.000000000  0.000000000  0.001920074  0.024217739
done
Evaluating the coordinates              ...  done
Calculating the B-matrix                .... done
Calculating the G-matrix                .... done
Diagonalizing the G-matrix              .... done
The first mode is                       ....    2
The number of degrees of freedom        ....   12

    -----------------------------------------------------------------
                    Redundant Internal Coordinates


    -----------------------------------------------------------------
         Definition                    Initial Value    d2E/dq (diagonal element)
    -----------------------------------------------------------------
      1. B(H   1,C   0)                  1.0789         0.369589   
      2. B(H   2,C   0)                  1.0789         0.369587   
      3. B(H   3,C   0)                  1.3399        -0.009533   
      4. B(H   4,C   0)                  1.0789         0.369581   
      5. B(Cl  5,C   0)                  2.7904         0.039989   
      6. B(Cl  5,H   3)                  1.4505         0.015899   
      7. A(H   1,C   0,H   2)          116.0602         0.083776   
      8. A(H   1,C   0,H   4)          116.0611         0.083773   
      9. A(H   1,C   0,H   3)          101.5974         0.068937   
     10. A(H   2,C   0,H   4)          116.0621         0.083767   
     11. A(H   3,C   0,H   4)          101.6048         0.068941   
     12. A(H   2,C   0,H   3)          101.6040         0.068931   
     13. L(C   0,H   3,Cl  5,H   1, 1) 179.9917         0.024564   
     14. L(C   0,H   3,Cl  5,H   1, 2) 179.9831         0.001938   
    -----------------------------------------------------------------

Number of atoms                         .... 6
Number of degrees of freedom            .... 14

         *************************************************************
         *                GEOMETRY OPTIMIZATION CYCLE   1            *
         *************************************************************
---------------------------------
CARTESIAN COORDINATES (ANGSTROEM)
---------------------------------
  C      0.000084    0.000009    1.937284
  H     -1.056738    0.000072    2.154239
  H      0.528433   -0.915241    2.154332
  H     -0.000001   -0.000097    0.597378
  H      0.528527    0.915228    2.154201
  Cl    -0.000303    0.000029   -0.853145

----------------------------
CARTESIAN COORDINATES (A.U.)
----------------------------
  NO LB      ZA    FRAG     MASS         X           Y           Z
   0 C     6.0000    0    12.011    0.000159    0.000017    3.660936
   1 H     1.0000    0     1.008   -1.996945    0.000136    4.070922
   2 H     1.0000    0     1.008    0.998594   -1.729555    4.071097
   3 H     1.0000    0     1.008   -0.000002   -0.000183    1.128881
   4 H     1.0000    0     1.008    0.998771    1.729530    4.070850
   5 Cl   17.0000    0    35.453   -0.000573    0.000055   -1.612210

--------------------------------
INTERNAL COORDINATES (ANGSTROEM)
--------------------------------
 C      0   0   0     0.000000000000     0.00000000     0.00000000
 H      1   0   0     1.078861536842     0.00000000     0.00000000
 H      1   2   0     1.078862856254   116.06023616     0.00000000
 H      1   2   3     1.339906006889   101.59743710   109.20437234
 H      1   2   3     1.078856249506   116.06108958   218.41004330
 Cl     4   1   2     1.450523036911   179.98738136    48.90260338

---------------------------
INTERNAL COORDINATES (A.U.)
---------------------------
 C      0   0   0     0.000000000000     0.00000000     0.00000000
 H      1   0   0     2.038752841054     0.00000000     0.00000000
 H      1   2   0     2.038755334381   116.06023616     0.00000000
 H      1   2   3     2.532055398216   101.59743710   109.20437234
 H      1   2   3     2.038742849436   116.06108958   218.41004330
 Cl     4   1   2     2.741091290705   179.98738136    48.90260338

---------------------
BASIS SET INFORMATION
---------------------
There are 3 groups of distinct atoms

 Group   1 Type C   : 11s5p2d1f contracted to 4s3p2d1f pattern {6311/311/11/1}
 Group   2 Type H   : 5s2p1d contracted to 3s2p1d pattern {311/11/1}
 Group   3 Type Cl  : 13s10p2d1f contracted to 6s5p2d1f pattern {631111/52111/11/1}

Atom   0C    basis set group =>   1
Atom   1H    basis set group =>   2
Atom   2H    basis set group =>   2
Atom   3H    basis set group =>   2
Atom   4H    basis set group =>   2
Atom   5Cl   basis set group =>   3

-------------------------
BASIS SET IN INPUT FORMAT
-------------------------

 # Basis set for element : H 
 NewGTO H 
 S 3 
   1      33.8650000000      0.0254938145
   2       5.0947900000      0.1903731086
   3       1.1587900000      0.8521614860
 S 1 
   1       0.3258400000      1.0000000000
 S 1 
   1       0.1027410000      1.0000000000
 P 1 
   1       1.5000000000      1.0000000000
 P 1 
   1       0.3750000000      1.0000000000
 D 1 
   1       1.0000000000      1.0000000000
  end;

 # Basis set for element : C 
 NewGTO C 
 S 6 
   1    4563.2400000000      0.0019666502
   2     682.0240000000      0.0152306019
   3     154.9730000000      0.0761269097
   4      44.4553000000      0.2608010331
   5      13.0290000000      0.6164620782
   6       1.8277300000      0.2210060280
 S 3 
   1      20.9642000000      0.1146600807
   2       4.8033100000      0.9199996477
   3       1.4593300000     -0.0030306821
 P 3 
   1      20.9642000000      0.0402486927
   2       4.8033100000      0.2375939567
   3       1.4593300000      0.8158538515
 S 1 
   1       0.4834560000      1.0000000000
 P 1 
   1       0.4834560000      1.0000000000
 S 1 
   1       0.1455850000      1.0000000000
 P 1 
   1       0.1455850000      1.0000000000
 D 1 
   1       1.2520000000      1.0000000000
 D 1 
   1       0.3130000000      1.0000000000
 F 1 
   1       0.8000000000      1.0000000000
  end;

 # Basis set for element : Cl
 NewGTO Cl
 S 6 
   1  105819.0000000000      0.0007380002
   2   15872.0000000000      0.0057180019
   3    3619.6500000000      0.0294950099
   4    1030.8000000000      0.1172860392
   5     339.9080000000      0.3629491212
   6     124.5380000000      0.5841491951
 S 3 
   1     124.5380000000      0.1341769734
   2      49.5135000000      0.6242498762
   3      20.8056000000      0.2917559421
 S 1 
   1       6.5834600000      1.0000000000
 S 1 
   1       2.5646800000      1.0000000000
 S 1 
   1       0.5597630000      1.0000000000
 S 1 
   1       0.1832730000      1.0000000000
 P 5 
   1     589.7760000000      0.0023909997
   2     139.8490000000      0.0185039976
   3      45.1413000000      0.0813769893
   4      16.8733000000      0.2215519708
   5       6.7411000000      0.7725688983
 P 2 
   1       6.7411000000     -1.5722438126
   2       2.7715200000      0.9923888817
 P 1 
   1       1.0238700000      1.0000000000
 P 1 
   1       0.3813680000      1.0000000000
 P 1 
   1       0.1094370000      1.0000000000
 D 1 
   1       1.5000000000      1.0000000000
 D 1 
   1       0.3750000000      1.0000000000
 F 1 
   1       0.7000000000      1.0000000000
  end;



           ************************************************************
           *        Program running with 12 parallel MPI-processes    *
           *              working on a common directory               *
           ************************************************************
------------------------------------------------------------------------------
                           ORCA GTO INTEGRAL CALCULATION
------------------------------------------------------------------------------

                         BASIS SET STATISTICS AND STARTUP INFO

 # of primitive gaussian shells          ...   77
 # of primitive gaussian functions       ...  167
 # of contracted shells                  ...   48
 # of contracted basis functions         ...  124
 Highest angular momentum                ...    3
 Maximum contraction depth               ...    6
 Integral package used                   ... LIBINT
 Integral threshhold            Thresh   ...  2.500e-11
 Primitive cut-off              TCut     ...  2.500e-12


------------------------------ INTEGRAL EVALUATION ----------------------------


 * One electron integrals 
 Pre-screening matrix                    ... done
 Shell pair data                         ... done (   0.000 sec)



           ************************************************************
           *        Program running with 12 parallel MPI-processes    *
           *              working on a common directory               *
           ************************************************************
-------------------------------------------------------------------------------
                                 ORCA SCF
-------------------------------------------------------------------------------

------------
SCF SETTINGS
------------
Hamiltonian:
 Ab initio Hamiltonian  Method          .... Hartree-Fock(GTOs)


General Settings:
 Integral files         IntName         .... H3CHCl‡
 Hartree-Fock type      HFTyp           .... UHF
 Total Charge           Charge          ....    0
 Multiplicity           Mult            ....    2
 Number of Electrons    NEL             ....   27
 Basis Dimension        Dim             ....  124
 Nuclear Repulsion      ENuc            ....     46.9210599865 Eh

Convergence Acceleration:
 DIIS                   CNVDIIS         .... on
   Start iteration      DIISMaxIt       ....    12
   Startup error        DIISStart       ....  0.200000
   # of expansion vecs  DIISMaxEq       ....     5
   Bias factor          DIISBfac        ....   1.050
   Max. coefficient     DIISMaxC        ....  10.000
 Newton-Raphson         CNVNR           .... off
 SOSCF                  CNVSOSCF        .... off
 Level Shifting         CNVShift        .... on
   Level shift para.    LevelShift      ....    0.2500
   Turn off err/grad.   ShiftErr        ....    0.0010
 Zerner damping         CNVZerner       .... off
 Static damping         CNVDamp         .... on
   Fraction old density DampFac         ....    0.7000
   Max. Damping (<1)    DampMax         ....    0.9800
   Min. Damping (>=0)   DampMin         ....    0.0000
   Turn off err/grad.   DampErr         ....    0.1000
 Fernandez-Rico         CNVRico         .... off

SCF Procedure:
 Maximum # iterations   MaxIter         ....   125
 SCF integral mode      SCFMode         .... Direct
   Integral package                     .... LIBINT
 Reset frequency        DirectResetFreq ....    20
 Integral Threshold     Thresh          ....  2.500e-11 Eh
 Primitive CutOff       TCut            ....  2.500e-12 Eh

Convergence Tolerance:
 Convergence Check Mode ConvCheckMode   .... Total+1el-Energy
 Convergence forced     ConvForced      .... 1
 Energy Change          TolE            ....  1.000e-08 Eh
 1-El. energy change                    ....  1.000e-05 Eh
 DIIS Error             TolErr          ....  5.000e-07


Diagonalization of the overlap matrix:
Smallest eigenvalue                        ... 2.399e-03
Time for diagonalization                   ...    0.007 sec
Threshold for overlap eigenvalues          ... 1.000e-08
Number of eigenvalues below threshold      ... 0
Time for construction of square roots      ...    0.011 sec
Total time needed                          ...    0.018 sec

-------------------
DFT GRID GENERATION
-------------------

General Integration Accuracy     IntAcc      ...  4.670
Radial Grid Type                 RadialGrid  ... Gauss-Chebyshev
Angular Grid (max. acc.)         AngularGrid ... Lebedev-302
Angular grid pruning method      GridPruning ... 3 (G Style)
Weight generation scheme         WeightScheme... Becke
Basis function cutoff            BFCut       ...    1.0000e-11
Integration weight cutoff        WCut        ...    1.0000e-14
Grids for H and He will be reduced by one unit

# of grid points (after initial pruning)     ...  26526 (   0.0 sec)
# of grid points (after weights+screening)   ...  25705 (   0.0 sec)
nearest neighbour list constructed           ...    0.0 sec
Grid point re-assignment to atoms done       ...    0.0 sec
Grid point division into batches done        ...    0.3 sec
Reduced shell lists constructed in    0.3 sec

Total number of grid points                  ...    25705
Total number of batches                      ...      405
Average number of points per batch           ...       63
Average number of grid points per atom       ...     4284
Average number of shells per batch           ...    40.00 (83.33%)
Average number of basis functions per batch  ...   107.20 (86.45%)
Average number of large shells per batch     ...    37.94 (94.86%)
Average number of large basis fcns per batch ...   100.00 (93.28%)
Maximum spatial batch extension              ...   1.47,  1.65,  3.00 au
Average spatial batch extension              ...   0.08,  0.08,  0.08 au

Time for grid setup =    0.407 sec

------------------------------
INITIAL GUESS: MODEL POTENTIAL
------------------------------
Loading Hartree-Fock densities                     ... done
Calculating cut-offs                               ... done
Setting up the integral package                    ... done
Initializing the effective Hamiltonian             ... done
Starting the Coulomb interaction                   ... done (   0.0 sec)
Reading the grid                                   ... done
Mapping shells                                     ... done
Starting the XC term evaluation                    ... done (   0.1 sec)
Transforming the Hamiltonian                       ... done (   0.0 sec)
Diagonalizing the Hamiltonian                      ... done (   0.0 sec)
Back transforming the eigenvectors                 ... done (   0.0 sec)
Now organizing SCF variables                       ... done
                      ------------------
                      INITIAL GUESS DONE (   0.7 sec)
                      ------------------
--------------
SCF ITERATIONS
--------------
ITER       Energy         Delta-E        Max-DP      RMS-DP      [F,P]     Damp
               ***  Starting incremental Fock matrix formation  ***
  0   -499.5496438579   0.000000000000 0.02822151  0.00043355  0.6490924 0.7000
  1   -499.5829327353  -0.033288877324 0.01944100  0.00033252  0.4562184 0.7000
  2   -499.6044889662  -0.021556230910 0.01145451  0.00022444  0.3206114 0.7000
  3   -499.6188609570  -0.014371990789 0.00643498  0.00015223  0.2253635 0.7000
                               ***Turning on DIIS***
  4   -499.6288879656  -0.010027008651 0.00401996  0.00010835  0.1584383 0.7000
  5   -499.7080927688  -0.079204803211 0.00367054  0.00009017  0.1113995 0.7000
  6   -499.7025738671   0.005518901727 0.01168402  0.00026091  0.0781320 0.0000
  7   -499.6569087679   0.045665099243 0.00314975  0.00006414  0.0053313 0.0000
  8   -499.6524234519   0.004485315951 0.00294583  0.00006286  0.0036560 0.0000
  9   -499.6548493649  -0.002425912976 0.00131954  0.00003511  0.0021079 0.0000
 10   -499.6541929938   0.000656371043 0.00067448  0.00001942  0.0011176 0.0000
 11   -499.6547305262  -0.000537532387 0.00087601  0.00001782  0.0006243 0.0000
 12   -499.6549036170  -0.000173090799 0.00036030  0.00000632  0.0001515 0.0000
 13   -499.6549640263  -0.000060409257 0.00026057  0.00000370  0.0000723 0.0000
 14   -499.6550804647  -0.000116438388 0.00012354  0.00000177  0.0000258 0.0000
 15   -499.6551077222  -0.000027257512 0.00001998  0.00000057  0.0000110 0.0000
 16   -499.6551360553  -0.000028333147 0.00001239  0.00000030  0.0000037 0.0000
 17   -499.6551339938   0.000002061548 0.00000357  0.00000009  0.0000011 0.0000
                            ***DIIS convergence achieved***

               *****************************************************
               *                     SUCCESS                       *
               *           SCF CONVERGED AFTER  18 CYCLES          *
               *****************************************************


----------------
TOTAL SCF ENERGY
----------------

Total Energy       :         -499.65513596 Eh          -13596.30747 eV

Components:
Nuclear Repulsion  :           46.92105999 Eh            1276.78695 eV
Electronic Energy  :         -546.57619594 Eh          -14873.09443 eV
One Electron Energy:         -781.85645826 Eh          -21275.39585 eV
Two Electron Energy:          235.28026231 Eh            6402.30142 eV

Virial components:
Potential Energy   :         -999.35630645 Eh          -27193.86761 eV
Kinetic Energy     :          499.70117049 Eh           13597.56014 eV
Virial Ratio       :            1.99990788


---------------
SCF CONVERGENCE
---------------

  Last Energy change         ...   -1.9644e-06  Tolerance :   1.0000e-08
  Last MAX-Density change    ...    1.7096e-06  Tolerance :   1.0000e-07
  Last RMS-Density change    ...    3.8153e-08  Tolerance :   5.0000e-09
  Last DIIS Error            ...    2.6368e-07  Tolerance :   5.0000e-07

             **** THE GBW FILE WAS UPDATED (H3CHCl‡.gbw) ****
             **** DENSITY FILE WAS UPDATED (H3CHCl‡.scfp) ****
             **** ENERGY FILE WAS UPDATED (H3CHCl‡.en.tmp) ****
----------------------
UHF SPIN CONTAMINATION
----------------------

Expectation value of <S**2>     :     0.785619
Ideal value S*(S+1) for S=0.5   :     0.750000
Deviation                       :     0.035619

             **** THE GBW FILE WAS UPDATED (H3CHCl‡.gbw) ****
             **** DENSITY FILE WAS UPDATED (H3CHCl‡.scfp) ****
----------------
ORBITAL ENERGIES
----------------
                 SPIN UP ORBITALS
  NO   OCC          E(Eh)            E(eV) 
   0   1.0000    -104.823113     -2852.3819 
   1   1.0000     -11.279131      -306.9208 
   2   1.0000     -10.548943      -287.0513 
   3   1.0000      -8.026038      -218.3996 
   4   1.0000      -8.012726      -218.0374 
   5   1.0000      -8.012726      -218.0374 
   6   1.0000      -1.103708       -30.0334 
   7   1.0000      -1.002291       -27.2737 
   8   1.0000      -0.647900       -17.6303 
   9   1.0000      -0.618514       -16.8306 
  10   1.0000      -0.618509       -16.8305 
  11   1.0000      -0.454939       -12.3795 
  12   1.0000      -0.454939       -12.3795 
  13   1.0000      -0.419800       -11.4233 
  14   0.0000       0.134585         3.6622 
  15   0.0000       0.199264         5.4222 
  16   0.0000       0.199267         5.4223 
  17   0.0000       0.265643         7.2285 
  18   0.0000       0.327029         8.8989 
  19   0.0000       0.373645        10.1674 
  20   0.0000       0.373650        10.1675 
  21   0.0000       0.436323        11.8729 
  22   0.0000       0.452284        12.3073 
  23   0.0000       0.452295        12.3076 
  24   0.0000       0.505633        13.7590 
  25   0.0000       0.560229        15.2446 
  26   0.0000       0.560244        15.2450 
  27   0.0000       0.622458        16.9379 
  28   0.0000       0.627512        17.0755 
  29   0.0000       0.627516        17.0756 
  30   0.0000       0.691521        18.8173 
  31   0.0000       0.691522        18.8173 
  32   0.0000       0.747438        20.3388 
  33   0.0000       0.747450        20.3392 
  34   0.0000       0.826932        22.5020 
  35   0.0000       0.944014        25.6879 
  36   0.0000       0.997489        27.1430 
  37   0.0000       1.097069        29.8528 
  38   0.0000       1.097082        29.8531 
  39   0.0000       1.117767        30.4160 
  40   0.0000       1.157338        31.4928 
  41   0.0000       1.157353        31.4932 
  42   0.0000       1.263282        34.3756 
  43   0.0000       1.370153        37.2838 
  44   0.0000       1.370190        37.2848 
  45   0.0000       1.378926        37.5225 
  46   0.0000       1.493868        40.6502 
  47   0.0000       1.493889        40.6508 
  48   0.0000       1.554805        42.3084 
  49   0.0000       1.554811        42.3086 
  50   0.0000       1.680938        45.7407 
  51   0.0000       1.956119        53.2287 
  52   0.0000       2.321692        63.1765 
  53   0.0000       2.327511        63.3348 
  54   0.0000       2.327516        63.3349 
  55   0.0000       2.380570        64.7786 
  56   0.0000       2.380582        64.7789 
  57   0.0000       2.413343        65.6704 
  58   0.0000       2.413380        65.6714 
  59   0.0000       2.481808        67.5334 
  60   0.0000       2.481815        67.5336 
  61   0.0000       2.559988        69.6608 
  62   0.0000       2.573657        70.0328 
  63   0.0000       2.573682        70.0334 
  64   0.0000       2.689500        73.1850 
  65   0.0000       2.752868        74.9094 
  66   0.0000       2.752869        74.9094 
  67   0.0000       2.809944        76.4625 
  68   0.0000       2.888952        78.6124 
  69   0.0000       2.888976        78.6130 
  70   0.0000       3.091382        84.1208 
  71   0.0000       3.091395        84.1211 
  72   0.0000       3.154679        85.8432 
  73   0.0000       3.188718        86.7694 
  74   0.0000       3.188752        86.7704 
  75   0.0000       3.208667        87.3123 
  76   0.0000       3.240938        88.1904 
  77   0.0000       3.241021        88.1927 
  78   0.0000       3.370290        91.7103 
  79   0.0000       3.371325        91.7384 
  80   0.0000       3.481850        94.7460 
  81   0.0000       3.481864        94.7463 
  82   0.0000       3.559331        96.8543 
  83   0.0000       3.559452        96.8576 
  84   0.0000       3.652198        99.3814 
  85   0.0000       3.733149       101.5841 
  86   0.0000       3.733165       101.5846 
  87   0.0000       3.785517       103.0092 
  88   0.0000       3.785545       103.0099 
  89   0.0000       3.896070       106.0174 
  90   0.0000       3.980382       108.3117 
  91   0.0000       3.997476       108.7769 
  92   0.0000       3.997551       108.7789 
  93   0.0000       4.116533       112.0166 
  94   0.0000       4.117203       112.0348 
  95   0.0000       4.213258       114.6486 
  96   0.0000       4.213262       114.6487 
  97   0.0000       4.357456       118.5724 
  98   0.0000       4.357502       118.5737 
  99   0.0000       4.372808       118.9902 
 100   0.0000       4.372818       118.9904 
 101   0.0000       4.398862       119.6991 
 102   0.0000       4.858239       132.1994 
 103   0.0000       4.858279       132.2005 
 104   0.0000       5.023663       136.7008 
 105   0.0000       5.234402       142.4353 
 106   0.0000       5.234425       142.4359 
 107   0.0000       5.279843       143.6718 
 108   0.0000       5.291063       143.9771 
 109   0.0000       5.291081       143.9776 
 110   0.0000       5.352936       145.6608 
 111   0.0000       5.352986       145.6621 
 112   0.0000       5.408883       147.1832 
 113   0.0000       5.661772       154.0647 
 114   0.0000       6.036247       164.2546 
 115   0.0000       6.231714       169.5736 
 116   0.0000       6.527516       177.6227 
 117   0.0000       6.527528       177.6231 
 118   0.0000      10.648866       289.7704 
 119   0.0000      26.326989       716.3938 
 120   0.0000      26.367006       717.4827 
 121   0.0000      26.367012       717.4829 
 122   0.0000      28.198094       767.3092 
 123   0.0000     219.451527      5971.5796 

                 SPIN DOWN ORBITALS
  NO   OCC          E(Eh)            E(eV) 
   0   1.0000    -104.816849     -2852.2115 
   1   1.0000     -11.260731      -306.4201 
   2   1.0000     -10.542388      -286.8730 
   3   1.0000      -8.009137      -217.9397 
   4   1.0000      -8.009137      -217.9397 
   5   1.0000      -8.000191      -217.6963 
   6   1.0000      -1.050116       -28.5751 
   7   1.0000      -0.931019       -25.3343 
   8   1.0000      -0.606872       -16.5138 
   9   1.0000      -0.606867       -16.5137 
  10   1.0000      -0.551551       -15.0085 
  11   1.0000      -0.443902       -12.0792 
  12   1.0000      -0.443901       -12.0792 
  13   0.0000       0.017030         0.4634 
  14   0.0000       0.142644         3.8815 
  15   0.0000       0.203706         5.5431 
  16   0.0000       0.203709         5.5432 
  17   0.0000       0.288563         7.8522 
  18   0.0000       0.338627         9.2145 
  19   0.0000       0.374763        10.1978 
  20   0.0000       0.374769        10.1980 
  21   0.0000       0.458191        12.4680 
  22   0.0000       0.458202        12.4683 
  23   0.0000       0.470385        12.7998 
  24   0.0000       0.578279        15.7358 
  25   0.0000       0.578293        15.7362 
  26   0.0000       0.589547        16.0424 
  27   0.0000       0.640564        17.4306 
  28   0.0000       0.641887        17.4666 
  29   0.0000       0.641891        17.4667 
  30   0.0000       0.694233        18.8910 
  31   0.0000       0.694234        18.8911 
  32   0.0000       0.775916        21.1137 
  33   0.0000       0.775931        21.1141 
  34   0.0000       0.833245        22.6738 
  35   0.0000       0.993449        27.0331 
  36   0.0000       0.995648        27.0930 
  37   0.0000       1.106843        30.1187 
  38   0.0000       1.106857        30.1191 
  39   0.0000       1.136791        30.9336 
  40   0.0000       1.165176        31.7060 
  41   0.0000       1.165191        31.7065 
  42   0.0000       1.281741        34.8779 
  43   0.0000       1.373590        37.3773 
  44   0.0000       1.373626        37.3783 
  45   0.0000       1.400337        38.1051 
  46   0.0000       1.506661        40.9983 
  47   0.0000       1.506684        40.9990 
  48   0.0000       1.561325        42.4858 
  49   0.0000       1.561331        42.4860 
  50   0.0000       1.696334        46.1596 
  51   0.0000       1.996459        54.3264 
  52   0.0000       2.340216        63.6805 
  53   0.0000       2.342990        63.7560 
  54   0.0000       2.342994        63.7561 
  55   0.0000       2.401199        65.3399 
  56   0.0000       2.401211        65.3403 
  57   0.0000       2.414196        65.6936 
  58   0.0000       2.414232        65.6946 
  59   0.0000       2.491771        67.8045 
  60   0.0000       2.491778        67.8047 
  61   0.0000       2.568165        69.8833 
  62   0.0000       2.587476        70.4088 
  63   0.0000       2.587502        70.4095 
  64   0.0000       2.712431        73.8090 
  65   0.0000       2.755529        74.9817 
  66   0.0000       2.755529        74.9818 
  67   0.0000       2.836510        77.1854 
  68   0.0000       2.905020        79.0496 
  69   0.0000       2.905045        79.0503 
  70   0.0000       3.104181        84.4691 
  71   0.0000       3.104193        84.4694 
  72   0.0000       3.156355        85.8888 
  73   0.0000       3.192682        86.8773 
  74   0.0000       3.192710        86.8781 
  75   0.0000       3.218660        87.5842 
  76   0.0000       3.264340        88.8272 
  77   0.0000       3.264437        88.8299 
  78   0.0000       3.373600        91.8003 
  79   0.0000       3.403366        92.6103 
  80   0.0000       3.498101        95.1882 
  81   0.0000       3.498116        95.1886 
  82   0.0000       3.565630        97.0257 
  83   0.0000       3.565750        97.0290 
  84   0.0000       3.659670        99.5847 
  85   0.0000       3.741895       101.8221 
  86   0.0000       3.741906       101.8224 
  87   0.0000       3.791865       103.1819 
  88   0.0000       3.791895       103.1827 
  89   0.0000       3.913744       106.4984 
  90   0.0000       4.001010       108.8730 
  91   0.0000       4.001086       108.8751 
  92   0.0000       4.013917       109.2242 
  93   0.0000       4.115732       111.9948 
  94   0.0000       4.121809       112.1601 
  95   0.0000       4.210547       114.5748 
  96   0.0000       4.210552       114.5749 
  97   0.0000       4.354282       118.4860 
  98   0.0000       4.354335       118.4875 
  99   0.0000       4.371445       118.9531 
 100   0.0000       4.371453       118.9533 
 101   0.0000       4.404317       119.8475 
 102   0.0000       4.868678       132.4835 
 103   0.0000       4.868718       132.4845 
 104   0.0000       5.034532       136.9966 
 105   0.0000       5.238880       142.5572 
 106   0.0000       5.238903       142.5578 
 107   0.0000       5.289009       143.9213 
 108   0.0000       5.301284       144.2553 
 109   0.0000       5.301294       144.2555 
 110   0.0000       5.361924       145.9054 
 111   0.0000       5.361965       145.9065 
 112   0.0000       5.416268       147.3842 
 113   0.0000       5.665209       154.1582 
 114   0.0000       6.040605       164.3732 
 115   0.0000       6.252897       170.1500 
 116   0.0000       6.532543       177.7595 
 117   0.0000       6.532555       177.7599 
 118   0.0000      10.657966       290.0180 
 119   0.0000      26.338733       716.7134 
 120   0.0000      26.369563       717.5523 
 121   0.0000      26.369569       717.5524 
 122   0.0000      28.209045       767.6071 
 123   0.0000     219.454994      5971.6740 
------------------
MOLECULAR ORBITALS
------------------
                      0         1         2         3         4         5   
                 -104.82311 -11.27913 -10.54894  -8.02604  -8.01273  -8.01273
                   1.00000   1.00000   1.00000   1.00000   1.00000   1.00000
                  --------  --------  --------  --------  --------  --------
  0C   1s        -0.000000  0.563073 -0.000018  0.000004 -0.000000  0.000000
  0C   2s         0.000001  0.466201  0.000015 -0.000021 -0.000000 -0.000000
  0C   1pz        0.000005 -0.000181  0.000268  0.000046  0.000000 -0.000000
  0C   1px        0.000000  0.000000 -0.000000  0.000000  0.000000 -0.000004
  0C   1py        0.000000 -0.000000  0.000000  0.000000 -0.000004 -0.000000
  0C   3s        -0.000009  0.007183 -0.000781  0.000145 -0.000000  0.000000
  0C   2pz       -0.000034  0.000058 -0.001727 -0.000386 -0.000000  0.000000
  0C   2px       -0.000000 -0.000000  0.000000 -0.000000  0.000006 -0.000044
  0C   2py        0.000000  0.000000 -0.000000  0.000000 -0.000044 -0.000006
  0C   4s         0.000040  0.004066  0.006365 -0.000890  0.000000  0.000000
  0C   3pz       -0.000049  0.000104 -0.005082  0.000459 -0.000000  0.000000
  0C   3px        0.000000 -0.000000  0.000001 -0.000000 -0.000018  0.000141
  0C   3py       -0.000000  0.000000 -0.000001  0.000000  0.000141  0.000018
  0C   1dz2      -0.000000  0.000341 -0.000041  0.000098  0.000000 -0.000000
  0C   1dxz       0.000000  0.000000  0.000000  0.000000 -0.000001  0.000009
  0C   1dyz      -0.000000  0.000000 -0.000000  0.000000  0.000009  0.000001
  0C   1dx2y2     0.000000 -0.000000  0.000000  0.000000 -0.000001  0.000011
  0C   1dxy       0.000000  0.000000  0.000000  0.000000 -0.000011 -0.000001
  0C   2dz2       0.000022 -0.000379  0.001844  0.000022  0.000000 -0.000000
  0C   2dxz      -0.000000  0.000000 -0.000000 -0.000000  0.000019 -0.000146
  0C   2dyz       0.000000 -0.000000  0.000001  0.000000 -0.000146 -0.000019
  0C   2dx2y2    -0.000000 -0.000000 -0.000000  0.000000  0.000003 -0.000023
  0C   2dxy      -0.000000  0.000000 -0.000000  0.000000  0.000023  0.000003
  0C   1f0        0.000004 -0.000437 -0.000015 -0.000015 -0.000000  0.000000
  0C   1f+1      -0.000000 -0.000000 -0.000000  0.000000 -0.000005  0.000035
  0C   1f-1       0.000000 -0.000000  0.000000 -0.000000  0.000035  0.000005
  0C   1f+2       0.000000 -0.000000  0.000000  0.000000 -0.000001  0.000008
  0C   1f-2       0.000000 -0.000000  0.000000  0.000000 -0.000008 -0.000001
  0C   1f+3      -0.000001  0.000566 -0.000001 -0.000022 -0.000000  0.000000
  0C   1f-3       0.000000 -0.000000  0.000000  0.000000 -0.000000 -0.000000
  1H   1s        -0.000001  0.000314  0.000036 -0.000027  0.000002 -0.000012
  1H   2s         0.000015 -0.001771  0.000202  0.000270 -0.000003  0.000026
  1H   3s         0.000012 -0.000393  0.001036 -0.000088  0.000006 -0.000047
  1H   1pz        0.000002  0.000016  0.000063 -0.000001  0.000001 -0.000009
  1H   1px        0.000000 -0.000100 -0.000010  0.000010  0.000000 -0.000002
  1H   1py       -0.000000  0.000000 -0.000000  0.000000  0.000008  0.000001
  1H   2pz       -0.000003  0.000190 -0.000114 -0.000017  0.000002 -0.000019
  1H   2px        0.000010 -0.000917  0.000368  0.000090  0.000008 -0.000060
  1H   2py        0.000000  0.000000  0.000000 -0.000000 -0.000010 -0.000001
  1H   1dz2      -0.000001  0.000109 -0.000028 -0.000011 -0.000001  0.000011
  1H   1dxz       0.000000  0.000051 -0.000014  0.000005  0.000000 -0.000003
  1H   1dyz      -0.000000 -0.000000 -0.000000 -0.000000  0.000007  0.000001
  1H   1dx2y2     0.000002 -0.000207  0.000052  0.000015  0.000001 -0.000011
  1H   1dxy      -0.000000  0.000000 -0.000000 -0.000000  0.000007  0.000001
  2H   1s        -0.000001  0.000314  0.000036 -0.000027 -0.000011  0.000005
  2H   2s         0.000015 -0.001771  0.000200  0.000271  0.000024 -0.000010
  2H   3s         0.000012 -0.000393  0.001036 -0.000088 -0.000043  0.000018
  2H   1pz        0.000002  0.000016  0.000063 -0.000001 -0.000008  0.000003
  2H   1px       -0.000000  0.000050  0.000005 -0.000005  0.000004  0.000006
  2H   1py        0.000000 -0.000087 -0.000009  0.000009 -0.000000  0.000004
  2H   2pz       -0.000003  0.000190 -0.000113 -0.000017 -0.000017  0.000007
  2H   2px       -0.000005  0.000459 -0.000184 -0.000045  0.000025 -0.000019
  2H   2py        0.000009 -0.000794  0.000319  0.000078 -0.000050  0.000015
  2H   1dz2      -0.000001  0.000109 -0.000028 -0.000011  0.000010 -0.000004
  2H   1dxz      -0.000000 -0.000026  0.000007 -0.000003  0.000004  0.000005
  2H   1dyz       0.000000  0.000045 -0.000012  0.000005 -0.000001  0.000004
  2H   1dx2y2    -0.000001  0.000103 -0.000026 -0.000008  0.000003 -0.000008
  2H   1dxy      -0.000002  0.000179 -0.000045 -0.000013  0.000010 -0.000000
  3H   1s        -0.000010  0.000273 -0.000391  0.000173  0.000000 -0.000000
  3H   2s         0.000070 -0.000734  0.000610  0.000395 -0.000000  0.000000
  3H   3s        -0.000109 -0.000109 -0.011733  0.000803 -0.000000  0.000000
  3H   1pz        0.000006  0.000064  0.000222  0.000077  0.000000 -0.000000
  3H   1px        0.000000  0.000000 -0.000000  0.000000 -0.000001  0.000005
  3H   1py        0.000000 -0.000000  0.000000 -0.000000  0.000005  0.000001
  3H   2pz       -0.000138 -0.000572 -0.006634 -0.000613 -0.000000  0.000000
  3H   2px       -0.000000 -0.000000 -0.000001 -0.000000  0.000019 -0.000147
  3H   2py        0.000000 -0.000000  0.000000  0.000000 -0.000147 -0.000019
  3H   1dz2       0.000026 -0.000265  0.001027 -0.000263 -0.000000  0.000000
  3H   1dxz       0.000000 -0.000000  0.000000 -0.000000  0.000006 -0.000050
  3H   1dyz      -0.000000 -0.000000 -0.000000  0.000000 -0.000050 -0.000006
  3H   1dx2y2     0.000000  0.000000  0.000000 -0.000000 -0.000000  0.000002
  3H   1dxy       0.000000 -0.000000  0.000000 -0.000000 -0.000002 -0.000000
  4H   1s        -0.000001  0.000314  0.000036 -0.000027  0.000009  0.000007
  4H   2s         0.000015 -0.001771  0.000201  0.000271 -0.000021 -0.000016
  4H   3s         0.000012 -0.000393  0.001036 -0.000088  0.000038  0.000029
  4H   1pz        0.000002  0.000016  0.000063 -0.000001  0.000007  0.000005
  4H   1px       -0.000000  0.000050  0.000005 -0.000005 -0.000005  0.000005
  4H   1py       -0.000000  0.000087  0.000009 -0.000009  0.000001 -0.000004
  4H   2pz       -0.000003  0.000190 -0.000113 -0.000017  0.000015  0.000011
  4H   2px       -0.000005  0.000459 -0.000184 -0.000045 -0.000019 -0.000025
  4H   2py       -0.000009  0.000794 -0.000319 -0.000078 -0.000044 -0.000028
  4H   1dz2      -0.000001  0.000109 -0.000028 -0.000011 -0.000009 -0.000007
  4H   1dxz      -0.000000 -0.000026  0.000007 -0.000003 -0.000005  0.000004
  4H   1dyz      -0.000000 -0.000044  0.000012 -0.000005 -0.000000 -0.000004
  4H   1dx2y2    -0.000001  0.000103 -0.000026 -0.000008 -0.000001 -0.000008
  4H   1dxy       0.000002 -0.000179  0.000045  0.000013  0.000010  0.000003
  5Cl  1s        -0.411723  0.000001  0.121961  0.000447  0.000000 -0.000000
  5Cl  2s        -0.654657  0.000001  0.331589  0.001231  0.000000 -0.000000
  5Cl  3s        -0.012126  0.000005 -0.512607 -0.001947 -0.000000  0.000000
  5Cl  4s         0.000938 -0.000006 -0.604150 -0.002483 -0.000000 -0.000000
  5Cl  5s        -0.000214 -0.000033 -0.044514  0.000702 -0.000000  0.000000
  5Cl  6s         0.000065 -0.000063  0.011076 -0.000834  0.000000 -0.000000
  5Cl  1pz       -0.000095 -0.000006 -0.004405  1.230630 -0.000106  0.000234
  5Cl  1px       -0.000000 -0.000000 -0.000001  0.000246  0.158304 -1.221090
  5Cl  1py        0.000000 -0.000000  0.000000 -0.000075 -1.221090 -0.158304
  5Cl  2pz       -0.000059 -0.000014 -0.001232  0.327179 -0.000028  0.000062
  5Cl  2px       -0.000000 -0.000000 -0.000000  0.000065  0.042076 -0.324560
  5Cl  2py        0.000000  0.000000  0.000000 -0.000020 -0.324560 -0.042076
  5Cl  3pz        0.000085  0.000000  0.000632  0.050529 -0.000004  0.000009
  5Cl  3px        0.000000 -0.000000  0.000000  0.000010  0.006329 -0.048822
  5Cl  3py       -0.000000  0.000000 -0.000000 -0.000003 -0.048822 -0.006329
  5Cl  4pz       -0.000139 -0.000072 -0.004364 -0.002599  0.000000 -0.000000
  5Cl  4px       -0.000000 -0.000000 -0.000001 -0.000001 -0.000272  0.002101
  5Cl  4py        0.000000 -0.000000  0.000001  0.000000  0.002101  0.000272
  5Cl  5pz        0.000024 -0.000034  0.002710  0.000532 -0.000000  0.000000
  5Cl  5px        0.000000 -0.000000  0.000001  0.000000  0.000087 -0.000669
  5Cl  5py       -0.000000  0.000000 -0.000000 -0.000000 -0.000669 -0.000087
  5Cl  1dz2       0.000000  0.000009 -0.000836  0.000500 -0.000000  0.000000
  5Cl  1dxz      -0.000000  0.000000 -0.000000  0.000000  0.000061 -0.000469
  5Cl  1dyz       0.000000 -0.000000  0.000000 -0.000000 -0.000469 -0.000061
  5Cl  1dx2y2     0.000000 -0.000000  0.000000  0.000000 -0.000000 -0.000000
  5Cl  1dxy       0.000000 -0.000000  0.000000 -0.000000 -0.000000  0.000000
  5Cl  2dz2      -0.000057  0.000003 -0.001895 -0.000214  0.000000 -0.000000
  5Cl  2dxz      -0.000000  0.000000 -0.000001 -0.000000 -0.000012  0.000092
  5Cl  2dyz       0.000000 -0.000000  0.000000  0.000000  0.000092  0.000012
  5Cl  2dx2y2    -0.000000  0.000000 -0.000000  0.000000 -0.000000  0.000000
  5Cl  2dxy      -0.000000  0.000000 -0.000000  0.000000 -0.000000 -0.000000
  5Cl  1f0       -0.000022  0.000056 -0.000899  0.000353 -0.000000  0.000000
  5Cl  1f+1      -0.000000  0.000000 -0.000000  0.000000  0.000031 -0.000243
  5Cl  1f-1       0.000000 -0.000000  0.000000 -0.000000 -0.000243 -0.000031
  5Cl  1f+2      -0.000000  0.000000 -0.000000  0.000000 -0.000000 -0.000000
  5Cl  1f-2      -0.000000  0.000000 -0.000000  0.000000 -0.000000  0.000000
  5Cl  1f+3      -0.000000  0.000001 -0.000001  0.000000 -0.000000 -0.000000
  5Cl  1f-3       0.000000 -0.000000  0.000000 -0.000000 -0.000000 -0.000000
                      6         7         8         9        10        11   
                  -1.10371  -1.00229  -0.64790  -0.61851  -0.61851  -0.45494
                   1.00000   1.00000   1.00000   1.00000   1.00000   1.00000
                  --------  --------  --------  --------  --------  --------
  0C   1s         0.031843  0.101381  0.013595 -0.000000 -0.000003  0.000000
  0C   2s         0.052491  0.168178  0.022071 -0.000000 -0.000004  0.000000
  0C   1pz        0.014983  0.002973 -0.132522  0.000021  0.000030  0.000008
  0C   1px        0.000002  0.000001 -0.000052 -0.060794 -0.193414 -0.001752
  0C   1py        0.000001  0.000000 -0.000006 -0.193414  0.060794  0.016282
  0C   3s        -0.128689 -0.424126 -0.044937 -0.000000  0.000008 -0.000001
  0C   2pz        0.034058  0.012930 -0.202794  0.000031  0.000046  0.000010
  0C   2px        0.000002  0.000002 -0.000073 -0.084886 -0.270062 -0.002007
  0C   2py        0.000002  0.000002 -0.000010 -0.270062  0.084886  0.018645
  0C   4s        -0.084322 -0.224026 -0.019136  0.000000 -0.000002 -0.000009
  0C   3pz        0.034124 -0.000128 -0.129589  0.000018  0.000034  0.000012
  0C   3px       -0.000005  0.000001 -0.000039 -0.047868 -0.152290 -0.001473
  0C   3py        0.000008 -0.000000 -0.000008 -0.152287  0.047867  0.013679
  0C   1dz2      -0.002701 -0.000961  0.011894 -0.000000 -0.000003 -0.000000
  0C   1dxz      -0.000001 -0.000000 -0.000000 -0.001158 -0.003686 -0.000159
  0C   1dyz      -0.000000 -0.000000  0.000002 -0.003686  0.001160  0.001481
  0C   1dx2y2    -0.000000  0.000000  0.000004  0.004174  0.013285  0.000097
  0C   1dxy      -0.000000 -0.000000  0.000000 -0.013284  0.004173  0.000898
  0C   2dz2      -0.014669 -0.009955  0.005508 -0.000000 -0.000002  0.000002
  0C   2dxz       0.000000 -0.000000  0.000000 -0.000005 -0.000019  0.000489
  0C   2dyz      -0.000003 -0.000001  0.000000 -0.000019  0.000007 -0.004548
  0C   2dx2y2     0.000001 -0.000001  0.000004  0.002987  0.009508 -0.000100
  0C   2dxy       0.000001 -0.000000  0.000000 -0.009508  0.002987 -0.000940
  0C   1f0        0.001612  0.003493 -0.001816  0.000001  0.000000  0.000000
  0C   1f+1       0.000000  0.000000 -0.000001 -0.000911 -0.002898 -0.000070
  0C   1f-1      -0.000000  0.000001  0.000000 -0.002898  0.000911  0.000655
  0C   1f+2      -0.000000  0.000000 -0.000000 -0.000137 -0.000438 -0.000050
  0C   1f-2       0.000000  0.000000 -0.000000  0.000437 -0.000138 -0.000466
  0C   1f+3      -0.001097 -0.003870 -0.000330  0.000000 -0.000000 -0.000000
  0C   1f-3       0.000000  0.000001  0.000000 -0.000000  0.000000 -0.000000
  1H   1s        -0.020638 -0.078062 -0.038827  0.048565  0.154537  0.001482
  1H   2s        -0.033928 -0.118047 -0.067171  0.085071  0.270706  0.003568
  1H   3s        -0.009470 -0.010480 -0.022924  0.029015  0.092330  0.001426
  1H   1pz        0.000493  0.001539 -0.002856 -0.001047 -0.003333  0.000007
  1H   1px       -0.001862 -0.007430 -0.003883  0.003952  0.012577  0.000137
  1H   1py        0.000000  0.000000  0.000000 -0.004185  0.001314  0.000337
  1H   2pz        0.003051  0.004272 -0.007065 -0.002205 -0.007018  0.000102
  1H   2px       -0.008616 -0.022028 -0.011941  0.011401  0.036282  0.000832
  1H   2py        0.000000  0.000001  0.000001 -0.011591  0.003640  0.000926
  1H   1dz2       0.000384  0.000941  0.001115 -0.000600 -0.001908 -0.000059
  1H   1dxz       0.000364  0.000782 -0.000775 -0.000658 -0.002093 -0.000006
  1H   1dyz       0.000000 -0.000000  0.000000  0.000089 -0.000028  0.000305
  1H   1dx2y2    -0.000715 -0.001878 -0.001232  0.001563  0.004974  0.000112
  1H   1dxy       0.000000  0.000000  0.000000 -0.001566  0.000492  0.000302
  2H   1s        -0.020636 -0.078061 -0.038892  0.109546 -0.119310 -0.012651
  2H   2s        -0.033917 -0.118050 -0.067283  0.191893 -0.208997 -0.030434
  2H   3s        -0.009465 -0.010482 -0.022956  0.065450 -0.071284 -0.012159
  2H   1pz        0.000493  0.001539 -0.002853 -0.002363  0.002576 -0.000053
  2H   1px        0.000931  0.003715  0.001943 -0.007255  0.002285  0.000702
  2H   1py       -0.001612 -0.006435 -0.003368  0.006105 -0.009892 -0.000942
  2H   2pz        0.003050  0.004276 -0.007064 -0.004978  0.005425 -0.000872
  2H   2px        0.004307  0.011013  0.005975 -0.020608  0.006887  0.003871
  2H   2py       -0.007460 -0.019078 -0.010356  0.017798 -0.028365 -0.005954
  2H   1dz2       0.000384  0.000940  0.001116 -0.001352  0.001473  0.000505
  2H   1dxz      -0.000182 -0.000391  0.000387  0.000802 -0.000753  0.000081
  2H   1dyz       0.000315  0.000677 -0.000670 -0.001251  0.001432  0.000108
  2H   1dx2y2     0.000358  0.000939  0.000618 -0.000716  0.002882  0.000370
  2H   1dxy       0.000619  0.001627  0.001069 -0.003658  0.002770  0.000885
  3H   1s        -0.065884 -0.035952  0.126390 -0.000006 -0.000031  0.000001
  3H   2s        -0.079988 -0.057906  0.248629 -0.000014 -0.000061  0.000004
  3H   3s         0.055610 -0.002706  0.006359 -0.000002 -0.000001  0.000001
  3H   1pz        0.002677 -0.006201  0.001213  0.000000  0.000000 -0.000001
  3H   1px        0.000001 -0.000001 -0.000001 -0.000882 -0.002807  0.000250
  3H   1py       -0.000001 -0.000000  0.000001 -0.002807  0.000882 -0.002323
  3H   2pz        0.021635 -0.036117  0.021807  0.000002 -0.000007 -0.000010
  3H   2px        0.000005 -0.000005 -0.000003 -0.004243 -0.013500  0.002843
  3H   2py       -0.000002 -0.000001  0.000004 -0.013499  0.004243 -0.026419
  3H   1dz2      -0.007995 -0.000468  0.009557 -0.000000 -0.000002  0.000000
  3H   1dxz      -0.000003  0.000000  0.000002 -0.000463 -0.001473 -0.000194
  3H   1dyz       0.000001 -0.000000  0.000000 -0.001473  0.000463  0.001801
  3H   1dx2y2    -0.000000  0.000000  0.000000  0.000086  0.000274  0.000004
  3H   1dxy      -0.000000  0.000000 -0.000000 -0.000274  0.000086  0.000035
  4H   1s        -0.020637 -0.078062 -0.038888 -0.158104 -0.035197  0.011173
  4H   2s        -0.033924 -0.118050 -0.067274 -0.276952 -0.061655  0.026882
  4H   3s        -0.009468 -0.010481 -0.022955 -0.094458 -0.021028  0.010740
  4H   1pz        0.000493  0.001538 -0.002854  0.003410  0.000760  0.000047
  4H   1px        0.000931  0.003715  0.001943  0.007259 -0.002276 -0.000688
  4H   1py        0.001612  0.006434  0.003367  0.010666  0.004621 -0.000793
  4H   2pz        0.003050  0.004272 -0.007064  0.007182  0.001600  0.000771
  4H   2px        0.004308  0.011016  0.005974  0.020847 -0.006139 -0.003609
  4H   2py        0.007460  0.019078  0.010353  0.030824  0.013085 -0.005150
  4H   1dz2       0.000384  0.000941  0.001116  0.001952  0.000434 -0.000446
  4H   1dxz      -0.000182 -0.000391  0.000387 -0.001088 -0.000159 -0.000133
  4H   1dyz      -0.000315 -0.000677  0.000670 -0.001844 -0.000459  0.000131
  4H   1dx2y2     0.000357  0.000939  0.000617  0.002235  0.001954 -0.000265
  4H   1dxy      -0.000619 -0.001627 -0.001068 -0.004586 -0.000180  0.000818
  5Cl  1s        -0.033214  0.013133 -0.008155  0.000001  0.000002 -0.000000
  5Cl  2s        -0.096154  0.038067 -0.023770  0.000002  0.000005 -0.000000
  5Cl  3s         0.190381 -0.075766  0.048431 -0.000003 -0.000009  0.000000
  5Cl  4s         0.378820 -0.150162  0.093020 -0.000006 -0.000018  0.000000
  5Cl  5s        -0.569696  0.229110 -0.141382  0.000009  0.000027 -0.000000
  5Cl  6s        -0.520548  0.206387 -0.176322  0.000015  0.000031 -0.000004
  5Cl  1pz        0.036377  0.013209 -0.215334  0.000017  0.000052  0.000023
  5Cl  1px        0.000007  0.000002 -0.000040  0.005261  0.016738 -0.035748
  5Cl  1py       -0.000003 -0.000000  0.000016  0.016736 -0.005260  0.332147
  5Cl  2pz        0.009164  0.003111 -0.052253  0.000004  0.000013  0.000005
  5Cl  2px        0.000002  0.000000 -0.000010  0.001272  0.004046 -0.008543
  5Cl  2py       -0.000001 -0.000000  0.000004  0.004046 -0.001272  0.079377
  5Cl  3pz       -0.026368 -0.007280  0.152804 -0.000012 -0.000037 -0.000016
  5Cl  3px       -0.000005 -0.000001  0.000028 -0.003779 -0.012024  0.025758
  5Cl  3py        0.000002  0.000000 -0.000011 -0.012022  0.003779 -0.239329
  5Cl  4pz       -0.044438 -0.029440  0.362092 -0.000027 -0.000091 -0.000043
  5Cl  4px       -0.000008 -0.000005  0.000068 -0.008805 -0.028012  0.063429
  5Cl  4py        0.000002  0.000002 -0.000027 -0.028008  0.008803 -0.589345
  5Cl  5pz       -0.022634 -0.003911  0.145078 -0.000011 -0.000038 -0.000025
  5Cl  5px       -0.000006 -0.000001  0.000028 -0.003848 -0.012242  0.036196
  5Cl  5py        0.000003  0.000000 -0.000011 -0.012240  0.003847 -0.336313
  5Cl  1dz2      -0.012834  0.000553  0.015168 -0.000001 -0.000003 -0.000000
  5Cl  1dxz      -0.000004  0.000000  0.000005 -0.000478 -0.001520  0.000640
  5Cl  1dyz       0.000002 -0.000000 -0.000002 -0.001520  0.000478 -0.005944
  5Cl  1dx2y2    -0.000000  0.000000 -0.000000  0.000011  0.000035  0.000001
  5Cl  1dxy      -0.000000  0.000000 -0.000000 -0.000035  0.000011  0.000009
  5Cl  2dz2      -0.019749 -0.002011  0.022789 -0.000001 -0.000007 -0.000002
  5Cl  2dxz      -0.000007 -0.000001  0.000009 -0.000471 -0.001499  0.001655
  5Cl  2dyz       0.000003  0.000001 -0.000005 -0.001499  0.000471 -0.015375
  5Cl  2dx2y2     0.000000 -0.000000  0.000000  0.000072  0.000229  0.000003
  5Cl  2dxy       0.000000 -0.000000  0.000000 -0.000229  0.000072  0.000030
  5Cl  1f0       -0.001181 -0.002567  0.010719 -0.000001 -0.000003 -0.000002
  5Cl  1f+1      -0.000001 -0.000001  0.000005 -0.000170 -0.000542  0.001002
  5Cl  1f-1       0.000000  0.000000 -0.000002 -0.000541  0.000170 -0.009309
  5Cl  1f+2       0.000000 -0.000000  0.000000  0.000029  0.000093  0.000000
  5Cl  1f-2       0.000000 -0.000000  0.000000 -0.000093  0.000029  0.000007
  5Cl  1f+3      -0.000003 -0.000007 -0.000000 -0.000000 -0.000000 -0.000000
  5Cl  1f-3       0.000000  0.000000  0.000000  0.000000 -0.000000 -0.000000
                     12        13        14        15        16        17   
                  -0.45494  -0.41980   0.13458   0.19926   0.19927   0.26564
                   1.00000   1.00000   0.00000   0.00000   0.00000   0.00000
                  --------  --------  --------  --------  --------  --------
  0C   1s         0.000000  0.015664 -0.044099  0.000001 -0.000000  0.006654
  0C   2s         0.000001  0.027624 -0.085295  0.000001 -0.000001  0.010570
  0C   1pz       -0.000005  0.192749  0.037858  0.000006 -0.000005  0.090181
  0C   1px        0.016285  0.000001  0.000002  0.019870  0.101569 -0.000002
  0C   1py        0.001753  0.000010 -0.000000 -0.101568  0.019869  0.000009
  0C   3s        -0.000001 -0.084707  0.228046 -0.000006  0.000008  0.049659
  0C   2pz       -0.000005  0.308911  0.116452  0.000022 -0.000010  0.114095
  0C   2px        0.018649 -0.000001  0.000001  0.076632  0.391737  0.000002
  0C   2py        0.002007  0.000019  0.000003 -0.391741  0.076636  0.000007
  0C   4s         0.000003 -0.147400  3.402857 -0.000083 -0.000073 -0.927353
  0C   3pz       -0.000007  0.296497  0.208300  0.000125  0.000009  1.418096
  0C   3px        0.013681 -0.000009 -0.000020  0.344542  1.761287  0.000146
  0C   3py        0.001472  0.000024 -0.000010 -1.761313  0.344565  0.000034
  0C   1dz2      -0.000000 -0.009841 -0.004659  0.000001  0.000000  0.018973
  0C   1dxz       0.001481  0.000000  0.000000  0.000366  0.001867  0.000001
  0C   1dyz       0.000159 -0.000002 -0.000001 -0.001868  0.000365  0.000004
  0C   1dx2y2    -0.000899 -0.000000 -0.000001 -0.000932 -0.004762  0.000002
  0C   1dxy       0.000097 -0.000000  0.000000 -0.004763  0.000933  0.000001
  0C   2dz2      -0.000001 -0.012678 -0.099702  0.000010 -0.000002 -0.101189
  0C   2dxz      -0.004547  0.000002  0.000015  0.013885  0.070907 -0.000033
  0C   2dyz      -0.000490 -0.000003 -0.000014 -0.070918  0.013859  0.000005
  0C   2dx2y2     0.000942  0.000002 -0.000004 -0.039220 -0.200345 -0.000015
  0C   2dxy      -0.000103  0.000001  0.000002 -0.200329  0.039225 -0.000009
  0C   1f0       -0.000000  0.004063 -0.016798 -0.000001  0.000001  0.018785
  0C   1f+1       0.000655  0.000000 -0.000001 -0.001842 -0.009417  0.000003
  0C   1f-1       0.000071  0.000001 -0.000003  0.009417 -0.001843  0.000003
  0C   1f+2       0.000466 -0.000000 -0.000001 -0.000962 -0.004909  0.000001
  0C   1f-2      -0.000050  0.000000 -0.000002 -0.004910  0.000960  0.000000
  0C   1f+3       0.000000 -0.000026  0.024246 -0.000001 -0.000001 -0.004680
  0C   1f-3      -0.000000  0.000000 -0.000004 -0.000001  0.000000  0.000001
  1H   1s        -0.013757  0.024127  0.001760 -0.000215 -0.001099 -0.025172
  1H   2s        -0.033099  0.044519 -0.347029  0.089892  0.459377 -0.015640
  1H   3s        -0.013224  0.029971 -1.149264  0.486135  2.484284 -0.498351
  1H   1pz       -0.000058  0.005159 -0.001038  0.000977  0.004988  0.007317
  1H   1px       -0.001269  0.002398  0.011132 -0.002981 -0.015230  0.004275
  1H   1py        0.000036  0.000000 -0.000001 -0.012294  0.002407 -0.000000
  1H   2pz       -0.000948  0.015222  0.052417 -0.013569 -0.069324 -0.027635
  1H   2px       -0.007713  0.006179 -0.208796  0.057050  0.291528  0.001045
  1H   2py        0.000099  0.000000  0.000015  0.040621 -0.007968 -0.000006
  1H   1dz2       0.000549 -0.001243  0.008713 -0.001651 -0.008436  0.001095
  1H   1dxz       0.000058  0.002286  0.005805 -0.001805 -0.009222  0.002965
  1H   1dyz       0.000033 -0.000000 -0.000000  0.002708 -0.000529  0.000000
  1H   1dx2y2    -0.001035  0.000946 -0.011687  0.004180  0.021362  0.003899
  1H   1dxy       0.000033  0.000000  0.000002  0.000989 -0.000196 -0.000001
  2H   1s         0.005594  0.024133  0.001762  0.001062  0.000362 -0.025180
  2H   2s         0.013457  0.044542 -0.347006 -0.442746 -0.151817 -0.015780
  2H   3s         0.005377  0.029980 -1.149348 -2.394482 -0.821128 -0.498454
  2H   1pz        0.000023  0.005159 -0.001040 -0.004809 -0.001649  0.007319
  2H   1px        0.000010 -0.001199 -0.005566 -0.010859  0.007746 -0.002137
  2H   1py        0.000602  0.002078  0.009642  0.010682  0.010284  0.003703
  2H   2pz        0.000386  0.015220  0.052437  0.066841  0.022918 -0.027631
  2H   2px       -0.000830 -0.003091  0.104392  0.152107  0.014265 -0.000519
  2H   2py        0.003141  0.005356 -0.180830 -0.236631 -0.103019  0.000893
  2H   1dz2      -0.000223 -0.001244  0.008712  0.008130  0.002788  0.001093
  2H   1dxz       0.000255 -0.001143 -0.002903 -0.003671 -0.003785 -0.001483
  2H   1dyz       0.000120  0.001980  0.005029  0.008149  0.001336  0.002570
  2H   1dx2y2    -0.000451 -0.000474  0.005845  0.010013  0.004356 -0.001951
  2H   1dxy      -0.000225 -0.000820  0.010120  0.017993  0.005637 -0.003377
  3H   1s        -0.000000 -0.034287  0.009366 -0.000002 -0.000007  0.053030
  3H   2s        -0.000001 -0.042434 -0.071812  0.000007  0.000008  0.500549
  3H   3s         0.000001 -0.025819 -0.388538  0.000002  0.000018  3.832136
  3H   1pz        0.000000 -0.014716  0.005512  0.000001 -0.000000 -0.001858
  3H   1px       -0.002323 -0.000002  0.000000  0.001147  0.005862  0.000005
  3H   1py       -0.000250 -0.000000  0.000001 -0.005864  0.001147 -0.000006
  3H   2pz        0.000009 -0.080425 -0.088978 -0.000008  0.000004  0.041203
  3H   2px       -0.026418 -0.000013 -0.000005 -0.007298 -0.037304 -0.000032
  3H   2py       -0.002843  0.000002 -0.000005  0.037311 -0.007299  0.000040
  3H   1dz2      -0.000001 -0.002315 -0.000148  0.000001  0.000000  0.027752
  3H   1dxz       0.001801 -0.000000  0.000001 -0.000060 -0.000307  0.000007
  3H   1dyz       0.000194 -0.000001 -0.000001  0.000307 -0.000060 -0.000001
  3H   1dx2y2    -0.000034 -0.000000  0.000001  0.000436  0.002227  0.000000
  3H   1dxy       0.000003 -0.000000 -0.000000  0.002227 -0.000436  0.000000
  4H   1s         0.008160  0.024129  0.001761 -0.000847  0.000736 -0.025168
  4H   2s         0.019632  0.044524 -0.347020  0.352886 -0.307513 -0.015675
  4H   3s         0.007843  0.029971 -1.149291  1.908428 -1.663121 -0.498382
  4H   1pz        0.000034  0.005159 -0.001038  0.003832 -0.003338  0.007319
  4H   1px       -0.000139 -0.001199 -0.005567  0.012978  0.003080 -0.002138
  4H   1py       -0.000789 -0.002077 -0.009641  0.006017 -0.013553 -0.003704
  4H   2pz        0.000563  0.015222  0.052410 -0.053250  0.046395 -0.027628
  4H   2px       -0.001636 -0.003089  0.104409 -0.135534  0.070568 -0.000520
  4H   2py       -0.004337 -0.005350  0.180826 -0.180350  0.184614 -0.000905
  4H   1dz2      -0.000326 -0.001243  0.008713 -0.006482  0.005648  0.001094
  4H   1dxz       0.000232 -0.001143 -0.002902  0.001972 -0.004888 -0.001483
  4H   1dyz      -0.000094 -0.001980 -0.005026  0.007041 -0.004306 -0.002569
  4H   1dx2y2    -0.000519 -0.000473  0.005843 -0.007631  0.007807 -0.001951
  4H   1dxy       0.000409  0.000820 -0.010122  0.014544 -0.012006  0.003377
  5Cl  1s        -0.000000  0.002122  0.002940 -0.000000 -0.000000 -0.013354
  5Cl  2s        -0.000000  0.006158  0.008699 -0.000001 -0.000000 -0.040161
  5Cl  3s        -0.000000 -0.012317 -0.018806  0.000001  0.000001  0.092368
  5Cl  4s        -0.000000 -0.025460 -0.031892  0.000003  0.000003  0.124896
  5Cl  5s        -0.000000  0.044952  0.047434 -0.000007 -0.000006 -0.041227
  5Cl  6s         0.000002  0.028300  0.173266 -0.000008 -0.000009 -1.692267
  5Cl  1pz       -0.000063 -0.252214 -0.019999  0.000000 -0.000000 -0.011159
  5Cl  1px        0.332147 -0.000044 -0.000001 -0.002590 -0.013248  0.000015
  5Cl  1py        0.035748  0.000004  0.000000  0.013240 -0.002592 -0.000019
  5Cl  2pz       -0.000015 -0.060826 -0.004994 -0.000000 -0.000000 -0.000439
  5Cl  2px        0.079377 -0.000011 -0.000000 -0.000446 -0.002281  0.000004
  5Cl  2py        0.008543  0.000001  0.000000  0.002278 -0.000446 -0.000004
  5Cl  3pz        0.000045  0.185559  0.019309  0.000001  0.000002 -0.002785
  5Cl  3px       -0.239329  0.000032  0.000001  0.000748  0.003830 -0.000013
  5Cl  3py       -0.025758 -0.000003 -0.000001 -0.003823  0.000749  0.000014
  5Cl  4pz        0.000112  0.437868  0.015300 -0.000010 -0.000009  0.104047
  5Cl  4px       -0.589345  0.000076 -0.000003  0.011061  0.056561 -0.000021
  5Cl  4py       -0.063429 -0.000006  0.000003 -0.056549  0.011066  0.000039
  5Cl  5pz        0.000064  0.253136  0.139906  0.000002  0.000010 -1.519063
  5Cl  5px       -0.336313  0.000042  0.000015 -0.005916 -0.030208 -0.000316
  5Cl  5py       -0.036196 -0.000002 -0.000005  0.030233 -0.005908  0.000130
  5Cl  1dz2       0.000002  0.001894  0.000700 -0.000001 -0.000003  0.038894
  5Cl  1dxz      -0.005944  0.000001  0.000001 -0.000105 -0.000541  0.000020
  5Cl  1dyz      -0.000640 -0.000001 -0.000000  0.000538 -0.000106 -0.000012
  5Cl  1dx2y2    -0.000011  0.000000 -0.000000  0.000507  0.002591 -0.000000
  5Cl  1dxy       0.000001 -0.000000 -0.000000  0.002590 -0.000507 -0.000000
  5Cl  2dz2       0.000005 -0.010863 -0.001814 -0.000009 -0.000012 -0.031191
  5Cl  2dxz      -0.015374 -0.000004 -0.000002  0.000585  0.002981  0.000020
  5Cl  2dyz      -0.001655  0.000001  0.000003 -0.002994  0.000584 -0.000030
  5Cl  2dx2y2    -0.000036 -0.000000 -0.000001  0.002523  0.012895 -0.000000
  5Cl  2dxy       0.000004 -0.000000 -0.000000  0.012888 -0.002525  0.000000
  5Cl  1f0        0.000005  0.004930 -0.001518 -0.000002 -0.000002 -0.013489
  5Cl  1f+1      -0.009309  0.000002 -0.000002  0.000583  0.002979 -0.000004
  5Cl  1f-1      -0.001002 -0.000001  0.000001 -0.002980  0.000583 -0.000000
  5Cl  1f+2      -0.000013 -0.000000 -0.000000  0.000223  0.001141  0.000000
  5Cl  1f-2       0.000002 -0.000000 -0.000000  0.001138 -0.000223  0.000000
  5Cl  1f+3       0.000000 -0.000003 -0.000164 -0.000000 -0.000000 -0.000070
  5Cl  1f-3       0.000000  0.000000  0.000000 -0.000000  0.000000  0.000000
                     18        19        20        21        22        23   
                   0.32703   0.37364   0.37365   0.43632   0.45228   0.45229
                   0.00000   0.00000   0.00000   0.00000   0.00000   0.00000
                  --------  --------  --------  --------  --------  --------
  0C   1s        -0.008360  0.000001 -0.000001 -0.012255 -0.000002 -0.000003
  0C   2s        -0.012175  0.000002 -0.000002 -0.021278 -0.000004 -0.000005
  0C   1pz       -0.000142  0.000003 -0.000000 -0.007376  0.000000  0.000010
  0C   1px       -0.000005  0.014700 -0.029443  0.000004 -0.030726 -0.007671
  0C   1py        0.000002 -0.029436 -0.014699 -0.000010 -0.007672  0.030723
  0C   3s         0.059808 -0.000002  0.000016  0.094651  0.000029  0.000018
  0C   2pz       -0.043430 -0.000028  0.000011  0.070049 -0.000005  0.000014
  0C   2px       -0.000011 -0.104333  0.208977 -0.000058  0.145606  0.036356
  0C   2py       -0.000007  0.208942  0.104336  0.000070  0.036357 -0.145620
  0C   4s        -0.810878 -0.000167  0.000077 -0.258887 -0.000167 -0.000183
  0C   3pz       -0.339884 -0.000331  0.000184  1.693919  0.000269  0.000505
  0C   3px        0.000110 -0.868917  1.740367 -0.000433  0.976282  0.243798
  0C   3py       -0.000104  1.740133  0.868914  0.000643  0.243758 -0.976451
  0C   1dz2      -0.016967 -0.000005  0.000005  0.022178  0.000005  0.000009
  0C   1dxz      -0.000002  0.001036 -0.002072  0.000002  0.002178  0.000543
  0C   1dyz      -0.000003 -0.002076 -0.001035  0.000003  0.000544 -0.002175
  0C   1dx2y2     0.000002 -0.006840  0.013692 -0.000004  0.004719  0.001179
  0C   1dxy       0.000001 -0.013691 -0.006838 -0.000005 -0.001179  0.004719
  0C   2dz2       0.066761  0.000027 -0.000038 -0.206674 -0.000037 -0.000002
  0C   2dxz      -0.000003 -0.010552  0.021086 -0.000060  0.113114  0.028259
  0C   2dyz       0.000029  0.021122  0.010523 -0.000005  0.028232 -0.113140
  0C   2dx2y2    -0.000001  0.176472 -0.353315  0.000081 -0.250309 -0.062524
  0C   2dxy      -0.000017  0.353230  0.176443  0.000110  0.062541 -0.250273
  0C   1f0       -0.002200  0.000002  0.000003  0.012081  0.000005 -0.000002
  0C   1f+1      -0.000001  0.009755 -0.019545  0.000009 -0.022635 -0.005650
  0C   1f-1      -0.000002 -0.019539 -0.009760 -0.000004 -0.005653  0.022635
  0C   1f+2      -0.000002  0.010539 -0.021095  0.000008 -0.013497 -0.003375
  0C   1f-2       0.000002  0.021099  0.010537  0.000006  0.003370 -0.013501
  0C   1f+3      -0.022895 -0.000003  0.000004  0.008735 -0.000002 -0.000003
  0C   1f-3       0.000003  0.000000  0.000002 -0.000001  0.000001 -0.000000
  1H   1s         0.020477 -0.020419  0.040898 -0.049818  0.011316  0.002815
  1H   2s         0.468485 -0.745156  1.492393 -0.399988  0.938370  0.234328
  1H   3s        -0.331463 -0.161246  0.322912 -0.253315 -0.015042 -0.003819
  1H   1pz       -0.009310  0.001689 -0.003387  0.014191  0.003583  0.000898
  1H   1px        0.008998 -0.011745  0.023523 -0.003782  0.016954  0.004234
  1H   1py       -0.000001  0.007514  0.003751  0.000001  0.000229 -0.000921
  1H   2pz       -0.010924  0.029359 -0.058795 -0.099547 -0.111063 -0.027755
  1H   2px        0.050718 -0.116710  0.233761  0.000490  0.179359  0.044807
  1H   2py       -0.000009  0.094632  0.047239  0.000054  0.023730 -0.095056
  1H   1dz2      -0.009911  0.000997 -0.001999  0.010878 -0.002854 -0.000713
  1H   1dxz      -0.001651  0.005929 -0.011875 -0.001768 -0.007380 -0.001843
  1H   1dyz      -0.000001 -0.005559 -0.002774  0.000000 -0.000790  0.003167
  1H   1dx2y2     0.002217 -0.011284  0.022602  0.001572  0.018005  0.004497
  1H   1dxy      -0.000001  0.008520  0.004251  0.000003  0.001264 -0.005065
  2H   1s         0.020459  0.045647 -0.002772 -0.049780 -0.003220 -0.011242
  2H   2s         0.468259  1.665111 -0.100946 -0.398912 -0.266243 -0.929956
  2H   3s        -0.331342  0.360173 -0.021802 -0.253185  0.004195  0.014646
  2H   1pz       -0.009308 -0.003785  0.000231  0.014193 -0.001013 -0.003541
  2H   1px       -0.004496 -0.012682  0.008056  0.001882  0.003193  0.008172
  2H   1py        0.007789  0.022983  0.002814 -0.003259 -0.003710 -0.014679
  2H   2pz       -0.010962 -0.065583  0.003978 -0.099595  0.031488  0.109968
  2H   2px       -0.025358 -0.124838  0.099345 -0.000347  0.107028  0.065484
  2H   2py        0.043915  0.229035  0.039103  0.000550  0.003044 -0.167386
  2H   1dz2      -0.009910 -0.002234  0.000136  0.010878  0.000810  0.002833
  2H   1dxz       0.000825  0.006299 -0.005773  0.000888 -0.003765 -0.002878
  2H   1dyz      -0.001432 -0.011661 -0.002405 -0.001533  0.000245  0.006783
  2H   1dx2y2    -0.001108 -0.013106 -0.007468 -0.000796 -0.001795  0.010165
  2H   1dxy      -0.001920 -0.021546  0.006076 -0.001378  0.006933  0.014728
  3H   1s        -0.085713 -0.000008 -0.000001  0.020188 -0.000006  0.000007
  3H   2s        -1.132935 -0.000129  0.000158  0.049522  0.000081  0.000014
  3H   3s         1.907234  0.000416 -0.000079  1.395264  0.000317  0.000504
  3H   1pz       -0.000925  0.000001 -0.000003 -0.027254  0.000000 -0.000001
  3H   1px        0.000006 -0.008005  0.016032 -0.000008 -0.004098 -0.001023
  3H   1py       -0.000005  0.016031  0.008004  0.000003 -0.001024  0.004100
  3H   2pz       -0.078235 -0.000075  0.000080  0.735022  0.000045  0.000093
  3H   2px       -0.000032  0.034138 -0.068354  0.000126  0.068850  0.017195
  3H   2py        0.000018 -0.068320 -0.034104 -0.000025  0.017203 -0.068917
  3H   1dz2      -0.011875 -0.000004  0.000004 -0.003698  0.000002 -0.000001
  3H   1dxz      -0.000002  0.001499 -0.003000 -0.000008 -0.000820 -0.000205
  3H   1dyz      -0.000000 -0.002995 -0.001494  0.000007 -0.000203  0.000816
  3H   1dx2y2     0.000000 -0.005474  0.010962 -0.000004  0.007497  0.001874
  3H   1dxy       0.000001 -0.010957 -0.005475 -0.000004 -0.001873  0.007498
  4H   1s         0.020464 -0.025203 -0.038151 -0.049802 -0.008118  0.008384
  4H   2s         0.468359 -0.919623 -1.391743 -0.399725 -0.672137  0.695518
  4H   3s        -0.331298 -0.199011 -0.301096 -0.253271  0.010666 -0.011123
  4H   1pz       -0.009307  0.002084  0.003161  0.014192 -0.002562  0.002657
  4H   1px       -0.004497  0.001181  0.014980  0.001890  0.006662 -0.005712
  4H   1py       -0.007791  0.016057  0.016681  0.003272  0.010175 -0.011211
  4H   2pz       -0.010967  0.036208  0.054795 -0.099522  0.079504 -0.082292
  4H   2px       -0.025361 -0.004401  0.159509 -0.000340  0.125255 -0.007518
  4H   2py       -0.043924  0.168865  0.159599 -0.000429  0.076008 -0.149192
  4H   1dz2      -0.009909  0.001233  0.001870  0.010877  0.002046 -0.002118
  4H   1dxz       0.000826  0.000831 -0.008502  0.000886 -0.004675  0.000770
  4H   1dyz       0.001431 -0.008926 -0.007875  0.001530 -0.003403  0.005870
  4H   1dx2y2    -0.001109  0.013844  0.005988 -0.000786  0.003193 -0.009814
  4H   1dxy       0.001920 -0.008090 -0.020878  0.001369 -0.013044  0.009745
  5Cl  1s        -0.001562 -0.000003  0.000001 -0.002477 -0.000000 -0.000001
  5Cl  2s        -0.004786 -0.000009  0.000003 -0.007076 -0.000001 -0.000002
  5Cl  3s         0.011676  0.000019 -0.000006  0.013102  0.000002  0.000004
  5Cl  4s         0.012312  0.000036 -0.000013  0.037826  0.000004  0.000013
  5Cl  5s         0.005926 -0.000056  0.000020 -0.172444 -0.000006 -0.000038
  5Cl  6s        -0.528880 -0.000213  0.000067  0.150789 -0.000061 -0.000053
  5Cl  1pz       -0.049477 -0.000025 -0.000000  0.139033  0.000032  0.000052
  5Cl  1px        0.000005 -0.044575  0.089266  0.000031 -0.151509 -0.037826
  5Cl  1py       -0.000004  0.089286  0.044577 -0.000030 -0.037828  0.151496
  5Cl  2pz       -0.011992 -0.000003 -0.000001  0.027957  0.000005  0.000009
  5Cl  2px        0.000001 -0.008296  0.016614  0.000006 -0.022860 -0.005707
  5Cl  2py       -0.000001  0.016617  0.008296 -0.000005 -0.005707  0.022857
  5Cl  3pz        0.039465  0.000000  0.000004 -0.093445 -0.000004 -0.000018
  5Cl  3px       -0.000000  0.019227 -0.038506 -0.000018  0.024561  0.006131
  5Cl  3py        0.000002 -0.038509 -0.019227  0.000011  0.006132 -0.024556
  5Cl  4pz        0.078853  0.000159 -0.000015 -0.404205 -0.000186 -0.000242
  5Cl  4px       -0.000033  0.179468 -0.359393 -0.000100  0.842701  0.210395
  5Cl  4py        0.000018 -0.359497 -0.179477  0.000131  0.210401 -0.842650
  5Cl  5pz       -0.100835 -0.000454  0.000122  1.060028  0.000258  0.000372
  5Cl  5px        0.000018 -0.180994  0.362435  0.000237 -1.171682 -0.292538
  5Cl  5py       -0.000012  0.362553  0.180996 -0.000209 -0.292544  1.171659
  5Cl  1dz2      -0.064585  0.000011 -0.000007 -0.052492 -0.000016 -0.000018
  5Cl  1dxz      -0.000020 -0.010015  0.020059 -0.000021  0.033557  0.008381
  5Cl  1dyz       0.000007  0.020059  0.010017  0.000010  0.008380 -0.033572
  5Cl  1dx2y2    -0.000000 -0.000554  0.001110 -0.000001  0.000554  0.000137
  5Cl  1dxy       0.000000 -0.001104 -0.000552 -0.000001 -0.000137  0.000542
  5Cl  2dz2      -0.199698  0.000011 -0.000021  0.085379 -0.000053 -0.000023
  5Cl  2dxz      -0.000045 -0.066168  0.132519  0.000017  0.129430  0.032329
  5Cl  2dyz       0.000011  0.132527  0.066171 -0.000003  0.032319 -0.129497
  5Cl  2dx2y2     0.000000 -0.004147  0.008315 -0.000005  0.004609  0.001147
  5Cl  2dxy       0.000001 -0.008263 -0.004133 -0.000005 -0.001145  0.004562
  5Cl  1f0        0.004834  0.000001 -0.000002  0.044159 -0.000001  0.000005
  5Cl  1f+1       0.000005 -0.004464  0.008940  0.000021  0.005436  0.001357
  5Cl  1f-1      -0.000003  0.008939  0.004463 -0.000008  0.001357 -0.005436
  5Cl  1f+2       0.000000 -0.000187  0.000377 -0.000000  0.000157  0.000039
  5Cl  1f-2       0.000000 -0.000371 -0.000186 -0.000000 -0.000039  0.000153
  5Cl  1f+3       0.000037 -0.000000  0.000000 -0.000093  0.000000  0.000000
  5Cl  1f-3      -0.000000  0.000000 -0.000000  0.000000 -0.000000  0.000000
                     24        25        26        27        28        29   
                   0.50563   0.56023   0.56024   0.62246   0.62751   0.62752
                   0.00000   0.00000   0.00000   0.00000   0.00000   0.00000
                  --------  --------  --------  --------  --------  --------
  0C   1s        -0.033638  0.000002 -0.000003  0.078340 -0.000063  0.000016
  0C   2s        -0.061476  0.000004 -0.000003  0.115109 -0.000093  0.000023
  0C   1pz       -0.202731  0.000019  0.000030 -0.122644  0.000073 -0.000036
  0C   1px        0.000002 -0.004068 -0.000170 -0.000179 -0.180906  0.199862
  0C   1py       -0.000016 -0.000165  0.004067  0.000111  0.199860  0.180907
  0C   3s         0.397039 -0.000026 -0.000047 -0.301737  0.000284 -0.000096
  0C   2pz       -0.330782  0.000065  0.000068  0.043020 -0.000047  0.000017
  0C   2px       -0.000018  0.096245  0.003971  0.000220  0.211684 -0.233879
  0C   2py       -0.000033  0.003961 -0.096252 -0.000135 -0.233867 -0.211702
  0C   4s        -1.285836  0.000009  0.000073  5.539155 -0.004930  0.001448
  0C   3pz        1.734597  0.000072 -0.000121  1.773825 -0.001107  0.000447
  0C   3px        0.000018  0.607491  0.025072  0.002152  2.138836 -2.362989
  0C   3py        0.000037  0.025001 -0.607610 -0.001304 -2.362956 -2.138903
  0C   1dz2       0.018833 -0.000000  0.000002 -0.033460  0.000033 -0.000006
  0C   1dxz       0.000000  0.014822  0.000611  0.000023  0.019498 -0.021536
  0C   1dyz       0.000002  0.000611 -0.014821 -0.000018 -0.021543 -0.019495
  0C   1dx2y2     0.000005  0.009346  0.000388 -0.000030 -0.030191  0.033348
  0C   1dxy       0.000002 -0.000385  0.009348 -0.000018 -0.033345 -0.030195
  0C   2dz2      -0.481756  0.000009  0.000115 -0.819047  0.000676 -0.000143
  0C   2dxz      -0.000094  0.147114  0.006082  0.000248  0.241450 -0.266665
  0C   2dyz      -0.000070  0.006045 -0.147168 -0.000286 -0.266773 -0.241397
  0C   2dx2y2     0.000017 -0.145787 -0.006042 -0.000679 -0.633311  0.699496
[...]
      8       0.000000   0.000000   0.000000   0.000000   0.000000   0.000000
      9       0.000000   0.000000   0.000000   0.000000   0.000000   0.000000
     10       0.000000   0.000000   0.000000   0.000000   0.000000   0.000000
     11       0.000000   0.000000   0.000000   0.000000   0.000000   0.000000
     12       0.000000   0.000000   0.000000   0.000000   0.000000   0.000000
     13       0.000000   0.000000   0.000000   0.000000   0.000000   0.000000
     14       0.000000   0.000000   0.000000   0.000000   0.000000   0.000000
     15       0.000000   0.000000   0.000000   0.000000   0.000000   0.000000
     16       0.000000   0.000000   0.000000   0.000000   0.000000   0.000000
     17       0.000000   0.000000   0.000000   0.000000   0.000000   0.000000
                  6          7          8          9         10         11    
      0      -0.000011  -0.024413  -0.025291   0.000027   0.051401  -0.046563
      1       0.000064  -0.025342   0.024358   0.000438   0.046570   0.051386
      2      -0.134630   0.000682  -0.000662   0.307031   0.000075   0.000093
      3       0.038078   0.067130   0.069689   0.031307  -0.021479   0.019171
      4      -0.000135   0.081887  -0.078712  -0.001036  -0.041833  -0.046197
      5       0.129977   0.455581   0.471362   0.503041  -0.326356   0.294124
      6      -0.019085   0.081217   0.073487  -0.015678  -0.049725   0.025469
      7       0.032922   0.077725  -0.064585   0.026211  -0.035850  -0.017779
      8       0.130079   0.182309  -0.630619   0.498009  -0.093572  -0.430634
      9       0.000099  -0.392564  -0.407789   0.000012  -0.619452   0.561102
     10      -0.001132  -0.407563   0.392807   0.002523  -0.561285  -0.619277
     11       0.962698   0.000429  -0.000333   0.345127  -0.000102  -0.000226
     12      -0.018980   0.070697   0.083792  -0.015478  -0.030172   0.047069
     13      -0.032999   0.067775  -0.075306  -0.027929  -0.014134  -0.037198
     14       0.129898  -0.635574   0.156960   0.507986   0.417214   0.133468
     15       0.000000   0.013204   0.013709  -0.000014   0.003081  -0.002786
     16       0.000017   0.013708  -0.013205  -0.000142   0.002792   0.003075
     17       0.007152  -0.000309   0.000299  -0.156736   0.000055   0.000061
                 12         13         14         15         16         17    
      0      -0.000013  -0.060837  -0.056661  -0.000001  -0.080770   0.055636
      1       0.000137  -0.056637   0.060870   0.000015  -0.055629  -0.080773
      2      -0.138506  -0.000001   0.000008  -0.025553  -0.000010  -0.000030
      3       0.118790  -0.076469  -0.071113  -0.567917   0.655582  -0.451564
      4      -0.000040   0.536838  -0.576646  -0.000005  -0.007072  -0.010333
      5       0.495194  -0.126572  -0.117806   0.102580  -0.133628   0.091959
      6      -0.059253   0.676638   0.102146   0.283917  -0.042396  -0.395926
      7       0.102677   0.363576   0.176327  -0.491815   0.048621   0.687863
      8       0.494743  -0.038802   0.168440   0.102274  -0.012901  -0.161323
      9      -0.000032  -0.021000  -0.019571  -0.000001  -0.007245   0.004982
     10      -0.001955  -0.019499   0.020970  -0.000025  -0.004995  -0.007240
     11      -0.450044   0.000148  -0.000139  -0.016844  -0.000001  -0.000005
     12      -0.059405   0.150046   0.667611   0.284004   0.354826   0.180824
     13      -0.102984  -0.202032  -0.350185   0.491785   0.625200   0.290406
     14       0.495661   0.165358  -0.050736   0.102712   0.146648   0.069712
     15       0.000002  -0.000122  -0.000111   0.000000   0.000047  -0.000036
     16       0.000019  -0.000114   0.000120  -0.000003   0.000032   0.000050
     17       0.017481  -0.000003   0.000004   0.000391   0.000000   0.000000


-----------
IR SPECTRUM
-----------

 Mode    freq (cm**-1)   T**2         TX         TY         TZ
-------------------------------------------------------------------
   7:       396.11    0.351805  ( -0.411204  -0.427317   0.010810)
   8:       396.24    0.353648  ( -0.428051   0.412709  -0.009574)
   9:       522.50    6.114087  (  0.000162  -0.001288   2.472668)
  10:       982.35    9.209156  ( -2.248968  -2.037470   0.003924)
  11:       982.42    9.205811  (  2.037403  -2.248285   0.004127)
  12:      1226.68    3.782057  ( -0.000515  -0.005994  -1.944742)
  13:      1449.17    4.327279  (  1.523679   1.416220   0.001143)
  14:      1449.25    4.327140  (  1.418534  -1.521477   0.002680)
  15:      3139.21    0.146219  (  0.001917  -0.000296   0.382381)
  16:      3310.92    0.005799  (  0.062656   0.043273   0.000479)
  17:      3310.95    0.005801  ( -0.043117   0.062773  -0.000985)

The first frequency considered to be a vibration is 7
The total number of vibrations considered is 11


--------------------------
THERMOCHEMISTRY AT 298.15K
--------------------------

Temperature         ... 298.15 K
Pressure            ... 1.00 atm
Total Mass          ... 51.50 AMU

Throughout the following assumptions are being made:
  (1) The electronic state is orbitally nondegenerate
      but the spin degeneracy is treated
  (2) There are no thermally accessible electronically excited states
  (3) Hindered rotations indicated by low frequency modes are not
      treated as such but are treated as vibrations and this may
      cause some error
  (4) All equations used are the standard statistical mechanics
      equations for an ideal gas
  (5) All vibrations are strictly harmonic

freq.     396.11  E(vib)   ...       0.20 
freq.     396.24  E(vib)   ...       0.20 
freq.     522.50  E(vib)   ...       0.13 
freq.     982.35  E(vib)   ...       0.02 
freq.     982.42  E(vib)   ...       0.02 
freq.    1226.68  E(vib)   ...       0.01 
freq.    1449.17  E(vib)   ...       0.00 
freq.    1449.25  E(vib)   ...       0.00 
freq.    3139.21  E(vib)   ...       0.00 
freq.    3310.92  E(vib)   ...       0.00 
freq.    3310.95  E(vib)   ...       0.00 

------------
INNER ENERGY
------------

The inner energy is: U= E(el) + E(ZPE) + E(vib) + E(rot) + E(trans)
    E(el)   - is the total energy from the electronic structure calculation
              = E(kin-el) + E(nuc-el) + E(el-el) + E(nuc-nuc)
    E(ZPE)  - the the zero temperature vibrational energy from the frequency calculation
    E(vib)  - the the finite temperature correction to E(ZPE) due to population
              of excited vibrational states
    E(rot)  - is the rotational thermal energy
    E(trans)- is the translational thermal energy

Summary of contributions to the inner energy U:
Electronic energy                ...   -500.11125943 Eh
Zero point energy                ...      0.03910657 Eh      24.54 kcal/mol
Thermal vibrational correction   ...      0.00094030 Eh       0.59 kcal/mol
Thermal rotational correction    ...      0.00141627 Eh       0.89 kcal/mol
Thermal translational correction ...      0.00141627 Eh       0.89 kcal/mol
-----------------------------------------------------------------------
Total thermal energy                   -500.06838003 Eh


Summary of corrections to the electronic energy:
(perhaps to be used in another calculation)
Total thermal correction                  0.00377284 Eh       2.37 kcal/mol
Non-thermal (ZPE) correction              0.03910657 Eh      24.54 kcal/mol
-----------------------------------------------------------------------
Total correction                          0.04287941 Eh      26.91 kcal/mol


--------
ENTHALPY
--------

The enthalpy is H = U + kB*T
                kB is Boltzmann's constant
Total free energy                 ...   -500.06838003 Eh 
Thermal Enthalpy correction       ...      0.00094421 Eh       0.59 kcal/mol
-----------------------------------------------------------------------
Total Enthalpy                    ...   -500.06743582 Eh


Note: Only C1 symmetry has been detected, increase convergence thresholds 
      if your molecule has a higher symmetry. Symmetry factor of 1.0 is   
      used for the rotational entropy correction. 
 

Note: Rotational entropy computed according to Herzberg 
Infrared and Raman Spectra, Chapter V,1, Van Nostrand Reinhold, 1945 
Point Group:  C1, Symmetry Number:   1  
Rotational constants in cm-1:     4.983207     0.192274     0.192274 

Vibrational entropy computed according to the QRRHO of S. Grimme
Chem.Eur.J. 2012 18 9955


-------
ENTROPY
-------

The entropy contributions are T*S = T*(S(el)+S(vib)+S(rot)+S(trans))
     S(el)   - electronic entropy
     S(vib)  - vibrational entropy
     S(rot)  - rotational entropy
     S(trans)- translational entropy
The entropies will be listed as mutliplied by the temperature to get
units of energy

Electronic entropy                ...      0.00065446 Eh      0.41 kcal/mol
Vibrational entropy               ...      0.00134466 Eh      0.84 kcal/mol
Rotational entropy                ...      0.01030940 Eh      6.47 kcal/mol
Translational entropy             ...      0.01793131 Eh     11.25 kcal/mol
-----------------------------------------------------------------------
Final entropy term                ...      0.03023982 Eh     18.98 kcal/mol

In case the symmetry of your molecule has not been determined correctly
or in case you have a reason to use a different symmetry number we print 
out the resulting rotational entropy values for sn=1,12 :
 --------------------------------------------------------
|  sn= 1 | S(rot)=       0.01030940 Eh      6.47 kcal/mol|
|  sn= 2 | S(rot)=       0.00965494 Eh      6.06 kcal/mol|
|  sn= 3 | S(rot)=       0.00927211 Eh      5.82 kcal/mol|
|  sn= 4 | S(rot)=       0.00900048 Eh      5.65 kcal/mol|
|  sn= 5 | S(rot)=       0.00878980 Eh      5.52 kcal/mol|
|  sn= 6 | S(rot)=       0.00861765 Eh      5.41 kcal/mol|
|  sn= 7 | S(rot)=       0.00847210 Eh      5.32 kcal/mol|
|  sn= 8 | S(rot)=       0.00834603 Eh      5.24 kcal/mol|
|  sn= 9 | S(rot)=       0.00823482 Eh      5.17 kcal/mol|
|  sn=10 | S(rot)=       0.00813534 Eh      5.10 kcal/mol|
|  sn=11 | S(rot)=       0.00804535 Eh      5.05 kcal/mol|
|  sn=12 | S(rot)=       0.00796319 Eh      5.00 kcal/mol|
 --------------------------------------------------------


-------------------
GIBBS FREE ENERGY
-------------------

The Gibbs free energy is G = H - T*S

Total enthalpy                    ...   -500.06743582 Eh 
Total entropy correction          ...     -0.03023982 Eh    -18.98 kcal/mol
-----------------------------------------------------------------------
Final Gibbs free energy         ...   -500.09767564 Eh

For completeness - the Gibbs free energy minus the electronic energy
G-E(el)                           ...      0.01358380 Eh      8.52 kcal/mol




------------------------------------------------------------------------------- 
                    Intrinsic Reaction Coordinate Calculation                  
------------------------------------------------------------------------------- 

System:
Nr. of atoms                        .... 6
Algorithm: SD (steepest descent step) plus correction
Settings:
Max. no of cycles        MaxIter    .... 1000
Direction                           .... Forward and backward
Initial displacement Hessian type   .... Read
Hessian Filename                    .... H3CHCl‡.hess
Following Hessian mode              .... 0
Initial displacement type           .... Energy
  Initial displacement energy change.... 0.250 mEh
Coordinate system following type    .... Cartesian
Length of steepest descent step     .... 0.150 bohr
Do parabolic fit 
  if SD step is uphill              .... YES
Do Correction to SD step            .... YES
Scaling for length of correction
  compared to SD step               .... 0.333
Do parabolic fit to SD correction   .... YES
Only interpolate for parabolic fit  .... YES
Do update to length of
  SD step and correction            .... YES
Convergence Tolerances:
  Max. Gradient            TolMAXG  ....  2.0000e-03 Eh/bohr
  RMS Gradient             TolRMSG  ....  5.0000e-04 Eh/bohr
Storing full IRC trajectory in      .... H3CHCl‡_IRC_Full_trj.xyz
Storing forward trajectory in       .... H3CHCl‡_IRC_F_trj.xyz
Storing backward trajectory in      .... H3CHCl‡_IRC_B_trj.xyz


 ...good, the file H3CHCl‡.hess exists
Reading the hessian file           ...... done
Determining length of initial displacement:
  Requested energy change (quadratic behavior): 0.250 mEh
  Resulting scaling factor for initial displacement along normalized TS mode: 0.0914

         *************************************************************
         *                          FORWARD IRC                      *
         *************************************************************

Iteration    E(Eh)      dE(kcal/mol)  max(|G|)   RMS(G) 
Convergence thresholds                0.002000  0.000500            
    0      -500.111544   -0.178424    0.006887  0.002096
    1      -500.113445   -1.371151    0.012676  0.004126
    2      -500.115286   -2.526486    0.010225  0.003001
    3      -500.116834   -3.497787    0.009051  0.002490
    4      -500.118145   -4.320736    0.007584  0.002275
    5      -500.119095   -4.916971    0.006862  0.002982
    6      -500.119314   -5.054064    0.006522  0.002077
    7      -500.119524   -5.185952    0.006177  0.001724
    8      -500.119757   -5.332334    0.005856  0.001523
    9      -500.119992   -5.479587    0.005544  0.001446
   10      -500.120211   -5.617411    0.005225  0.001364
   11      -500.120419   -5.747394    0.004926  0.001285
   12      -500.120613   -5.869227    0.004625  0.001203
   13      -500.120795   -5.983931    0.004339  0.001134
   14      -500.120966   -6.091053    0.004055  0.001053
   15      -500.121126   -6.191558    0.003787  0.000991
   16      -500.121274   -6.284088    0.003519  0.000913
   17      -500.121412   -6.370769    0.003272  0.000859
   18      -500.121539   -6.450227    0.003024  0.000785
   19      -500.121658   -6.525003    0.002796  0.000727
   20      -500.121766   -6.592959    0.002565  0.000670
   21      -500.121865   -6.655334    0.002354  0.000626
   22      -500.121955   -6.711601    0.002149  0.000615
   23      -500.122028   -6.757194    0.001976  0.000682
   24      -500.122053   -6.772832    0.001918  0.000607
   25      -500.122086   -6.793615    0.001856  0.000481

                      ***********************HURRAY********************
                      ***            THE IRC HAS CONVERGED          ***
                      *************************************************


         *************************************************************
         *                          BACKWARD IRC                     *
         *************************************************************

Iteration    E(Eh)      dE(kcal/mol)  max(|G|)   RMS(G) 
Convergence thresholds                0.002000  0.000500            
    0      -500.111454   -0.122233    0.007087  0.001933
    1      -500.112648   -0.871257    0.007750  0.002595
    2      -500.114073   -1.765814    0.006767  0.002464
    3      -500.115296   -2.532742    0.005551  0.002118
    4      -500.115718   -2.797739    0.006269  0.002525
    5      -500.115838   -2.873250    0.004542  0.001805
    6      -500.116075   -3.021671    0.004037  0.001554
    7      -500.116312   -3.170357    0.003910  0.001466
    8      -500.116528   -3.306135    0.003401  0.001343
    9      -500.116731   -3.433511    0.003389  0.001258
   10      -500.116917   -3.550075    0.002823  0.001150
   11      -500.117090   -3.658929    0.003075  0.001073
   12      -500.117249   -3.758372    0.002719  0.000986
   13      -500.117393   -3.849169    0.002548  0.000905
   14      -500.117528   -3.933310    0.002345  0.000833
   15      -500.117647   -4.008412    0.002238  0.000769
   16      -500.117756   -4.076954    0.002244  0.000724
   17      -500.117851   -4.136524    0.002312  0.000758
   18      -500.117878   -4.153379    0.001607  0.000683
   19      -500.117919   -4.179168    0.001436  0.000574
   20      -500.117963   -4.206658    0.001641  0.000551
   21      -500.118004   -4.232476    0.001345  0.000515
   22      -500.118044   -4.257246    0.001221  0.000484

                      ***********************HURRAY********************
                      ***            THE IRC HAS CONVERGED          ***
                      *************************************************


---------------------------------------------------------------
                       IRC PATH SUMMARY              
---------------------------------------------------------------
All gradients are in Eh/Bohr.

Step        E(Eh)      dE(kcal/mol)  max(|G|)   RMS(G) 
   1      -500.118044   -4.257246    0.001221  0.000484
   2      -500.118004   -4.232476    0.001345  0.000515
   3      -500.117963   -4.206658    0.001641  0.000551
   4      -500.117919   -4.179168    0.001436  0.000574
   5      -500.117878   -4.153379    0.001607  0.000683
   6      -500.117851   -4.136524    0.002312  0.000758
   7      -500.117756   -4.076954    0.002244  0.000724
   8      -500.117647   -4.008412    0.002238  0.000769
   9      -500.117528   -3.933310    0.002345  0.000833
  10      -500.117393   -3.849169    0.002548  0.000905
  11      -500.117249   -3.758372    0.002719  0.000986
  12      -500.117090   -3.658929    0.003075  0.001073
  13      -500.116917   -3.550075    0.002823  0.001150
  14      -500.116731   -3.433511    0.003389  0.001258
  15      -500.116528   -3.306135    0.003401  0.001343
  16      -500.116312   -3.170357    0.003910  0.001466
  17      -500.116075   -3.021671    0.004037  0.001554
  18      -500.115838   -2.873250    0.004542  0.001805
  19      -500.115718   -2.797739    0.006269  0.002525
  20      -500.115296   -2.532742    0.005551  0.002118
  21      -500.114073   -1.765814    0.006767  0.002464
  22      -500.112648   -0.871257    0.007750  0.002595
  23      -500.111454   -0.122233    0.007087  0.001933
  24      -500.111259    0.000000    0.000013  0.000004 <= TS
  25      -500.111544   -0.178424    0.006887  0.002096
  26      -500.113445   -1.371151    0.012676  0.004126
  27      -500.115286   -2.526486    0.010225  0.003001
  28      -500.116834   -3.497787    0.009051  0.002490
  29      -500.118145   -4.320736    0.007584  0.002275
  30      -500.119095   -4.916971    0.006862  0.002982
  31      -500.119314   -5.054064    0.006522  0.002077
  32      -500.119524   -5.185952    0.006177  0.001724
  33      -500.119757   -5.332334    0.005856  0.001523
  34      -500.119992   -5.479587    0.005544  0.001446
  35      -500.120211   -5.617411    0.005225  0.001364
  36      -500.120419   -5.747394    0.004926  0.001285
  37      -500.120613   -5.869227    0.004625  0.001203
  38      -500.120795   -5.983931    0.004339  0.001134
  39      -500.120966   -6.091053    0.004055  0.001053
  40      -500.121126   -6.191558    0.003787  0.000991
  41      -500.121274   -6.284088    0.003519  0.000913
  42      -500.121412   -6.370769    0.003272  0.000859
  43      -500.121539   -6.450227    0.003024  0.000785
  44      -500.121658   -6.525003    0.002796  0.000727
  45      -500.121766   -6.592959    0.002565  0.000670
  46      -500.121865   -6.655334    0.002354  0.000626
  47      -500.121955   -6.711601    0.002149  0.000615
  48      -500.122028   -6.757194    0.001976  0.000682
  49      -500.122053   -6.772832    0.001918  0.000607
  50      -500.122086   -6.793615    0.001856  0.000481

Timings for individual modules:

Sum of individual times         ...    13794.852 sec (= 229.914 min)
GTO integral calculation        ...      394.377 sec (=   6.573 min)   2.9 %
SCF iterations                  ...     3192.395 sec (=  53.207 min)  23.1 %
MP2 module                      ...     8604.455 sec (= 143.408 min)  62.4 %
Geometry relaxation             ...        0.354 sec (=   0.006 min)   0.0 %
Analytical frequency calculation...     1603.271 sec (=  26.721 min)  11.6 %
                             ****ORCA TERMINATED NORMALLY****
TOTAL RUN TIME: 0 days 3 hours 50 minutes 1 seconds 370 msec
