
                                 *****************
                                 * O   R   C   A *
                                 *****************

           --- An Ab Initio, DFT and Semiempirical electronic structure package ---

                  #######################################################
                  #                        -***-                        #
                  #          Department of theory and spectroscopy      #
                  #               Directorship: Frank Neese             #
                  #        Max Planck Institute fuer Kohlenforschung    #
                  #                Kaiser Wilhelm Platz 1               #
                  #                 D-45470 Muelheim/Ruhr               #
                  #                      Germany                        #
                  #                                                     #
                  #                  All rights reserved                #
                  #                        -***-                        #
                  #######################################################


                         Program Version 4.2.1 -  RELEASE  -


 With contributions from (in alphabetic order):
   Daniel Aravena         : Magnetic Suceptibility
   Michael Atanasov       : Ab Initio Ligand Field Theory (pilot matlab implementation)
   Alexander A. Auer      : GIAO ZORA, VPT2
   Ute Becker             : Parallelization
   Giovanni Bistoni       : ED, misc. LED, open-shell LED, HFLD
   Martin Brehm           : Molecular dynamics
   Dmytro Bykov           : SCF Hessian
   Vijay G. Chilkuri      : MRCI spin determinant printing, contributions to CSF-ICE
   Dipayan Datta          : RHF DLPNO-CCSD density
   Achintya Kumar Dutta   : EOM-CC, STEOM-CC
   Dmitry Ganyushin       : Spin-Orbit,Spin-Spin,Magnetic field MRCI
   Miquel Garcia          : C-PCM Hessian, Gaussian charge scheme
   Yang Guo               : DLPNO-NEVPT2, CIM, IAO-localization
   Andreas Hansen         : Spin unrestricted coupled pair/coupled cluster methods
   Benjamin Helmich-Paris : CASSCF linear response (MC-RPA)
   Lee Huntington         : MR-EOM, pCC
   Robert Izsak           : Overlap fitted RIJCOSX, COSX-SCS-MP3, EOM
   Christian Kollmar      : KDIIS, OOCD, Brueckner-CCSD(T), CCSD density
   Simone Kossmann        : Meta GGA functionals, TD-DFT gradient, OOMP2, MP2 Hessian
   Martin Krupicka        : AUTO-CI
   Lucas Lang             : DCDCAS
   Dagmar Lenk            : GEPOL surface, SMD
   Dimitrios Liakos       : Extrapolation schemes; Compound Job, initial MDCI parallelization
   Dimitrios Manganas     : Further ROCIS development; embedding schemes
   Dimitrios Pantazis     : SARC Basis sets
   Taras Petrenko         : DFT Hessian,TD-DFT gradient, ASA, ECA, R-Raman, ABS, FL, XAS/XES, NRVS
   Peter Pinski           : DLPNO-MP2, DLPNO-MP2 Gradient
   Christoph Reimann      : Effective Core Potentials
   Marius Retegan         : Local ZFS, SOC
   Christoph Riplinger    : Optimizer, TS searches, QM/MM, DLPNO-CCSD(T), (RO)-DLPNO pert. Triples
   Tobias Risthaus        : Range-separated hybrids, TD-DFT gradient, RPA, STAB
   Michael Roemelt        : Original ROCIS implementation
   Masaaki Saitow         : Open-shell DLPNO-CCSD energy and density
   Barbara Sandhoefer     : DKH picture change effects
   Avijit Sen             : IP-ROCIS
   Kantharuban Sivalingam : CASSCF convergence, NEVPT2, FIC-MRCI
   Bernardo de Souza      : ESD, SOC TD-DFT
   Georgi Stoychev        : AutoAux, RI-MP2 NMR
   Willem Van den Heuvel  : Paramagnetic NMR
   Boris Wezisla          : Elementary symmetry handling
   Frank Wennmohs         : Technical directorship


 We gratefully acknowledge several colleagues who have allowed us to
 interface, adapt or use parts of their codes:
   Stefan Grimme, W. Hujo, H. Kruse,             : VdW corrections, initial TS optimization,
                  C. Bannwarth                     DFT functionals, gCP, sTDA/sTD-DF
   Ed Valeev, F. Pavosevic, A. Kumar             : LibInt (2-el integral package), F12 methods
   Garnet Chan, S. Sharma, J. Yang, R. Olivares  : DMRG
   Ulf Ekstrom                                   : XCFun DFT Library
   Mihaly Kallay                                 : mrcc  (arbitrary order and MRCC methods)
   Andreas Klamt, Michael Diedenhofen            : otool_cosmo (COSMO solvation model)
   Jiri Pittner, Ondrej Demel                    : Mk-CCSD
   Frank Weinhold                                : gennbo (NPA and NBO analysis)
   Christopher J. Cramer and Donald G. Truhlar   : smd solvation model
   Lars Goerigk                                  : TD-DFT with DH, B97 family of functionals
   V. Asgeirsson, H. Jonsson                     : NEB implementation
   FAccTs GmbH                                   : IRC, NEB, NEB-TS, Multilevel, MM, QM/MM, CI optimization
   S Lehtola, MJT Oliveira, MAL Marques          : LibXC Library


 Your calculation uses the libint2 library for the computation of 2-el integrals
 For citations please refer to: http://libint.valeyev.net

 Your ORCA version has been built with support for libXC version: 4.2.3
 For citations please refer to: https://tddft.org/programs/libxc/

 This ORCA versions uses:
   CBLAS   interface :  Fast vector & matrix operations
   LAPACKE interface :  Fast linear algebra routines
   SCALAPACK package :  Parallel linear algebra routines


----- Orbital basis set information -----
Your calculation utilizes the basis: 6-311G(2df,2pd)
   H, Li - Ne  : R. Krishnan, J. S. Binkley, R. Seeger and J. A. Pople, J. Chem. Phys. 72, 650 (1980).
   Na - Ar     : A. D. McLean and G. S. Chandler J. Chem. Phys. 72, 5639, (1980).
   K  - Ca     : J.-P. Blaudeau, M. P. McGrath, L. A. Curtiss and L. Radom, J. Chem. Phys. 107, 5016 (1997).
   Ga - Kr     : L. A. Curtiss, M. P. McGrath, J.-P. Blandeau, N. E. Davis, R. C. Binning and L. Radom, J. Chem. Phys. 103, 6104 (1995).
   Pol./Diff.
   H, Li - Cl  : T. Clark, J. Chandrasekhar and P. v. R. Schleyer, J. Comp. Chem. 4, 294 (1983).
   H - Ne      : M. J. Frisch, J. A. Pople and J. S. Binkley, J. Chem. Phys. 80, 3265 (1984).

================================================================================
                                        WARNINGS
                       Please study these warnings very carefully!
================================================================================


WARNING: Geometry Optimization
  ===> : Switching off AutoStart
         For restart on a previous wavefunction, please use MOREAD

WARNING: Post HF methods need fully converged wavefunctions
  ===> : Setting SCFConvForced true
         You can overwrite this default with %scf ConvForced false 


INFO   : the flag for use of LIBINT has been found!

================================================================================
                                       INPUT FILE
================================================================================
NAME = HCl.inp
|  1> ! UHF MP2 6-311G(2df,2pd) Opt Freq NoFrozenCore TightOpt TightSCF Grid4 FinalGrid5 PrintBasis PrintMOs NBO
|  2> %maxcore 3000
|  3> 
|  4> *xyz 0 1
|  5> Cl       0.000000000      0.000000000      0.034379000
|  6> H        0.000000000      0.000000000     -1.236571000
|  7> *
|  8> 
|  9> %pal
| 10>  nprocs 12
| 11> end
| 12> 
| 13>                          ****END OF INPUT****
================================================================================

                       *****************************
                       * Geometry Optimization Run *
                       *****************************

Geometry optimization settings:
Update method            Update   .... BFGS
Choice of coordinates    CoordSys .... Z-matrix Internals
Initial Hessian          InHess   .... Almoef's Model

Convergence Tolerances:
Energy Change            TolE     ....  1.0000e-06 Eh
Max. Gradient            TolMAXG  ....  1.0000e-04 Eh/bohr
RMS Gradient             TolRMSG  ....  3.0000e-05 Eh/bohr
Max. Displacement        TolMAXD  ....  1.0000e-03 bohr
RMS Displacement         TolRMSD  ....  6.0000e-04 bohr
Strict Convergence                ....  False
------------------------------------------------------------------------------
                        ORCA OPTIMIZATION COORDINATE SETUP
------------------------------------------------------------------------------

The optimization will be done in new redundant internal coordinates
Making redundant internal coordinates   ...  (new redundants) done
Evaluating the initial hessian          ...  (Almloef) done
Evaluating the coordinates              ...  done
Calculating the B-matrix                .... done
Calculating the G-matrix                .... done
Diagonalizing the G-matrix              .... done
The first mode is                       ....    0
The number of degrees of freedom        ....    1

    -----------------------------------------------------------------
                    Redundant Internal Coordinates


    -----------------------------------------------------------------
         Definition                    Initial Value    Approx d2E/dq
    -----------------------------------------------------------------
      1. B(H   1,Cl  0)                  1.2710         0.415647   
    -----------------------------------------------------------------

Number of atoms                         .... 2
Number of degrees of freedom            .... 1

         *************************************************************
         *                GEOMETRY OPTIMIZATION CYCLE   1            *
         *************************************************************
---------------------------------
CARTESIAN COORDINATES (ANGSTROEM)
---------------------------------
  Cl     0.000000    0.000000    0.034379
  H      0.000000    0.000000   -1.236571

----------------------------
CARTESIAN COORDINATES (A.U.)
----------------------------
  NO LB      ZA    FRAG     MASS         X           Y           Z
   0 Cl   17.0000    0    35.453    0.000000    0.000000    0.064967
   1 H     1.0000    0     1.008    0.000000    0.000000   -2.336781

--------------------------------
INTERNAL COORDINATES (ANGSTROEM)
--------------------------------
 Cl     0   0   0     0.000000000000     0.00000000     0.00000000
 H      1   0   0     1.270950000000     0.00000000     0.00000000

---------------------------
INTERNAL COORDINATES (A.U.)
---------------------------
 Cl     0   0   0     0.000000000000     0.00000000     0.00000000
 H      1   0   0     2.401747429907     0.00000000     0.00000000

---------------------
BASIS SET INFORMATION
---------------------
There are 2 groups of distinct atoms

 Group   1 Type Cl  : 13s10p2d1f contracted to 6s5p2d1f pattern {631111/52111/11/1}
 Group   2 Type H   : 5s2p1d contracted to 3s2p1d pattern {311/11/1}

Atom   0Cl   basis set group =>   1
Atom   1H    basis set group =>   2

-------------------------
BASIS SET IN INPUT FORMAT
-------------------------

 # Basis set for element : H 
 NewGTO H 
 S 3 
   1      33.8650000000      0.0254938145
   2       5.0947900000      0.1903731086
   3       1.1587900000      0.8521614860
 S 1 
   1       0.3258400000      1.0000000000
 S 1 
   1       0.1027410000      1.0000000000
 P 1 
   1       1.5000000000      1.0000000000
 P 1 
   1       0.3750000000      1.0000000000
 D 1 
   1       1.0000000000      1.0000000000
  end;

 # Basis set for element : Cl
 NewGTO Cl
 S 6 
   1  105819.0000000000      0.0007380002
   2   15872.0000000000      0.0057180019
   3    3619.6500000000      0.0294950099
   4    1030.8000000000      0.1172860392
   5     339.9080000000      0.3629491212
   6     124.5380000000      0.5841491951
 S 3 
   1     124.5380000000      0.1341769734
   2      49.5135000000      0.6242498762
   3      20.8056000000      0.2917559421
 S 1 
   1       6.5834600000      1.0000000000
 S 1 
   1       2.5646800000      1.0000000000
 S 1 
   1       0.5597630000      1.0000000000
 S 1 
   1       0.1832730000      1.0000000000
 P 5 
   1     589.7760000000      0.0023909997
   2     139.8490000000      0.0185039976
   3      45.1413000000      0.0813769893
   4      16.8733000000      0.2215519708
   5       6.7411000000      0.7725688983
 P 2 
   1       6.7411000000     -1.5722438126
   2       2.7715200000      0.9923888817
 P 1 
   1       1.0238700000      1.0000000000
 P 1 
   1       0.3813680000      1.0000000000
 P 1 
   1       0.1094370000      1.0000000000
 D 1 
   1       1.5000000000      1.0000000000
 D 1 
   1       0.3750000000      1.0000000000
 F 1 
   1       0.7000000000      1.0000000000
  end;



           ************************************************************
           *        Program running with 12 parallel MPI-processes    *
           *              working on a common directory               *
           ************************************************************
------------------------------------------------------------------------------
                           ORCA GTO INTEGRAL CALCULATION
------------------------------------------------------------------------------

                         BASIS SET STATISTICS AND STARTUP INFO

 # of primitive gaussian shells          ...   34
 # of primitive gaussian functions       ...   76
 # of contracted shells                  ...   20
 # of contracted basis functions         ...   52
 Highest angular momentum                ...    3
 Maximum contraction depth               ...    6
 Integral package used                   ... LIBINT
 Integral threshhold            Thresh   ...  2.500e-11
 Primitive cut-off              TCut     ...  2.500e-12


------------------------------ INTEGRAL EVALUATION ----------------------------


 * One electron integrals 
 Pre-screening matrix                    ... done
 Shell pair data                         ... done (   0.000 sec)



           ************************************************************
           *        Program running with 12 parallel MPI-processes    *
           *              working on a common directory               *
           ************************************************************
-------------------------------------------------------------------------------
                                 ORCA SCF
-------------------------------------------------------------------------------

------------
SCF SETTINGS
------------
Hamiltonian:
 Ab initio Hamiltonian  Method          .... Hartree-Fock(GTOs)


General Settings:
 Integral files         IntName         .... HCl
 Hartree-Fock type      HFTyp           .... UHF
 Total Charge           Charge          ....    0
 Multiplicity           Mult            ....    1
 Number of Electrons    NEL             ....   18
 Basis Dimension        Dim             ....   52
 Nuclear Repulsion      ENuc            ....      7.0781797404 Eh

Convergence Acceleration:
 DIIS                   CNVDIIS         .... on
   Start iteration      DIISMaxIt       ....    12
   Startup error        DIISStart       ....  0.200000
   # of expansion vecs  DIISMaxEq       ....     5
   Bias factor          DIISBfac        ....   1.050
   Max. coefficient     DIISMaxC        ....  10.000
 Newton-Raphson         CNVNR           .... off
 SOSCF                  CNVSOSCF        .... off
 Level Shifting         CNVShift        .... on
   Level shift para.    LevelShift      ....    0.2500
   Turn off err/grad.   ShiftErr        ....    0.0010
 Zerner damping         CNVZerner       .... off
 Static damping         CNVDamp         .... on
   Fraction old density DampFac         ....    0.7000
   Max. Damping (<1)    DampMax         ....    0.9800
   Min. Damping (>=0)   DampMin         ....    0.0000
   Turn off err/grad.   DampErr         ....    0.1000
 Fernandez-Rico         CNVRico         .... off

SCF Procedure:
 Maximum # iterations   MaxIter         ....   125
 SCF integral mode      SCFMode         .... Direct
   Integral package                     .... LIBINT
 Reset frequency        DirectResetFreq ....    20
 Integral Threshold     Thresh          ....  2.500e-11 Eh
 Primitive CutOff       TCut            ....  2.500e-12 Eh

Convergence Tolerance:
 Convergence Check Mode ConvCheckMode   .... Total+1el-Energy
 Convergence forced     ConvForced      .... 1
 Energy Change          TolE            ....  1.000e-08 Eh
 1-El. energy change                    ....  1.000e-05 Eh
 DIIS Error             TolErr          ....  5.000e-07


Diagonalization of the overlap matrix:
Smallest eigenvalue                        ... 4.010e-03
Time for diagonalization                   ...    0.003 sec
Threshold for overlap eigenvalues          ... 1.000e-08
Number of eigenvalues below threshold      ... 0
Time for construction of square roots      ...    0.008 sec
Total time needed                          ...    0.011 sec

-------------------
DFT GRID GENERATION
-------------------

General Integration Accuracy     IntAcc      ...  4.670
Radial Grid Type                 RadialGrid  ... Gauss-Chebyshev
Angular Grid (max. acc.)         AngularGrid ... Lebedev-302
Angular grid pruning method      GridPruning ... 3 (G Style)
Weight generation scheme         WeightScheme... Becke
Basis function cutoff            BFCut       ...    1.0000e-11
Integration weight cutoff        WCut        ...    1.0000e-14
Grids for H and He will be reduced by one unit

# of grid points (after initial pruning)     ...  10132 (   0.0 sec)
# of grid points (after weights+screening)   ...  10103 (   0.0 sec)
nearest neighbour list constructed           ...    0.0 sec
Grid point re-assignment to atoms done       ...    0.0 sec
Grid point division into batches done        ...    0.1 sec
Reduced shell lists constructed in    0.1 sec

Total number of grid points                  ...    10103
Total number of batches                      ...      159
Average number of points per batch           ...       63
Average number of grid points per atom       ...     5052
Average number of shells per batch           ...     4.20 (21.00%)
Average number of basis functions per batch  ...     9.27 (17.82%)
Average number of large shells per batch     ...     2.60 (61.90%)
Average number of large basis fcns per batch ...     6.33 (68.35%)
Maximum spatial batch extension              ...  25.31, 23.02, 15.18 au
Average spatial batch extension              ...   1.46,  1.37,  0.97 au

Time for grid setup =    0.205 sec

------------------------------
INITIAL GUESS: MODEL POTENTIAL
------------------------------
Loading Hartree-Fock densities                     ... done
Calculating cut-offs                               ... done
Setting up the integral package                    ... done
Initializing the effective Hamiltonian             ... done
Starting the Coulomb interaction                   ... done (   0.0 sec)
Reading the grid                                   ... done
Mapping shells                                     ... done
Starting the XC term evaluation                    ... done (   0.0 sec)
Transforming the Hamiltonian                       ... done (   0.0 sec)
Diagonalizing the Hamiltonian                      ... done (   0.0 sec)
Back transforming the eigenvectors                 ... done (   0.0 sec)
Now organizing SCF variables                       ... done
                      ------------------
                      INITIAL GUESS DONE (   0.5 sec)
                      ------------------
--------------
SCF ITERATIONS
--------------
ITER       Energy         Delta-E        Max-DP      RMS-DP      [F,P]     Damp
               ***  Starting incremental Fock matrix formation  ***
  0   -460.0718515045   0.000000000000 0.01447087  0.00060509  0.6475280 0.7000
  1   -460.0801022501  -0.008250745552 0.01097869  0.00045944  0.4558512 0.7000
  2   -460.0857942334  -0.005691983316 0.00705764  0.00031023  0.3208299 0.7000
  3   -460.0897229529  -0.003928719573 0.00439481  0.00020787  0.2257410 0.7000
                               ***Turning on DIIS***
  4   -460.0924673446  -0.002744391655 0.00272669  0.00014226  0.1587828 0.7000
  5   -460.1362923139  -0.043824969258 0.00144221  0.00010262  0.1116547 0.7000
  6   -460.1262194354   0.010072878456 0.00396948  0.00026005  0.0782554 0.0000
  7   -460.0992126793   0.027006756139 0.00042772  0.00002513  0.0021051 0.0000
  8   -460.0998734370  -0.000660757782 0.00029792  0.00001785  0.0010472 0.0000
  9   -460.0989248979   0.000948539147 0.00015808  0.00000945  0.0003397 0.0000
 10   -460.0990048937  -0.000079995778 0.00002341  0.00000120  0.0000285 0.0000
 11   -460.0990321721  -0.000027278382 0.00000656  0.00000031  0.0000083 0.0000
 12   -460.0990014927   0.000030679341 0.00000140  0.00000005  0.0000014 0.0000
                            ***DIIS convergence achieved***

               *****************************************************
               *                     SUCCESS                       *
               *           SCF CONVERGED AFTER  13 CYCLES          *
               *****************************************************


----------------
TOTAL SCF ENERGY
----------------

Total Energy       :         -460.09900833 Eh          -12519.93052 eV

Components:
Nuclear Repulsion  :            7.07817974 Eh             192.60706 eV
Electronic Energy  :         -467.17718807 Eh          -12712.53758 eV
One Electron Energy:         -649.83223115 Eh          -17682.83399 eV
Two Electron Energy:          182.65504308 Eh            4970.29641 eV

Virial components:
Potential Energy   :         -920.20457281 Eh          -25040.03944 eV
Kinetic Energy     :          460.10556448 Eh           12520.10892 eV
Virial Ratio       :            1.99998575


---------------
SCF CONVERGENCE
---------------

  Last Energy change         ...   -6.8335e-06  Tolerance :   1.0000e-08
  Last MAX-Density change    ...    1.0581e-07  Tolerance :   1.0000e-07
  Last RMS-Density change    ...    6.9804e-09  Tolerance :   5.0000e-09
  Last DIIS Error            ...    3.2131e-07  Tolerance :   5.0000e-07

             **** THE GBW FILE WAS UPDATED (HCl.gbw) ****
             **** DENSITY FILE WAS UPDATED (HCl.scfp) ****
             **** ENERGY FILE WAS UPDATED (HCl.en.tmp) ****
----------------------
UHF SPIN CONTAMINATION
----------------------

Expectation value of <S**2>     :    -0.000000
Ideal value S*(S+1) for S=0.0   :     0.000000
Deviation                       :    -0.000000

             **** THE GBW FILE WAS UPDATED (HCl.gbw) ****
             **** DENSITY FILE WAS UPDATED (HCl.scfp) ****
----------------
ORBITAL ENERGIES
----------------
                 SPIN UP ORBITALS
  NO   OCC          E(Eh)            E(eV) 
   0   1.0000    -104.850065     -2853.1153 
   1   1.0000     -10.576392      -287.7983 
   2   1.0000      -8.044391      -218.8990 
   3   1.0000      -8.042080      -218.8361 
   4   1.0000      -8.042080      -218.8361 
   5   1.0000      -1.119920       -30.4746 
   6   1.0000      -0.628610       -17.1053 
   7   1.0000      -0.478767       -13.0279 
   8   1.0000      -0.478767       -13.0279 
   9   0.0000       0.124391         3.3849 
  10   0.0000       0.310089         8.4379 
  11   0.0000       0.416331        11.3289 
  12   0.0000       0.416331        11.3289 
  13   0.0000       0.429915        11.6986 
  14   0.0000       0.557999        15.1839 
  15   0.0000       0.557999        15.1839 
  16   0.0000       0.663817        18.0634 
  17   0.0000       0.663817        18.0634 
  18   0.0000       0.833381        22.6774 
  19   0.0000       1.004027        27.3210 
  20   0.0000       1.056666        28.7533 
  21   0.0000       1.056666        28.7533 
  22   0.0000       1.447583        39.3907 
  23   0.0000       2.157344        58.7043 
  24   0.0000       2.305161        62.7266 
  25   0.0000       2.305161        62.7266 
  26   0.0000       2.385433        64.9109 
  27   0.0000       2.385433        64.9109 
  28   0.0000       2.399543        65.2949 
  29   0.0000       2.399543        65.2949 
  30   0.0000       2.465414        67.0873 
  31   0.0000       2.465414        67.0873 
  32   0.0000       2.674683        72.7818 
  33   0.0000       2.724720        74.1434 
  34   0.0000       2.724720        74.1434 
  35   0.0000       2.756867        75.0182 
  36   0.0000       2.858530        77.7846 
  37   0.0000       2.858530        77.7846 
  38   0.0000       3.265116        88.8483 
  39   0.0000       3.421620        93.1070 
  40   0.0000       3.421620        93.1070 
  41   0.0000       4.059396       110.4618 
  42   0.0000       4.059396       110.4618 
  43   0.0000       4.271588       116.2358 
  44   0.0000       4.271588       116.2358 
  45   0.0000       4.689811       127.6162 
  46   0.0000       4.880481       132.8046 
  47   0.0000      10.701749       291.2094 
  48   0.0000      26.240908       714.0514 
  49   0.0000      26.240908       714.0514 
  50   0.0000      27.696916       753.6714 
  51   0.0000     219.465463      5971.9589 

                 SPIN DOWN ORBITALS
  NO   OCC          E(Eh)            E(eV) 
   0   1.0000    -104.850065     -2853.1153 
   1   1.0000     -10.576392      -287.7983 
   2   1.0000      -8.044391      -218.8990 
   3   1.0000      -8.042080      -218.8361 
   4   1.0000      -8.042080      -218.8361 
   5   1.0000      -1.119920       -30.4746 
   6   1.0000      -0.628610       -17.1053 
   7   1.0000      -0.478767       -13.0279 
   8   1.0000      -0.478767       -13.0279 
   9   0.0000       0.124391         3.3849 
  10   0.0000       0.310089         8.4379 
  11   0.0000       0.416331        11.3289 
  12   0.0000       0.416331        11.3289 
  13   0.0000       0.429915        11.6986 
  14   0.0000       0.557999        15.1839 
  15   0.0000       0.557999        15.1839 
  16   0.0000       0.663817        18.0634 
  17   0.0000       0.663817        18.0634 
  18   0.0000       0.833381        22.6774 
  19   0.0000       1.004027        27.3210 
  20   0.0000       1.056666        28.7533 
  21   0.0000       1.056666        28.7533 
  22   0.0000       1.447583        39.3907 
  23   0.0000       2.157344        58.7043 
  24   0.0000       2.305161        62.7266 
  25   0.0000       2.305161        62.7266 
  26   0.0000       2.385433        64.9109 
  27   0.0000       2.385433        64.9109 
  28   0.0000       2.399543        65.2949 
  29   0.0000       2.399543        65.2949 
  30   0.0000       2.465414        67.0873 
  31   0.0000       2.465414        67.0873 
  32   0.0000       2.674683        72.7818 
  33   0.0000       2.724720        74.1434 
  34   0.0000       2.724720        74.1434 
  35   0.0000       2.756867        75.0182 
  36   0.0000       2.858530        77.7846 
  37   0.0000       2.858530        77.7846 
  38   0.0000       3.265116        88.8483 
  39   0.0000       3.421620        93.1070 
  40   0.0000       3.421620        93.1070 
  41   0.0000       4.059396       110.4618 
  42   0.0000       4.059396       110.4618 
  43   0.0000       4.271588       116.2358 
  44   0.0000       4.271588       116.2358 
  45   0.0000       4.689811       127.6162 
  46   0.0000       4.880481       132.8046 
  47   0.0000      10.701749       291.2094 
  48   0.0000      26.240908       714.0514 
  49   0.0000      26.240908       714.0514 
  50   0.0000      27.696916       753.6714 
  51   0.0000     219.465463      5971.9589 
------------------
MOLECULAR ORBITALS
------------------
                      0         1         2         3         4         5   
                 -104.85006 -10.57639  -8.04439  -8.04208  -8.04208  -1.11992
                   1.00000   1.00000   1.00000   1.00000   1.00000   1.00000
                  --------  --------  --------  --------  --------  --------
  0Cl  1s         0.411733 -0.121938 -0.000537  0.000000 -0.000000  0.034729
  0Cl  2s         0.654661 -0.331514 -0.001500  0.000000 -0.000000  0.100546
  0Cl  3s         0.012091  0.512077  0.002889 -0.000000  0.000000 -0.199122
  0Cl  4s        -0.000924  0.605063  0.002174 -0.000000  0.000000 -0.395149
  0Cl  5s         0.000210  0.042699 -0.000946  0.000000 -0.000000  0.597507
  0Cl  6s         0.000068 -0.003846  0.001416 -0.000000 -0.000000  0.483504
  0Cl  1pz       -0.000165 -0.004635  1.230006 -0.000000  0.000000  0.041945
  0Cl  1px       -0.000000  0.000000  0.000000  1.107505 -0.538169 -0.000000
  0Cl  1py        0.000000 -0.000000 -0.000000 -0.538169 -1.107505  0.000000
  0Cl  2pz       -0.000110 -0.001320  0.327006 -0.000000  0.000000  0.010821
  0Cl  2px       -0.000000  0.000000  0.000000  0.294391 -0.143053 -0.000000
  0Cl  2py        0.000000 -0.000000 -0.000000 -0.143053 -0.294391  0.000000
  0Cl  3pz        0.000139  0.000632  0.051909 -0.000000  0.000000 -0.029845
  0Cl  3px        0.000000 -0.000000  0.000000  0.044296 -0.021525  0.000000
  0Cl  3py       -0.000000  0.000000 -0.000000 -0.021525 -0.044296 -0.000000
  0Cl  4pz       -0.000242 -0.007013 -0.004034  0.000000 -0.000000 -0.022670
  0Cl  4px       -0.000000  0.000000 -0.000000 -0.001968  0.000956  0.000000
  0Cl  4py        0.000000  0.000000  0.000000  0.000956  0.001968  0.000000
  0Cl  5pz       -0.000003  0.000653  0.000557  0.000000  0.000000 -0.009961
  0Cl  5px       -0.000000 -0.000000  0.000000  0.000592 -0.000288  0.000000
  0Cl  5py        0.000000 -0.000000 -0.000000 -0.000288 -0.000592  0.000000
  0Cl  1dz2       0.000005  0.000736 -0.000690  0.000000 -0.000000  0.011718
  0Cl  1dxz       0.000000  0.000000 -0.000000 -0.000530  0.000257 -0.000000
  0Cl  1dyz      -0.000000 -0.000000 -0.000000  0.000257  0.000530  0.000000
  0Cl  1dx2y2    -0.000000 -0.000000  0.000000  0.000000 -0.000000 -0.000000
  0Cl  1dxy      -0.000000 -0.000000  0.000000 -0.000000  0.000000  0.000000
  0Cl  2dz2       0.000098  0.003024  0.000660 -0.000000  0.000000  0.003615
  0Cl  2dxz       0.000000 -0.000000  0.000000  0.000197 -0.000096 -0.000000
  0Cl  2dyz      -0.000000 -0.000000  0.000000 -0.000096 -0.000197 -0.000000
  0Cl  2dx2y2    -0.000000  0.000000  0.000000  0.000000  0.000000  0.000000
  0Cl  2dxy      -0.000000  0.000000 -0.000000 -0.000000  0.000000 -0.000000
  0Cl  1f0       -0.000032 -0.001376  0.000164  0.000000  0.000000 -0.002611
  0Cl  1f+1      -0.000000  0.000000 -0.000000  0.000124 -0.000060  0.000000
  0Cl  1f-1       0.000000 -0.000000  0.000000 -0.000060 -0.000124  0.000000
  0Cl  1f+2      -0.000000  0.000000  0.000000  0.000000  0.000000  0.000000
  0Cl  1f-2       0.000000 -0.000000  0.000000  0.000000  0.000000  0.000000
  0Cl  1f+3      -0.000000  0.000000 -0.000000  0.000000  0.000000 -0.000000
  0Cl  1f-3      -0.000000  0.000000  0.000000  0.000000 -0.000000  0.000000
  1H   1s         0.000004  0.000456 -0.000313  0.000000  0.000000  0.085427
  1H   2s        -0.000227 -0.007884 -0.001688  0.000000 -0.000000  0.131053
  1H   3s         0.000007  0.002116 -0.000073  0.000000 -0.000000  0.003870
  1H   1pz       -0.000021 -0.000969  0.000086  0.000000  0.000000  0.013763
  1H   1px       -0.000000  0.000000  0.000000  0.000018 -0.000009 -0.000000
  1H   1py       -0.000000  0.000000  0.000000 -0.000009 -0.000018  0.000000
  1H   2pz       -0.000139 -0.004917 -0.001039  0.000000 -0.000000  0.038504
  1H   2px        0.000000 -0.000000 -0.000000  0.000072 -0.000035 -0.000000
  1H   2py       -0.000000 -0.000000  0.000000 -0.000035 -0.000072 -0.000000
  1H   1dz2      -0.000031 -0.001414  0.000109  0.000000  0.000000  0.008588
  1H   1dxz      -0.000000 -0.000000  0.000000 -0.000040  0.000020 -0.000000
  1H   1dyz       0.000000  0.000000  0.000000  0.000020  0.000040 -0.000000
  1H   1dx2y2    -0.000000  0.000000 -0.000000  0.000000  0.000000 -0.000000
  1H   1dxy      -0.000000 -0.000000  0.000000  0.000000 -0.000000  0.000000
                      6         7         8         9        10        11   
                  -0.62861  -0.47877  -0.47877   0.12439   0.31009   0.41633
                   1.00000   1.00000   1.00000   0.00000   0.00000   0.00000
                  --------  --------  --------  --------  --------  --------
  0Cl  1s        -0.010361 -0.000000  0.000000 -0.010672  0.002638  0.000000
  0Cl  2s        -0.030184 -0.000000  0.000000 -0.031723  0.007745  0.000000
  0Cl  3s         0.061474  0.000000 -0.000000  0.069815 -0.016360 -0.000000
  0Cl  4s         0.120805  0.000000 -0.000000  0.109249 -0.029751 -0.000000
  0Cl  5s        -0.188841 -0.000000  0.000000 -0.060327 -0.022895  0.000000
  0Cl  6s        -0.292873 -0.000000  0.000000 -1.240909  0.333112  0.000000
  0Cl  1pz        0.278996 -0.000000 -0.000000 -0.125043  0.004915 -0.000000
  0Cl  1px       -0.000000 -0.112565 -0.315423 -0.000000 -0.000000 -0.128370
  0Cl  1py        0.000000 -0.315423  0.112565  0.000000 -0.000000 -0.136847
  0Cl  2pz        0.067869 -0.000000 -0.000000 -0.029517  0.003487 -0.000000
  0Cl  2px       -0.000000 -0.026876 -0.075310 -0.000000 -0.000000 -0.020502
  0Cl  2py        0.000000 -0.075310  0.026876  0.000000 -0.000000 -0.021856
  0Cl  3pz       -0.199609  0.000000  0.000000  0.076913 -0.001597  0.000000
  0Cl  3px        0.000000  0.081166  0.227440  0.000000  0.000000  0.030183
  0Cl  3py       -0.000000  0.227440 -0.081166 -0.000000  0.000000  0.032176
  0Cl  4pz       -0.420356  0.000000  0.000000  0.361461 -0.022689  0.000000
  0Cl  4px        0.000000  0.199577  0.559242 -0.000000 -0.000000  0.661022
  0Cl  4py       -0.000000  0.559242 -0.199577 -0.000000 -0.000000  0.704669
  0Cl  5pz       -0.167534  0.000000  0.000000  0.904037 -0.927079 -0.000000
  0Cl  5px        0.000000  0.111217  0.311646  0.000000  0.000000 -0.869355
  0Cl  5py       -0.000000  0.311646 -0.111217 -0.000000  0.000000 -0.926758
  0Cl  1dz2       0.033212  0.000000 -0.000000  0.026882 -0.094246  0.000000
  0Cl  1dxz      -0.000000 -0.001583 -0.004436 -0.000000 -0.000000 -0.006275
  0Cl  1dyz      -0.000000 -0.004436  0.001583 -0.000000 -0.000000 -0.006689
  0Cl  1dx2y2    -0.000000 -0.000000  0.000000  0.000000  0.000000  0.000000
  0Cl  1dxy      -0.000000 -0.000000  0.000000 -0.000000 -0.000000  0.000000
  0Cl  2dz2       0.042041  0.000000  0.000000 -0.037408 -0.092930  0.000000
  0Cl  2dxz      -0.000000 -0.003628 -0.010166  0.000000  0.000000  0.000674
  0Cl  2dyz      -0.000000 -0.010166  0.003628 -0.000000  0.000000  0.000718
  0Cl  2dx2y2    -0.000000 -0.000000 -0.000000 -0.000000  0.000000  0.000000
  0Cl  2dxy      -0.000000 -0.000000  0.000000 -0.000000  0.000000  0.000000
  0Cl  1f0       -0.009172  0.000000 -0.000000  0.017270 -0.026964 -0.000000
  0Cl  1f+1       0.000000  0.001835  0.005142 -0.000000 -0.000000 -0.001089
  0Cl  1f-1      -0.000000  0.005142 -0.001835 -0.000000 -0.000000 -0.001161
  0Cl  1f+2       0.000000 -0.000000  0.000000  0.000000 -0.000000 -0.000000
  0Cl  1f-2       0.000000  0.000000  0.000000  0.000000 -0.000000 -0.000000
  0Cl  1f+3      -0.000000 -0.000000 -0.000000  0.000000 -0.000000 -0.000000
  0Cl  1f-3       0.000000  0.000000 -0.000000 -0.000000 -0.000000  0.000000
  1H   1s         0.149297  0.000000 -0.000000  0.072669 -0.083074  0.000000
  1H   2s         0.303035  0.000000 -0.000000  0.218859 -1.242726 -0.000000
  1H   3s         0.053603  0.000000 -0.000000  1.804046  0.638134 -0.000000
  1H   1pz        0.013066 -0.000000 -0.000000 -0.011325 -0.024607  0.000000
  1H   1px        0.000000  0.001804  0.005055 -0.000000 -0.000000 -0.004607
  1H   1py        0.000000  0.005055 -0.001804 -0.000000  0.000000 -0.004911
  1H   2pz        0.040894 -0.000000 -0.000000  0.152302 -0.097815 -0.000000
  1H   2px        0.000000  0.009956  0.027898  0.000000  0.000000  0.046697
  1H   2py       -0.000000  0.027898 -0.009956  0.000000 -0.000000  0.049780
  1H   1dz2       0.009177 -0.000000 -0.000000  0.022141 -0.023368 -0.000000
  1H   1dxz       0.000000  0.001170  0.003278  0.000000  0.000000  0.001490
  1H   1dyz       0.000000  0.003278 -0.001170  0.000000  0.000000  0.001588
  1H   1dx2y2     0.000000  0.000000  0.000000  0.000000  0.000000  0.000000
  1H   1dxy       0.000000  0.000000  0.000000  0.000000 -0.000000  0.000000
                     12        13        14        15        16        17   
                   0.41633   0.42992   0.55800   0.55800   0.66382   0.66382
                   0.00000   0.00000   0.00000   0.00000   0.00000   0.00000
                  --------  --------  --------  --------  --------  --------
  0Cl  1s         0.000000  0.003564  0.000000 -0.000000 -0.000000 -0.000000
  0Cl  2s         0.000000  0.009873  0.000000 -0.000000 -0.000000 -0.000000
  0Cl  3s        -0.000000 -0.015940  0.000000  0.000000  0.000000 -0.000000
  0Cl  4s        -0.000000 -0.061758 -0.000000  0.000000  0.000000  0.000000
  0Cl  5s         0.000000  0.051179  0.000000 -0.000000 -0.000000 -0.000000
  0Cl  6s         0.000000  1.027235 -0.000000  0.000000  0.000000  0.000000
  0Cl  1pz       -0.000000 -0.228678  0.000000  0.000000  0.000000 -0.000000
  0Cl  1px        0.136847  0.000000  0.028595 -0.010626  0.000000 -0.000000
  0Cl  1py       -0.128370  0.000000 -0.010626 -0.028595 -0.000000 -0.000000
  0Cl  2pz       -0.000000 -0.046729  0.000000  0.000000  0.000000 -0.000000
  0Cl  2px        0.021856  0.000000  0.004992 -0.001855  0.000000 -0.000000
  0Cl  2py       -0.020502  0.000000 -0.001855 -0.004992  0.000000 -0.000000
  0Cl  3pz        0.000000  0.152023 -0.000000 -0.000000 -0.000000  0.000000
  0Cl  3px       -0.032176 -0.000000 -0.008896  0.003306 -0.000000  0.000000
  0Cl  3py        0.030183 -0.000000  0.003306  0.008896 -0.000000  0.000000
  0Cl  4pz        0.000000  0.501767  0.000000 -0.000000 -0.000000  0.000000
  0Cl  4px       -0.704669 -0.000000 -0.139036  0.051666  0.000000 -0.000000
  0Cl  4py        0.661022 -0.000000  0.051666  0.139036  0.000000  0.000000
  0Cl  5pz       -0.000000 -1.490511  0.000000  0.000000  0.000000 -0.000000
  0Cl  5px        0.926758  0.000000 -0.097275  0.036148 -0.000000  0.000000
  0Cl  5py       -0.869355  0.000000  0.036148  0.097275  0.000000 -0.000000
  0Cl  1dz2       0.000000  0.037573  0.000000  0.000000 -0.000000  0.000000
  0Cl  1dxz       0.006689  0.000000 -0.144887  0.053840 -0.000000  0.000000
  0Cl  1dyz      -0.006275  0.000000  0.053840  0.144887  0.000000  0.000000
  0Cl  1dx2y2     0.000000 -0.000000 -0.000000 -0.000000  0.175634 -0.049582
  0Cl  1dxy       0.000000 -0.000000  0.000000  0.000000 -0.049582 -0.175634
  0Cl  2dz2       0.000000  0.475600 -0.000000 -0.000000 -0.000000  0.000000
  0Cl  2dxz      -0.000718 -0.000000 -0.554057  0.205889 -0.000000  0.000000
  0Cl  2dyz       0.000674  0.000000  0.205889  0.554057  0.000000  0.000000
  0Cl  2dx2y2     0.000000  0.000000 -0.000000 -0.000000  0.867688 -0.244950
  0Cl  2dxy       0.000000  0.000000 -0.000000  0.000000 -0.244950 -0.867688
  0Cl  1f0       -0.000000 -0.057811  0.000000 -0.000000 -0.000000 -0.000000
  0Cl  1f+1       0.001161  0.000000 -0.010274  0.003818  0.000000  0.000000
  0Cl  1f-1      -0.001089  0.000000  0.003818  0.010274 -0.000000  0.000000
  0Cl  1f+2       0.000000 -0.000000  0.000000 -0.000000 -0.007381  0.002084
  0Cl  1f-2      -0.000000  0.000000 -0.000000  0.000000  0.002084  0.007381
  0Cl  1f+3       0.000000 -0.000000  0.000000 -0.000000  0.000000 -0.000000
  0Cl  1f-3       0.000000  0.000000  0.000000  0.000000 -0.000000  0.000000
  1H   1s         0.000000  0.114255 -0.000000 -0.000000  0.000000 -0.000000
  1H   2s         0.000000 -0.105259  0.000000  0.000000  0.000000 -0.000000
  1H   3s        -0.000000 -1.323954  0.000000 -0.000000 -0.000000 -0.000000
  1H   1pz        0.000000  0.013455  0.000000  0.000000  0.000000 -0.000000
  1H   1px        0.004911  0.000000 -0.028449  0.010572  0.000000  0.000000
  1H   1py       -0.004607  0.000000  0.010572  0.028449  0.000000  0.000000
  1H   2pz       -0.000000 -0.593146  0.000000 -0.000000 -0.000000 -0.000000
  1H   2px       -0.049780 -0.000000  0.496627 -0.184548  0.000000 -0.000000
  1H   2py        0.046697 -0.000000 -0.184548 -0.496627 -0.000000 -0.000000
  1H   1dz2      -0.000000 -0.038318  0.000000 -0.000000  0.000000 -0.000000
  1H   1dxz      -0.001588 -0.000000  0.003225 -0.001199 -0.000000  0.000000
  1H   1dyz       0.001490 -0.000000 -0.001199 -0.003225 -0.000000 -0.000000
  1H   1dx2y2    -0.000000 -0.000000 -0.000000  0.000000  0.010701 -0.003021
  1H   1dxy      -0.000000 -0.000000  0.000000  0.000000 -0.003021 -0.010701
                     18        19        20        21        22        23   
                   0.83338   1.00403   1.05667   1.05667   1.44758   2.15734
                   0.00000   0.00000   0.00000   0.00000   0.00000   0.00000
                  --------  --------  --------  --------  --------  --------
  0Cl  1s        -0.020568  0.025148  0.000000 -0.000000 -0.009654 -0.002127
  0Cl  2s        -0.057452  0.069059  0.000000 -0.000000 -0.026181 -0.005216
  0Cl  3s         0.095554 -0.103761 -0.000000  0.000000  0.036575  0.001854
  0Cl  4s         0.363738 -0.497307 -0.000000  0.000000  0.202741  0.068997
  0Cl  5s        -1.416871  1.989193  0.000000 -0.000000 -0.083660 -0.056785
  0Cl  6s         2.874177 -3.121658 -0.000000  0.000000 -4.071445 -1.307500
  0Cl  1pz       -0.063097  0.005031  0.000000  0.000000 -0.218737 -0.190162
  0Cl  1px        0.000000 -0.000000  0.022953 -0.028790 -0.000000 -0.000000
  0Cl  1py        0.000000 -0.000000  0.028790  0.022953 -0.000000 -0.000000
  0Cl  2pz       -0.024732  0.006511  0.000000  0.000000 -0.043639 -0.062575
  0Cl  2px        0.000000 -0.000000  0.004421 -0.005545 -0.000000 -0.000000
  0Cl  2py        0.000000 -0.000000  0.005545  0.004421 -0.000000 -0.000000
  0Cl  3pz        0.213125 -0.114876 -0.000000 -0.000000 -0.007610  0.334164
  0Cl  3px       -0.000000  0.000000 -0.009172  0.011504  0.000000  0.000000
  0Cl  3py       -0.000000  0.000000 -0.011504 -0.009172  0.000000  0.000000
  0Cl  4pz       -0.973036  0.686220 -0.000000  0.000000  2.960153  0.638969
  0Cl  4px       -0.000000  0.000000 -0.126488  0.158655 -0.000000 -0.000000
  0Cl  4py        0.000000  0.000000 -0.158655 -0.126488 -0.000000 -0.000000
  0Cl  5pz       -0.491727  1.090562  0.000000 -0.000000  1.066286  0.582541
  0Cl  5px       -0.000000  0.000000 -0.209409  0.262663 -0.000000  0.000000
  0Cl  5py       -0.000000  0.000000 -0.262663 -0.209409 -0.000000  0.000000
  0Cl  1dz2      -0.140668 -0.118700 -0.000000  0.000000 -0.055161 -0.115441
  0Cl  1dxz       0.000000 -0.000000  0.086314 -0.108264  0.000000  0.000000
  0Cl  1dyz       0.000000 -0.000000  0.108264  0.086314  0.000000 -0.000000
  0Cl  1dx2y2    -0.000000  0.000000  0.000000 -0.000000  0.000000  0.000000
  0Cl  1dxy       0.000000 -0.000000  0.000000 -0.000000 -0.000000  0.000000
  0Cl  2dz2      -0.059812 -1.094774 -0.000000 -0.000000 -1.904340 -0.504375
  0Cl  2dxz       0.000000 -0.000000  0.558071 -0.699992  0.000000 -0.000000
  0Cl  2dyz       0.000000 -0.000000  0.699992  0.558071  0.000000  0.000000
  0Cl  2dx2y2    -0.000000 -0.000000  0.000000  0.000000 -0.000000 -0.000000
  0Cl  2dxy       0.000000 -0.000000  0.000000  0.000000  0.000000 -0.000000
  0Cl  1f0       -0.133978  0.107638 -0.000000  0.000000  0.174138  0.780721
  0Cl  1f+1      -0.000000  0.000000 -0.000855  0.001073  0.000000  0.000000
  0Cl  1f-1      -0.000000  0.000000 -0.001073 -0.000855  0.000000  0.000000
  0Cl  1f+2      -0.000000  0.000000  0.000000 -0.000000  0.000000  0.000000
  0Cl  1f-2       0.000000  0.000000 -0.000000 -0.000000 -0.000000  0.000000
  0Cl  1f+3      -0.000000  0.000000  0.000000 -0.000000  0.000000 -0.000000
  0Cl  1f-3       0.000000 -0.000000 -0.000000 -0.000000 -0.000000  0.000000
  1H   1s         0.084775 -0.093362 -0.000000 -0.000000  0.076897 -0.877805
  1H   2s        -0.376663  1.919114  0.000000  0.000000  3.836612  2.518991
  1H   3s        -1.549509  0.725230  0.000000  0.000000  1.227816 -0.118470
  1H   1pz       -0.007987  0.059732  0.000000 -0.000000 -0.083296 -0.054056
  1H   1px       -0.000000  0.000000 -0.047755  0.059899  0.000000  0.000000
  1H   1py       -0.000000  0.000000 -0.059899 -0.047755  0.000000  0.000000
  1H   2pz       -1.291105  0.413685 -0.000000  0.000000  3.300592  0.976921
  1H   2px        0.000000 -0.000000  0.776464 -0.973924  0.000000 -0.000000
  1H   2py        0.000000 -0.000000  0.973924  0.776464  0.000000 -0.000000
  1H   1dz2      -0.122464  0.119617  0.000000  0.000000  0.188372  0.034729
  1H   1dxz       0.000000 -0.000000  0.011687 -0.014659 -0.000000 -0.000000
  1H   1dyz       0.000000 -0.000000  0.014659  0.011687 -0.000000 -0.000000
  1H   1dx2y2    -0.000000  0.000000 -0.000000  0.000000 -0.000000 -0.000000
  1H   1dxy       0.000000  0.000000  0.000000  0.000000 -0.000000  0.000000
                     24        25        26        27        28        29   
                   2.30516   2.30516   2.38543   2.38543   2.39954   2.39954
                   0.00000   0.00000   0.00000   0.00000   0.00000   0.00000
                  --------  --------  --------  --------  --------  --------
  0Cl  1s        -0.000000 -0.000000 -0.000000 -0.000000 -0.000000 -0.000000
  0Cl  2s        -0.000000 -0.000000 -0.000000 -0.000000 -0.000000 -0.000000
  0Cl  3s         0.000000  0.000000  0.000000  0.000000  0.000000  0.000000
  0Cl  4s         0.000000  0.000000  0.000000  0.000000  0.000000 -0.000000
  0Cl  5s        -0.000000 -0.000000 -0.000000 -0.000000 -0.000000  0.000000
  0Cl  6s        -0.000000 -0.000000  0.000000  0.000000 -0.000000 -0.000000
  0Cl  1pz        0.000000  0.000000  0.000000 -0.000000  0.000000 -0.000000
  0Cl  1px       -0.000000  0.000000  0.000000 -0.000000 -0.089924  0.250186
  0Cl  1py        0.000000 -0.000000  0.000000  0.000000 -0.250186 -0.089924
  0Cl  2pz        0.000000  0.000000  0.000000  0.000000  0.000000 -0.000000
  0Cl  2px       -0.000000  0.000000  0.000000 -0.000000 -0.030431  0.084666
  0Cl  2py        0.000000 -0.000000  0.000000  0.000000 -0.084666 -0.030431
  0Cl  3pz       -0.000000 -0.000000 -0.000000  0.000000 -0.000000  0.000000
  0Cl  3px        0.000000 -0.000000 -0.000000  0.000000  0.220842 -0.614424
  0Cl  3py       -0.000000  0.000000 -0.000000 -0.000000  0.614424  0.220842
  0Cl  4pz        0.000000  0.000000  0.000000  0.000000  0.000000 -0.000000
  0Cl  4px       -0.000000  0.000000  0.000000 -0.000000 -0.216423  0.602130
  0Cl  4py        0.000000 -0.000000  0.000000  0.000000 -0.602130 -0.216423
  0Cl  5pz        0.000000  0.000000 -0.000000 -0.000000 -0.000000  0.000000
  0Cl  5px        0.000000 -0.000000 -0.000000  0.000000  0.095970 -0.267008
  0Cl  5py       -0.000000  0.000000 -0.000000 -0.000000  0.267008  0.095970
  0Cl  1dz2       0.000000  0.000000  0.000000 -0.000000  0.000000  0.000000
  0Cl  1dxz      -0.000000 -0.000000  0.000000 -0.000000 -0.115241  0.320621
  0Cl  1dyz       0.000000  0.000000  0.000000  0.000000 -0.320621 -0.115241
  0Cl  1dx2y2     0.030576  0.007254  0.000000  0.000000  0.000000  0.000000
  0Cl  1dxy      -0.007254  0.030576  0.000000 -0.000000  0.000000 -0.000000
  0Cl  2dz2      -0.000000 -0.000000 -0.000000  0.000000 -0.000000 -0.000000
  0Cl  2dxz       0.000000  0.000000 -0.000000  0.000000  0.053794 -0.149664
  0Cl  2dyz      -0.000000  0.000000 -0.000000 -0.000000  0.149664  0.053794
  0Cl  2dx2y2     0.024019  0.005698 -0.000000 -0.000000  0.000000  0.000000
  0Cl  2dxy      -0.005698  0.024019 -0.000000  0.000000 -0.000000  0.000000
  0Cl  1f0       -0.000000 -0.000000  0.000000  0.000000 -0.000000  0.000000
  0Cl  1f+1       0.000000  0.000000 -0.000000  0.000000  0.274327 -0.763228
  0Cl  1f-1      -0.000000 -0.000000 -0.000000 -0.000000  0.763228  0.274327
  0Cl  1f+2       0.898313  0.213114 -0.000000  0.000000 -0.000000  0.000000
  0Cl  1f-2      -0.213114  0.898313 -0.000000  0.000000  0.000000 -0.000000
  0Cl  1f+3       0.000000  0.000000  0.999142 -0.041426  0.000000 -0.000000
  0Cl  1f-3       0.000000  0.000000 -0.041426 -0.999142 -0.000000 -0.000000
  1H   1s        -0.000000 -0.000000  0.000000 -0.000000 -0.000000  0.000000
  1H   2s         0.000000  0.000000  0.000000  0.000000  0.000000  0.000000
  1H   3s         0.000000  0.000000 -0.000000 -0.000000 -0.000000  0.000000
  1H   1pz        0.000000  0.000000  0.000000 -0.000000  0.000000 -0.000000
  1H   1px        0.000000  0.000000 -0.000000  0.000000  0.044832 -0.124732
  1H   1py       -0.000000 -0.000000 -0.000000 -0.000000  0.124732  0.044832
  1H   2pz        0.000000  0.000000  0.000000  0.000000  0.000000  0.000000
  1H   2px       -0.000000 -0.000000  0.000000 -0.000000 -0.089400  0.248727
  1H   2py        0.000000  0.000000  0.000000  0.000000 -0.248727 -0.089400
  1H   1dz2       0.000000  0.000000  0.000000 -0.000000  0.000000 -0.000000
  1H   1dxz       0.000000  0.000000 -0.000000  0.000000  0.060124 -0.167276
  1H   1dyz      -0.000000 -0.000000 -0.000000 -0.000000  0.167276  0.060124
  1H   1dx2y2    -0.230791 -0.054752  0.000000 -0.000000  0.000000 -0.000000
  1H   1dxy       0.054752 -0.230791  0.000000  0.000000 -0.000000  0.000000
                     30        31        32        33        34        35   
                   2.46541   2.46541   2.67468   2.72472   2.72472   2.75687
                   0.00000   0.00000   0.00000   0.00000   0.00000   0.00000
                  --------  --------  --------  --------  --------  --------
  0Cl  1s        -0.000000  0.000000 -0.000322 -0.000000  0.000000  0.007648
  0Cl  2s        -0.000000  0.000000 -0.001905 -0.000000  0.000000  0.021919
  0Cl  3s         0.000000 -0.000000  0.011963  0.000000 -0.000000 -0.041421
  0Cl  4s         0.000000  0.000000 -0.020951  0.000000 -0.000000 -0.146590
  0Cl  5s        -0.000000 -0.000000 -0.048292 -0.000000  0.000000  0.191607
  0Cl  6s         0.000000  0.000000  0.234228 -0.000000  0.000000  2.455503
  0Cl  1pz        0.000000 -0.000000  0.399211  0.000000 -0.000000 -0.466843
  0Cl  1px       -0.661701  0.324383  0.000000 -0.000000  0.000000 -0.000000
  0Cl  1py       -0.324383 -0.661701  0.000000 -0.000000  0.000000  0.000000
  0Cl  2pz        0.000000 -0.000000  0.131897  0.000000 -0.000000 -0.159473
  0Cl  2px       -0.218448  0.107089  0.000000 -0.000000  0.000000 -0.000000
  0Cl  2py       -0.107089 -0.218448  0.000000 -0.000000  0.000000  0.000000
  0Cl  3pz       -0.000000  0.000000 -0.956205 -0.000000  0.000000  1.452250
  0Cl  3px        1.603861 -0.786254 -0.000000  0.000000 -0.000000  0.000000
  0Cl  3py        0.786254  1.603861 -0.000000  0.000000 -0.000000 -0.000000
  0Cl  4pz        0.000000 -0.000000  0.804643  0.000000 -0.000000 -3.350126
  0Cl  4px       -1.513157  0.741789  0.000000 -0.000000  0.000000 -0.000000
  0Cl  4py       -0.741789 -1.513157  0.000000 -0.000000  0.000000  0.000000
  0Cl  5pz       -0.000000 -0.000000 -0.467849  0.000000 -0.000000 -0.337946
  0Cl  5px        0.429787 -0.210693 -0.000000 -0.000000 -0.000000  0.000000
  0Cl  5py        0.210693  0.429787  0.000000  0.000000 -0.000000 -0.000000
  0Cl  1dz2       0.000000 -0.000000 -0.910993  0.000000  0.000000 -0.304559
  0Cl  1dxz       0.186636 -0.091494  0.000000 -0.000000 -0.000000 -0.000000
  0Cl  1dyz       0.091494  0.186636  0.000000 -0.000000 -0.000000 -0.000000
  0Cl  1dx2y2    -0.000000 -0.000000 -0.000000  0.766668 -0.791330  0.000000
  0Cl  1dxy      -0.000000 -0.000000  0.000000  0.791330  0.766668 -0.000000
  0Cl  2dz2       0.000000  0.000000  0.710481 -0.000000  0.000000  1.425085
  0Cl  2dxz      -0.065610  0.032164 -0.000000  0.000000  0.000000  0.000000
  0Cl  2dyz      -0.032164 -0.065610 -0.000000  0.000000  0.000000  0.000000
  0Cl  2dx2y2     0.000000  0.000000  0.000000 -0.455411  0.470061 -0.000000
  0Cl  2dxy       0.000000  0.000000 -0.000000 -0.470061 -0.455411  0.000000
  0Cl  1f0        0.000000  0.000000 -0.034181 -0.000000  0.000000  0.101498
  0Cl  1f+1      -0.225474  0.110533 -0.000000 -0.000000  0.000000 -0.000000
  0Cl  1f-1      -0.110533 -0.225474  0.000000 -0.000000 -0.000000  0.000000
  0Cl  1f+2       0.000000 -0.000000  0.000000 -0.049282  0.050867  0.000000
  0Cl  1f-2      -0.000000 -0.000000 -0.000000 -0.050867 -0.049282  0.000000
  0Cl  1f+3       0.000000 -0.000000  0.000000 -0.000000  0.000000  0.000000
  0Cl  1f-3      -0.000000 -0.000000  0.000000  0.000000 -0.000000 -0.000000
  1H   1s         0.000000  0.000000  0.114827 -0.000000  0.000000  1.166108
  1H   2s        -0.000000 -0.000000 -0.424091  0.000000 -0.000000 -4.198963
  1H   3s        -0.000000 -0.000000 -0.045594 -0.000000  0.000000  0.044636
  1H   1pz        0.000000 -0.000000 -0.168953  0.000000 -0.000000 -0.167198
  1H   1px       -0.068299  0.033482 -0.000000  0.000000  0.000000 -0.000000
  1H   1py       -0.033482 -0.068299  0.000000 -0.000000 -0.000000 -0.000000
  1H   2pz       -0.000000 -0.000000  0.124388  0.000000 -0.000000 -1.897388
  1H   2px        0.170088 -0.083381  0.000000  0.000000  0.000000  0.000000
  1H   2py        0.083381  0.170088 -0.000000  0.000000  0.000000  0.000000
  1H   1dz2       0.000000 -0.000000 -0.184969  0.000000 -0.000000 -0.165495
  1H   1dxz      -0.071430  0.035017  0.000000 -0.000000  0.000000  0.000000
  1H   1dyz      -0.035017 -0.071430  0.000000 -0.000000 -0.000000  0.000000
  1H   1dx2y2    -0.000000  0.000000  0.000000 -0.054935  0.056702 -0.000000
  1H   1dxy       0.000000  0.000000 -0.000000 -0.056702 -0.054935  0.000000
                     36        37        38        39        40        41   
                   2.85853   2.85853   3.26512   3.42162   3.42162   4.05940
                   0.00000   0.00000   0.00000   0.00000   0.00000   0.00000
                  --------  --------  --------  --------  --------  --------
  0Cl  1s        -0.000000 -0.000000  0.008048 -0.000000  0.000000 -0.000000
  0Cl  2s        -0.000000 -0.000000  0.023332 -0.000000  0.000000 -0.000000
  0Cl  3s         0.000000  0.000000 -0.046148  0.000000  0.000000  0.000000
  0Cl  4s         0.000000  0.000000 -0.156017  0.000000 -0.000000  0.000000
  0Cl  5s        -0.000000 -0.000000  0.028801  0.000000  0.000000  0.000000
  0Cl  6s        -0.000000 -0.000000  3.775461 -0.000000  0.000000 -0.000000
  0Cl  1pz        0.000000  0.000000 -0.411434  0.000000 -0.000000  0.000000
  0Cl  1px       -0.066535 -0.002435 -0.000000  0.000000  0.000000  0.007590
  0Cl  1py       -0.002435  0.066535 -0.000000 -0.000000 -0.000000  0.013377
  0Cl  2pz        0.000000  0.000000 -0.129650  0.000000 -0.000000  0.000000
  0Cl  2px       -0.021637 -0.000792  0.000000  0.000000  0.000000  0.002321
  0Cl  2py       -0.000792  0.021637  0.000000 -0.000000 -0.000000  0.004091
  0Cl  3pz       -0.000000 -0.000000  1.500178 -0.000000  0.000000 -0.000000
  0Cl  3px        0.189071  0.006918  0.000000 -0.000000 -0.000000 -0.006869
  0Cl  3py        0.006918 -0.189071  0.000000  0.000000  0.000000 -0.012106
  0Cl  4pz        0.000000  0.000000 -4.173085  0.000000 -0.000000  0.000000
  0Cl  4px       -0.259005 -0.009477 -0.000000  0.000000  0.000000 -0.066159
  0Cl  4py       -0.009477  0.259005 -0.000000 -0.000000 -0.000000 -0.116598
  0Cl  5pz        0.000000  0.000000 -0.638596  0.000000 -0.000000  0.000000
  0Cl  5px       -0.089155 -0.003262  0.000000  0.000000 -0.000000 -0.076633
  0Cl  5py       -0.003262  0.089155  0.000000  0.000000  0.000000 -0.135058
  0Cl  1dz2       0.000000  0.000000 -0.370904  0.000000 -0.000000  0.000000
  0Cl  1dxz      -1.049687 -0.038409  0.000000  0.000000 -0.000000 -0.000180
  0Cl  1dyz      -0.038409  1.049687  0.000000  0.000000 -0.000000 -0.000316
  0Cl  1dx2y2    -0.000000 -0.000000  0.000000 -0.021631 -0.136425  0.000000
  0Cl  1dxy      -0.000000  0.000000 -0.000000 -0.136425  0.021631 -0.000000
  0Cl  2dz2      -0.000000 -0.000000  2.147108 -0.000000  0.000000 -0.000000
  0Cl  2dxz       0.896222  0.032793 -0.000000 -0.000000  0.000000  0.124654
  0Cl  2dyz       0.032793 -0.896222 -0.000000 -0.000000  0.000000  0.219691
  0Cl  2dx2y2     0.000000  0.000000 -0.000000  0.035091  0.221315 -0.000000
  0Cl  2dxy       0.000000 -0.000000  0.000000  0.221315 -0.035091  0.000000
  0Cl  1f0       -0.000000  0.000000 -1.006305  0.000000 -0.000000  0.000000
  0Cl  1f+1      -0.435527 -0.015936  0.000000  0.000000 -0.000000  0.002359
  0Cl  1f-1      -0.015936  0.435527  0.000000 -0.000000  0.000000  0.004157
  0Cl  1f+2       0.000000 -0.000000  0.000000 -0.068037 -0.429101 -0.000000
  0Cl  1f-2      -0.000000  0.000000 -0.000000 -0.429101  0.068037 -0.000000
  0Cl  1f+3       0.000000 -0.000000  0.000000  0.000000 -0.000000  0.000000
  0Cl  1f-3       0.000000  0.000000  0.000000  0.000000  0.000000  0.000000
  1H   1s        -0.000000  0.000000 -0.535016  0.000000 -0.000000 -0.000000
  1H   2s         0.000000  0.000000 -3.712464  0.000000 -0.000000  0.000000
  1H   3s        -0.000000  0.000000 -0.915308  0.000000 -0.000000  0.000000
  1H   1pz        0.000000 -0.000000  0.167310 -0.000000  0.000000 -0.000000
  1H   1px       -0.061927 -0.002266 -0.000000  0.000000 -0.000000 -0.594776
  1H   1py       -0.002266  0.061927 -0.000000  0.000000  0.000000 -1.048237
  1H   2pz        0.000000  0.000000 -2.846195  0.000000 -0.000000  0.000000
  1H   2px        0.531158  0.019435 -0.000000 -0.000000  0.000000  0.431810
  1H   2py        0.019435 -0.531158  0.000000 -0.000000 -0.000000  0.761024
  1H   1dz2      -0.000000  0.000000 -0.705241  0.000000 -0.000000  0.000000
  1H   1dxz       0.021119  0.000773  0.000000 -0.000000  0.000000  0.177119
  1H   1dyz       0.000773 -0.021119  0.000000  0.000000 -0.000000  0.312156
  1H   1dx2y2     0.000000 -0.000000  0.000000 -0.157039 -0.990427 -0.000000
  1H   1dxy      -0.000000  0.000000 -0.000000 -0.990427  0.157039 -0.000000
                     42        43        44        45        46        47   
                   4.05940   4.27159   4.27159   4.68981   4.88048  10.70175
                   0.00000   0.00000   0.00000   0.00000   0.00000   0.00000
                  --------  --------  --------  --------  --------  --------
  0Cl  1s         0.000000 -0.000000  0.000000  0.000913  0.024970 -0.114169
  0Cl  2s         0.000000 -0.000000  0.000000  0.008081  0.084310 -0.478019
  0Cl  3s         0.000000  0.000000 -0.000000 -0.068629 -0.281630  2.682151
  0Cl  4s        -0.000000 -0.000000 -0.000000  0.198101 -0.125361 -3.268827
  0Cl  5s         0.000000 -0.000000  0.000000 -0.676922  0.603746  1.862362
  0Cl  6s         0.000000  0.000000 -0.000000 -0.033646  2.812360  0.705222
  0Cl  1pz       -0.000000 -0.000000  0.000000 -0.209394  0.077746 -0.013401
  0Cl  1px       -0.013377  0.013867 -0.051233  0.000000  0.000000 -0.000000
  0Cl  1py        0.007590  0.051233  0.013867  0.000000  0.000000  0.000000
  0Cl  2pz       -0.000000 -0.000000  0.000000 -0.080771 -0.000189  0.001483
  0Cl  2px       -0.004091  0.006089 -0.022497  0.000000  0.000000 -0.000000
  0Cl  2py        0.002321  0.022497  0.006089 -0.000000  0.000000  0.000000
  0Cl  3pz        0.000000  0.000000 -0.000000  0.721051  0.213450  0.290443
  0Cl  3px        0.012106 -0.073903  0.273040  0.000000 -0.000000  0.000000
  0Cl  3py       -0.006869 -0.273040 -0.073903 -0.000000 -0.000000 -0.000000
  0Cl  4pz       -0.000000 -0.000000  0.000000 -0.321929 -3.044867 -1.698134
  0Cl  4px        0.116598  0.186292 -0.688267 -0.000000  0.000000  0.000000
  0Cl  4py       -0.066159  0.688267  0.186292  0.000000  0.000000  0.000000
  0Cl  5pz       -0.000000 -0.000000  0.000000  0.049494 -0.552800 -0.131638
  0Cl  5px        0.135058  0.001106 -0.004085 -0.000000  0.000000  0.000000
  0Cl  5py       -0.076633  0.004085  0.001106 -0.000000  0.000000  0.000000
  0Cl  1dz2      -0.000000 -0.000000  0.000000 -0.346145  0.473251  0.080991
  0Cl  1dxz       0.000316 -0.006447  0.023818  0.000000  0.000000 -0.000000
  0Cl  1dyz      -0.000180 -0.023818 -0.006447 -0.000000 -0.000000  0.000000
  0Cl  1dx2y2    -0.000000  0.000000  0.000000  0.000000  0.000000  0.000000
  0Cl  1dxy      -0.000000 -0.000000  0.000000  0.000000  0.000000 -0.000000
  0Cl  2dz2       0.000000  0.000000 -0.000000  0.492035  1.523777  0.815954
  0Cl  2dxz      -0.219691 -0.195686  0.722977  0.000000 -0.000000 -0.000000
  0Cl  2dyz       0.124654 -0.722977 -0.195686  0.000000 -0.000000 -0.000000
  0Cl  2dx2y2     0.000000 -0.000000  0.000000 -0.000000 -0.000000 -0.000000
  0Cl  2dxy       0.000000  0.000000  0.000000 -0.000000 -0.000000  0.000000
  0Cl  1f0       -0.000000  0.000000 -0.000000 -0.562769 -0.739909 -0.321546
  0Cl  1f+1      -0.004157  0.224985 -0.831222 -0.000000  0.000000  0.000000
  0Cl  1f-1       0.002359  0.831222  0.224985  0.000000  0.000000 -0.000000
  0Cl  1f+2      -0.000000  0.000000 -0.000000 -0.000000  0.000000  0.000000
  0Cl  1f-2      -0.000000 -0.000000 -0.000000  0.000000  0.000000 -0.000000
  0Cl  1f+3      -0.000000 -0.000000  0.000000  0.000000  0.000000 -0.000000
  0Cl  1f-3      -0.000000  0.000000  0.000000 -0.000000  0.000000  0.000000
  1H   1s         0.000000  0.000000 -0.000000 -0.670349  0.247043  0.109487
  1H   2s        -0.000000 -0.000000  0.000000  0.296991 -3.902460 -2.007255
  1H   3s        -0.000000 -0.000000  0.000000  0.234978 -0.374975  0.029054
  1H   1pz        0.000000  0.000000 -0.000000 -1.106855 -0.912295 -0.256783
  1H   1px        1.048237 -0.072778  0.268882  0.000000  0.000000  0.000000
  1H   1py       -0.594776 -0.268882 -0.072778 -0.000000  0.000000  0.000000
  1H   2pz       -0.000000 -0.000000  0.000000  1.038232 -2.173668 -1.229589
  1H   2px       -0.761024 -0.170463  0.629786  0.000000 -0.000000 -0.000000
  1H   2py        0.431810 -0.629786 -0.170463  0.000000 -0.000000 -0.000000
  1H   1dz2      -0.000000  0.000000 -0.000000  0.722264 -1.302987 -0.461386
  1H   1dxz      -0.312156 -0.335867  1.240882  0.000000 -0.000000 -0.000000
  1H   1dyz       0.177119 -1.240882 -0.335867 -0.000000 -0.000000 -0.000000
  1H   1dx2y2    -0.000000  0.000000 -0.000000 -0.000000 -0.000000  0.000000
  1H   1dxy      -0.000000 -0.000000 -0.000000  0.000000  0.000000 -0.000000
                     48        49        50        51   
                  26.24091  26.24091  27.69692 219.46546
                   0.00000   0.00000   0.00000   0.00000
                  --------  --------  --------  --------
  0Cl  1s        -0.000000  0.000000  0.001592  1.543036
  0Cl  2s        -0.000000  0.000000  0.004599 -1.919250
  0Cl  3s         0.000000 -0.000000 -0.032759  1.461270
  0Cl  4s        -0.000000  0.000000  0.044298 -1.010163
  0Cl  5s         0.000000 -0.000000  0.116927  0.417665
  0Cl  6s         0.000000  0.000000 -0.983902  0.085161
  0Cl  1pz        0.000000  0.000000  3.540597 -0.013871
  0Cl  1px       -0.691759 -3.288214  0.000000 -0.000000
  0Cl  1py       -3.288214  0.691759  0.000000  0.000000
  0Cl  2pz        0.000000  0.000000  3.537821 -0.010946
  0Cl  2px       -0.700787 -3.331127  0.000000 -0.000000
  0Cl  2py       -3.331127  0.700787  0.000000  0.000000
  0Cl  3pz       -0.000000 -0.000000 -2.719102  0.059860
  0Cl  3px        0.478458  2.274310 -0.000000  0.000000
  0Cl  3py        2.274310 -0.478458 -0.000000 -0.000000
  0Cl  4pz       -0.000000  0.000000  2.042034 -0.303352
  0Cl  4px       -0.226136 -1.074918  0.000000 -0.000000
  0Cl  4py       -1.074918  0.226136  0.000000  0.000000
  0Cl  5pz       -0.000000 -0.000000 -0.068237 -0.014824
  0Cl  5px        0.056041  0.266386 -0.000000  0.000000
  0Cl  5py        0.266386 -0.056041 -0.000000  0.000000
  0Cl  1dz2       0.000000  0.000000  0.095657  0.010096
  0Cl  1dxz      -0.001724 -0.008195 -0.000000  0.000000
  0Cl  1dyz      -0.008195  0.001724  0.000000 -0.000000
  0Cl  1dx2y2     0.000000 -0.000000 -0.000000  0.000000
  0Cl  1dxy      -0.000000 -0.000000 -0.000000  0.000000
  0Cl  2dz2       0.000000  0.000000 -0.539353  0.142485
  0Cl  2dxz       0.008615  0.040949 -0.000000 -0.000000
  0Cl  2dyz       0.040949 -0.008615 -0.000000 -0.000000
  0Cl  2dx2y2     0.000000  0.000000 -0.000000 -0.000000
  0Cl  2dxy      -0.000000  0.000000  0.000000 -0.000000
  0Cl  1f0       -0.000000 -0.000000  0.146962 -0.052608
  0Cl  1f+1      -0.005516 -0.026220  0.000000 -0.000000
  0Cl  1f-1      -0.026220  0.005516  0.000000  0.000000
  0Cl  1f+2       0.000000  0.000000  0.000000 -0.000000
  0Cl  1f-2       0.000000  0.000000  0.000000 -0.000000
  0Cl  1f+3       0.000000 -0.000000 -0.000000 -0.000000
  0Cl  1f-3      -0.000000  0.000000  0.000000  0.000000
  1H   1s         0.000000  0.000000  0.042482  0.021033
  1H   2s        -0.000000 -0.000000  1.104942 -0.353573
  1H   3s        -0.000000 -0.000000  0.102486  0.017055
  1H   1pz       -0.000000 -0.000000  0.003092 -0.034991
  1H   1px        0.001784  0.008478 -0.000000  0.000000
  1H   1py        0.008478 -0.001784 -0.000000  0.000000
  1H   2pz       -0.000000 -0.000000  0.656398 -0.223592
  1H   2px        0.012140  0.057707 -0.000000 -0.000000
  1H   2py        0.057707 -0.012140 -0.000000 -0.000000
  1H   1dz2      -0.000000 -0.000000 -0.077807 -0.076033
  1H   1dxz       0.004370  0.020771 -0.000000  0.000000
  1H   1dyz       0.020771 -0.004370 -0.000000 -0.000000
  1H   1dx2y2     0.000000  0.000000  0.000000 -0.000000
  1H   1dxy       0.000000 -0.000000  0.000000 -0.000000

                      0         1         2         3         4         5   
                 -104.85006 -10.57639  -8.04439  -8.04208  -8.04208  -1.11992
                   1.00000   1.00000   1.00000   1.00000   1.00000   1.00000
                  --------  --------  --------  --------  --------  --------
  0Cl  1s         0.411733 -0.121938 -0.000537  0.000000 -0.000000  0.034729
  0Cl  2s         0.654661 -0.331514 -0.001500  0.000000 -0.000000  0.100546
  0Cl  3s         0.012091  0.512077  0.002889 -0.000000  0.000000 -0.199122
  0Cl  4s        -0.000924  0.605063  0.002174 -0.000000  0.000000 -0.395149
  0Cl  5s         0.000210  0.042699 -0.000946  0.000000 -0.000000  0.597507
  0Cl  6s         0.000068 -0.003846  0.001416 -0.000000 -0.000000  0.483504
  0Cl  1pz       -0.000165 -0.004635  1.230006 -0.000000  0.000000  0.041945
  0Cl  1px       -0.000000  0.000000  0.000000  1.107505 -0.538169 -0.000000
  0Cl  1py        0.000000 -0.000000 -0.000000 -0.538169 -1.107505  0.000000
  0Cl  2pz       -0.000110 -0.001320  0.327006 -0.000000  0.000000  0.010821
  0Cl  2px       -0.000000  0.000000  0.000000  0.294391 -0.143053 -0.000000
  0Cl  2py        0.000000 -0.000000 -0.000000 -0.143053 -0.294391  0.000000
  0Cl  3pz        0.000139  0.000632  0.051909 -0.000000  0.000000 -0.029845
  0Cl  3px        0.000000 -0.000000  0.000000  0.044296 -0.021525  0.000000
  0Cl  3py       -0.000000  0.000000 -0.000000 -0.021525 -0.044296 -0.000000
  0Cl  4pz       -0.000242 -0.007013 -0.004034  0.000000 -0.000000 -0.022670
  0Cl  4px       -0.000000  0.000000 -0.000000 -0.001968  0.000956  0.000000
  0Cl  4py        0.000000  0.000000  0.000000  0.000956  0.001968  0.000000
  0Cl  5pz       -0.000003  0.000653  0.000557  0.000000  0.000000 -0.009961
  0Cl  5px       -0.000000 -0.000000  0.000000  0.000592 -0.000288  0.000000
  0Cl  5py        0.000000 -0.000000 -0.000000 -0.000288 -0.000592  0.000000
  0Cl  1dz2       0.000005  0.000736 -0.000690  0.000000 -0.000000  0.011718
  0Cl  1dxz       0.000000  0.000000 -0.000000 -0.000530  0.000257 -0.000000
  0Cl  1dyz      -0.000000 -0.000000 -0.000000  0.000257  0.000530  0.000000
  0Cl  1dx2y2    -0.000000 -0.000000  0.000000  0.000000 -0.000000 -0.000000
  0Cl  1dxy      -0.000000 -0.000000  0.000000 -0.000000  0.000000  0.000000
  0Cl  2dz2       0.000098  0.003024  0.000660 -0.000000  0.000000  0.003615
  0Cl  2dxz       0.000000 -0.000000  0.000000  0.000197 -0.000096 -0.000000
  0Cl  2dyz      -0.000000 -0.000000  0.000000 -0.000096 -0.000197 -0.000000
  0Cl  2dx2y2    -0.000000  0.000000  0.000000  0.000000  0.000000  0.000000
  0Cl  2dxy      -0.000000  0.000000 -0.000000 -0.000000  0.000000 -0.000000
  0Cl  1f0       -0.000032 -0.001376  0.000164  0.000000  0.000000 -0.002611
  0Cl  1f+1      -0.000000  0.000000 -0.000000  0.000124 -0.000060  0.000000
  0Cl  1f-1       0.000000 -0.000000  0.000000 -0.000060 -0.000124  0.000000
  0Cl  1f+2      -0.000000  0.000000  0.000000  0.000000  0.000000  0.000000
  0Cl  1f-2       0.000000 -0.000000  0.000000  0.000000  0.000000  0.000000
  0Cl  1f+3      -0.000000  0.000000 -0.000000  0.000000  0.000000 -0.000000
  0Cl  1f-3      -0.000000  0.000000  0.000000  0.000000 -0.000000  0.000000
  1H   1s         0.000004  0.000456 -0.000313  0.000000  0.000000  0.085427
  1H   2s        -0.000227 -0.007884 -0.001688  0.000000 -0.000000  0.131053
  1H   3s         0.000007  0.002116 -0.000073  0.000000 -0.000000  0.003870
  1H   1pz       -0.000021 -0.000969  0.000086  0.000000  0.000000  0.013763
  1H   1px       -0.000000  0.000000  0.000000  0.000018 -0.000009 -0.000000
  1H   1py       -0.000000  0.000000  0.000000 -0.000009 -0.000018  0.000000
  1H   2pz       -0.000139 -0.004917 -0.001039  0.000000 -0.000000  0.038504
  1H   2px        0.000000 -0.000000 -0.000000  0.000072 -0.000035 -0.000000
  1H   2py       -0.000000 -0.000000  0.000000 -0.000035 -0.000072 -0.000000
  1H   1dz2      -0.000031 -0.001414  0.000109  0.000000  0.000000  0.008588
  1H   1dxz      -0.000000 -0.000000  0.000000 -0.000040  0.000020 -0.000000
  1H   1dyz       0.000000  0.000000  0.000000  0.000020  0.000040 -0.000000
  1H   1dx2y2    -0.000000  0.000000 -0.000000  0.000000  0.000000 -0.000000
  1H   1dxy      -0.000000 -0.000000  0.000000  0.000000 -0.000000  0.000000
                      6         7         8         9        10        11   
                  -0.62861  -0.47877  -0.47877   0.12439   0.31009   0.41633
                   1.00000   1.00000   1.00000   0.00000   0.00000   0.00000
                  --------  --------  --------  --------  --------  --------
  0Cl  1s        -0.010361 -0.000000  0.000000 -0.010672  0.002638  0.000000
  0Cl  2s        -0.030184 -0.000000  0.000000 -0.031723  0.007745  0.000000
  0Cl  3s         0.061474  0.000000 -0.000000  0.069815 -0.016360 -0.000000
  0Cl  4s         0.120805  0.000000 -0.000000  0.109249 -0.029751 -0.000000
  0Cl  5s        -0.188841 -0.000000  0.000000 -0.060327 -0.022895  0.000000
  0Cl  6s        -0.292873 -0.000000  0.000000 -1.240909  0.333112  0.000000
  0Cl  1pz        0.278996 -0.000000 -0.000000 -0.125043  0.004915 -0.000000
  0Cl  1px       -0.000000 -0.112565 -0.315423 -0.000000 -0.000000 -0.128370
  0Cl  1py        0.000000 -0.315423  0.112565  0.000000 -0.000000 -0.136847
  0Cl  2pz        0.067869 -0.000000 -0.000000 -0.029517  0.003487 -0.000000
  0Cl  2px       -0.000000 -0.026876 -0.075310 -0.000000 -0.000000 -0.020502
  0Cl  2py        0.000000 -0.075310  0.026876  0.000000 -0.000000 -0.021856
  0Cl  3pz       -0.199609  0.000000  0.000000  0.076913 -0.001597  0.000000
  0Cl  3px        0.000000  0.081166  0.227440  0.000000  0.000000  0.030183
  0Cl  3py       -0.000000  0.227440 -0.081166 -0.000000  0.000000  0.032176
  0Cl  4pz       -0.420356  0.000000  0.000000  0.361461 -0.022689  0.000000
  0Cl  4px        0.000000  0.199577  0.559242 -0.000000 -0.000000  0.661022
  0Cl  4py       -0.000000  0.559242 -0.199577 -0.000000 -0.000000  0.704669
  0Cl  5pz       -0.167534  0.000000  0.000000  0.904037 -0.927079 -0.000000
  0Cl  5px        0.000000  0.111217  0.311646  0.000000  0.000000 -0.869355
  0Cl  5py       -0.000000  0.311646 -0.111217 -0.000000  0.000000 -0.926758
  0Cl  1dz2       0.033212  0.000000 -0.000000  0.026882 -0.094246  0.000000
  0Cl  1dxz      -0.000000 -0.001583 -0.004436 -0.000000 -0.000000 -0.006275
  0Cl  1dyz      -0.000000 -0.004436  0.001583 -0.000000 -0.000000 -0.006689
  0Cl  1dx2y2    -0.000000 -0.000000  0.000000  0.000000  0.000000  0.000000
  0Cl  1dxy      -0.000000 -0.000000  0.000000 -0.000000 -0.000000  0.000000
  0Cl  2dz2       0.042041  0.000000  0.000000 -0.037408 -0.092930  0.000000
  0Cl  2dxz      -0.000000 -0.003628 -0.010166  0.000000  0.000000  0.000674
  0Cl  2dyz      -0.000000 -0.010166  0.003628 -0.000000  0.000000  0.000718
  0Cl  2dx2y2    -0.000000 -0.000000 -0.000000 -0.000000  0.000000  0.000000
  0Cl  2dxy      -0.000000 -0.000000  0.000000 -0.000000  0.000000  0.000000
  0Cl  1f0       -0.009172  0.000000 -0.000000  0.017270 -0.026964 -0.000000
  0Cl  1f+1       0.000000  0.001835  0.005142 -0.000000 -0.000000 -0.001089
  0Cl  1f-1      -0.000000  0.005142 -0.001835 -0.000000 -0.000000 -0.001161
  0Cl  1f+2       0.000000 -0.000000  0.000000  0.000000 -0.000000 -0.000000
  0Cl  1f-2       0.000000  0.000000  0.000000  0.000000 -0.000000 -0.000000
  0Cl  1f+3      -0.000000 -0.000000 -0.000000  0.000000 -0.000000 -0.000000
  0Cl  1f-3       0.000000  0.000000 -0.000000 -0.000000 -0.000000  0.000000
  1H   1s         0.149297  0.000000 -0.000000  0.072669 -0.083074  0.000000
  1H   2s         0.303035  0.000000 -0.000000  0.218859 -1.242726 -0.000000
  1H   3s         0.053603  0.000000 -0.000000  1.804046  0.638134 -0.000000
  1H   1pz        0.013066 -0.000000 -0.000000 -0.011325 -0.024607  0.000000
  1H   1px        0.000000  0.001804  0.005055 -0.000000 -0.000000 -0.004607
  1H   1py        0.000000  0.005055 -0.001804 -0.000000  0.000000 -0.004911
  1H   2pz        0.040894 -0.000000 -0.000000  0.152302 -0.097815 -0.000000
  1H   2px        0.000000  0.009956  0.027898  0.000000  0.000000  0.046697
  1H   2py       -0.000000  0.027898 -0.009956  0.000000 -0.000000  0.049780
  1H   1dz2       0.009177 -0.000000 -0.000000  0.022141 -0.023368 -0.000000
  1H   1dxz       0.000000  0.001170  0.003278  0.000000  0.000000  0.001490
  1H   1dyz       0.000000  0.003278 -0.001170  0.000000  0.000000  0.001588
  1H   1dx2y2     0.000000  0.000000  0.000000  0.000000  0.000000  0.000000
  1H   1dxy       0.000000  0.000000  0.000000  0.000000 -0.000000  0.000000
                     12        13        14        15        16        17   
                   0.41633   0.42992   0.55800   0.55800   0.66382   0.66382
                   0.00000   0.00000   0.00000   0.00000   0.00000   0.00000
                  --------  --------  --------  --------  --------  --------
  0Cl  1s         0.000000  0.003564  0.000000 -0.000000 -0.000000 -0.000000
  0Cl  2s         0.000000  0.009873  0.000000 -0.000000 -0.000000 -0.000000
  0Cl  3s        -0.000000 -0.015940  0.000000  0.000000  0.000000 -0.000000
  0Cl  4s        -0.000000 -0.061758 -0.000000  0.000000  0.000000  0.000000
  0Cl  5s         0.000000  0.051179  0.000000 -0.000000 -0.000000 -0.000000
  0Cl  6s         0.000000  1.027235 -0.000000  0.000000  0.000000  0.000000
  0Cl  1pz       -0.000000 -0.228678  0.000000  0.000000  0.000000 -0.000000
  0Cl  1px        0.136847  0.000000  0.028595 -0.010626  0.000000 -0.000000
  0Cl  1py       -0.128370  0.000000 -0.010626 -0.028595 -0.000000 -0.000000
  0Cl  2pz       -0.000000 -0.046729  0.000000  0.000000  0.000000 -0.000000
  0Cl  2px        0.021856  0.000000  0.004992 -0.001855  0.000000 -0.000000
  0Cl  2py       -0.020502  0.000000 -0.001855 -0.004992  0.000000 -0.000000
  0Cl  3pz        0.000000  0.152023 -0.000000 -0.000000 -0.000000  0.000000
  0Cl  3px       -0.032176 -0.000000 -0.008896  0.003306 -0.000000  0.000000
  0Cl  3py        0.030183 -0.000000  0.003306  0.008896 -0.000000  0.000000
  0Cl  4pz        0.000000  0.501767  0.000000 -0.000000 -0.000000  0.000000
  0Cl  4px       -0.704669 -0.000000 -0.139036  0.051666  0.000000 -0.000000
  0Cl  4py        0.661022 -0.000000  0.051666  0.139036  0.000000  0.000000
  0Cl  5pz       -0.000000 -1.490511  0.000000  0.000000  0.000000 -0.000000
  0Cl  5px        0.926758  0.000000 -0.097275  0.036148 -0.000000  0.000000
  0Cl  5py       -0.869355  0.000000  0.036148  0.097275  0.000000 -0.000000
  0Cl  1dz2       0.000000  0.037573  0.000000  0.000000 -0.000000  0.000000
  0Cl  1dxz       0.006689  0.000000 -0.144887  0.053840 -0.000000  0.000000
  0Cl  1dyz      -0.006275  0.000000  0.053840  0.144887  0.000000  0.000000
  0Cl  1dx2y2     0.000000 -0.000000 -0.000000 -0.000000  0.175634 -0.049582
  0Cl  1dxy       0.000000 -0.000000  0.000000  0.000000 -0.049582 -0.175634
  0Cl  2dz2       0.000000  0.475600 -0.000000 -0.000000 -0.000000  0.000000
  0Cl  2dxz      -0.000718 -0.000000 -0.554057  0.205889 -0.000000  0.000000
  0Cl  2dyz       0.000674  0.000000  0.205889  0.554057  0.000000  0.000000
  0Cl  2dx2y2     0.000000  0.000000 -0.000000 -0.000000  0.867688 -0.244950
  0Cl  2dxy       0.000000  0.000000 -0.000000  0.000000 -0.244950 -0.867688
  0Cl  1f0       -0.000000 -0.057811  0.000000 -0.000000 -0.000000 -0.000000
  0Cl  1f+1       0.001161  0.000000 -0.010274  0.003818  0.000000  0.000000
  0Cl  1f-1      -0.001089  0.000000  0.003818  0.010274 -0.000000  0.000000
  0Cl  1f+2       0.000000 -0.000000  0.000000 -0.000000 -0.007381  0.002084
  0Cl  1f-2      -0.000000  0.000000 -0.000000  0.000000  0.002084  0.007381
  0Cl  1f+3       0.000000 -0.000000  0.000000 -0.000000  0.000000 -0.000000
  0Cl  1f-3       0.000000  0.000000  0.000000  0.000000 -0.000000  0.000000
  1H   1s         0.000000  0.114255 -0.000000 -0.000000  0.000000 -0.000000
  1H   2s         0.000000 -0.105259  0.000000  0.000000  0.000000 -0.000000
  1H   3s        -0.000000 -1.323954  0.000000 -0.000000 -0.000000 -0.000000
  1H   1pz        0.000000  0.013455  0.000000  0.000000  0.000000 -0.000000
  1H   1px        0.004911  0.000000 -0.028449  0.010572  0.000000  0.000000
  1H   1py       -0.004607  0.000000  0.010572  0.028449  0.000000  0.000000
  1H   2pz       -0.000000 -0.593146  0.000000 -0.000000 -0.000000 -0.000000
  1H   2px       -0.049780 -0.000000  0.496627 -0.184548  0.000000 -0.000000
  1H   2py        0.046697 -0.000000 -0.184548 -0.496627 -0.000000 -0.000000
  1H   1dz2      -0.000000 -0.038318  0.000000 -0.000000  0.000000 -0.000000
  1H   1dxz      -0.001588 -0.000000  0.003225 -0.001199 -0.000000  0.000000
  1H   1dyz       0.001490 -0.000000 -0.001199 -0.003225 -0.000000 -0.000000
  1H   1dx2y2    -0.000000 -0.000000 -0.000000  0.000000  0.010701 -0.003021
  1H   1dxy      -0.000000 -0.000000  0.000000  0.000000 -0.003021 -0.010701
                     18        19        20        21        22        23   
                   0.83338   1.00403   1.05667   1.05667   1.44758   2.15734
                   0.00000   0.00000   0.00000   0.00000   0.00000   0.00000
                  --------  --------  --------  --------  --------  --------
  0Cl  1s        -0.020568  0.025148  0.000000 -0.000000 -0.009654 -0.002127
  0Cl  2s        -0.057452  0.069059  0.000000 -0.000000 -0.026181 -0.005216
  0Cl  3s         0.095554 -0.103761 -0.000000  0.000000  0.036575  0.001854
  0Cl  4s         0.363738 -0.497307 -0.000000  0.000000  0.202741  0.068997
  0Cl  5s        -1.416871  1.989193  0.000000 -0.000000 -0.083660 -0.056785
  0Cl  6s         2.874177 -3.121658 -0.000000  0.000000 -4.071445 -1.307500
  0Cl  1pz       -0.063097  0.005031  0.000000  0.000000 -0.218737 -0.190162
  0Cl  1px        0.000000 -0.000000  0.022953 -0.028790 -0.000000 -0.000000
  0Cl  1py        0.000000 -0.000000  0.028790  0.022953 -0.000000 -0.000000
  0Cl  2pz       -0.024732  0.006511  0.000000  0.000000 -0.043639 -0.062575
  0Cl  2px        0.000000 -0.000000  0.004421 -0.005545 -0.000000 -0.000000
  0Cl  2py        0.000000 -0.000000  0.005545  0.004421 -0.000000 -0.000000
  0Cl  3pz        0.213125 -0.114876 -0.000000 -0.000000 -0.007610  0.334164
  0Cl  3px       -0.000000  0.000000 -0.009172  0.011504  0.000000  0.000000
  0Cl  3py       -0.000000  0.000000 -0.011504 -0.009172  0.000000  0.000000
  0Cl  4pz       -0.973036  0.686220 -0.000000  0.000000  2.960153  0.638969
  0Cl  4px       -0.000000  0.000000 -0.126488  0.158655 -0.000000 -0.000000
  0Cl  4py        0.000000  0.000000 -0.158655 -0.126488 -0.000000 -0.000000
  0Cl  5pz       -0.491727  1.090562  0.000000 -0.000000  1.066286  0.582541
[...]
                                                  f 0.00(  0.00%)
  40. (0.00265) RY ( 1) H  2            s(  0.00%)p 1.00( 97.80%)d 0.02(  2.20%)
                                         0.0000  0.0000  0.0000  0.9867 -0.0668
                                         0.0000  0.0000  0.0000  0.0000  0.0000
                                         0.1483  0.0000  0.0000  0.0000
  41. (0.00265) RY ( 2) H  2            s(  0.00%)p 1.00( 97.80%)d 0.02(  2.20%)
                                         0.0000  0.0000  0.0000  0.0000  0.0000
                                         0.9867 -0.0668  0.0000  0.0000  0.0000
                                         0.0000  0.1483  0.0000  0.0000
  42. (0.00100) RY ( 3) H  2            s( 71.69%)p 0.33( 23.62%)d 0.07(  4.69%)
                                         0.0317  0.8453 -0.0369  0.0000  0.0000
                                         0.0000  0.0000 -0.4544 -0.1723  0.0000
                                         0.0000  0.0000  0.0000 -0.2166
  43. (0.00045) RY ( 4) H  2            s( 26.74%)p 2.68( 71.70%)d 0.06(  1.56%)
                                        -0.0482  0.4854  0.1718  0.0000  0.0000
                                         0.0000  0.0000  0.8453 -0.0504  0.0000
                                         0.0000  0.0000  0.0000  0.1247
  44. (0.00012) RY ( 5) H  2            s( 96.81%)p 0.02(  2.41%)d 0.01(  0.77%)
                                         0.0093 -0.0557  0.9823  0.0000  0.0000
                                         0.0000  0.0000 -0.1524  0.0302  0.0000
                                         0.0000  0.0000  0.0000 -0.0880
  45. (0.00008) RY ( 6) H  2            s(  0.00%)p 1.00( 35.94%)d 1.78( 64.06%)
  46. (0.00008) RY ( 7) H  2            s(  0.00%)p 1.00( 35.94%)d 1.78( 64.06%)
  47. (0.00006) RY ( 8) H  2            s(  0.00%)p 0.00(  0.00%)d 1.00(100.00%)
  48. (0.00006) RY ( 9) H  2            s(  0.00%)p 0.00(  0.00%)d 1.00(100.00%)
  49. (0.00006) RY (10) H  2            s(  4.44%)p 9.30( 41.29%)d12.22( 54.26%)
  50. (0.00003) RY (11) H  2            s(  0.00%)p 1.00( 66.26%)d 0.51( 33.74%)
  51. (0.00003) RY (12) H  2            s(  0.00%)p 1.00( 66.26%)d 0.51( 33.74%)
  52. (0.00002) RY (13) H  2            s(  0.67%)p90.18( 60.65%)d57.50( 38.67%)


 NHO DIRECTIONALITY AND BOND BENDING (deviation from line of nuclear centers at
                                      the position of maximum hybrid amplitude)

         [Thresholds for printing:  angular deviation  >  1.0 degree]
                                    p- or d-character  > 25.0%
                                    orbital occupancy  >  0.10e

                        Line of Centers        Hybrid 1             Hybrid 2
                        ---------------  -------------------  ------------------
           NBO            Theta   Phi    Theta   Phi    Dev   Theta   Phi    Dev
 ===============================================================================
   7. LP ( 2)Cl  1          --     --     94.2  180.0   --      --     --    --
   8. LP ( 3)Cl  1          --     --     94.2   90.0   --      --     --    --


 NATURAL BOND ORBITALS (Summary):

           NBO                 Occupancy
 ========================================
 Molecular unit  1  (HCl)
 ------ Lewis ---------------------------
    1. CR ( 1)Cl  1             0.99998
    2. CR ( 2)Cl  1             0.99968
    3. CR ( 3)Cl  1             0.99952
    4. CR ( 4)Cl  1             0.99952
    5. CR ( 5)Cl  1             0.99946
    6. LP ( 1)Cl  1             0.98789
    7. LP ( 2)Cl  1             0.97808
    8. LP ( 3)Cl  1             0.97808
    9. BD ( 1)Cl  1- H  2       0.98269
 ------ non-Lewis -----------------------
   10. BD*( 1)Cl  1- H  2       0.01076
   11. RY ( 1)Cl  1             0.00830
   12. RY ( 2)Cl  1             0.00830
   13. RY ( 3)Cl  1             0.00758
   14. RY ( 4)Cl  1             0.00758
   15. RY ( 5)Cl  1             0.00577
   16. RY ( 6)Cl  1             0.00468
   17. RY ( 7)Cl  1             0.00468
   18. RY ( 8)Cl  1             0.00317
   19. RY ( 9)Cl  1             0.00105
   20. RY (10)Cl  1             0.00054
   21. RY (11)Cl  1             0.00054
   22. RY (12)Cl  1             0.00053
   23. RY (13)Cl  1             0.00053
   24. RY (14)Cl  1             0.00046
   25. RY (15)Cl  1             0.00046
   26. RY (16)Cl  1             0.00046
   27. RY (17)Cl  1             0.00037
   28. RY (18)Cl  1             0.00037
   29. RY (19)Cl  1             0.00029
   30. RY (20)Cl  1             0.00029
   31. RY (21)Cl  1             0.00029
   32. RY (22)Cl  1             0.00022
   33. RY (23)Cl  1             0.00022
   34. RY (24)Cl  1             0.00021
   35. RY (25)Cl  1             0.00012
   36. RY (26)Cl  1             0.00002
   37. RY (27)Cl  1             0.00001
   38. RY (28)Cl  1             0.00001
   39. RY (29)Cl  1             0.00001
   40. RY ( 1) H  2             0.00265
   41. RY ( 2) H  2             0.00265
   42. RY ( 3) H  2             0.00100
   43. RY ( 4) H  2             0.00045
   44. RY ( 5) H  2             0.00012
   45. RY ( 6) H  2             0.00008
   46. RY ( 7) H  2             0.00008
   47. RY ( 8) H  2             0.00006
   48. RY ( 9) H  2             0.00006
   49. RY (10) H  2             0.00006
   50. RY (11) H  2             0.00003
   51. RY (12) H  2             0.00003
   52. RY (13) H  2             0.00002
          -------------------------------
                 Total Lewis    8.92490  ( 99.1656%)
           Valence non-Lewis    0.01076  (  0.1196%)
           Rydberg non-Lewis    0.06434  (  0.7148%)
          -------------------------------
               Total unit  1    9.00000  (100.0000%)
              Charge unit  1    0.00000

 $CHOOSE
  ALPHA
   LONE 1 3 END
   BOND S 1 2 END
  END
  BETA
   LONE 1 3 END
   BOND S 1 2 END
  END
 $END

 NBO analysis completed in 0.10 CPU seconds (0 wall seconds)
 Maximum scratch memory used by NBO was 499462 words (3.81 MB)
Stopping NBO...Storing NBOs: HCl.pmp2re.nbo

                                *** returned from   NBO  program ***


----------------------------------
MP2 DERIVATIVE INTEGRAL GENERATION
----------------------------------


Input Wavefunction Amplitudes       ... HCl.mp2tbb.tmp
Input Correlated Electron Density   ... HCl.pmp2re
Input Energy Weighted Density       ... HCl.wmp2.tmp
Input SCF Electron Density          ... HCl.scfp

One-Electron Terms    ...
                        ... One-Electron Terms done
Prescreening matrices              ... done

Batch handling in the gradient evaluation:
Memory available                      ... 3000.0 MB
Memory per occupied orbital in Q2     ...    0.4 MB
Memory per occupied orbital in Q3     ...    0.0 MB
Total memory requirement per |i>      ...    0.4 MB
Max. Number of orbitals possible      ...   7677
Number of orbitals treated per batch  ...     18
Number of batches to be done          ...      1
Batch   0: i=    0 ...    17

---------------------------------------
MP2 TOTAL ENERGY:     -460.359414429 Eh
---------------------------------------

-----------------------------------
NORM OF THE MP2 GRADIENT:  0.000000
-----------------------------------

-------------------------   --------------------
FINAL SINGLE POINT ENERGY      -460.359414429306
-------------------------   --------------------

                                *** OPTIMIZATION RUN DONE ***

                            ***************************************
                            *     ORCA property calculations      *
                            ***************************************

                                    ---------------------
                                    Active property flags
                                    ---------------------
   (+) Dipole Moment


------------------------------------------------------------------------------
                       ORCA ELECTRIC PROPERTIES CALCULATION
------------------------------------------------------------------------------

Dipole Moment Calculation                       ... on
Quadrupole Moment Calculation                   ... off
Polarizability Calculation                      ... off
GBWName                                         ... HCl.gbw
Electron density file                           ... HCl.scfp
The origin for moment calculation is the CENTER OF MASS  = ( 0.000000,  0.000000 -0.002990)

-------------
DIPOLE MOMENT
-------------
                                X             Y             Z
Electronic contribution:     -0.00000       0.00000       0.71332
Nuclear contribution   :      0.00000       0.00000      -1.20491
                        -----------------------------------------
Total Dipole Moment    :     -0.00000       0.00000      -0.49159
                        -----------------------------------------
Magnitude (a.u.)       :      0.49159
Magnitude (Debye)      :      1.24953



--------------------
Rotational spectrum 
--------------------
 
Rotational constants in cm-1:     0.000000    10.676984    10.676984 
Rotational constants in MHz :     0.000000 320087.934323 320087.934323 

 Dipole components along the rotational axes: 
x,y,z [a.u.] :    -0.491592     0.000000    -0.000000 
x,y,z [Debye]:    -1.249529     0.000000    -0.000000 

 

                         *** MP2 UNRELAXED DENSITY ***

------------------------------------------------------------------------------
                       ORCA ELECTRIC PROPERTIES CALCULATION
------------------------------------------------------------------------------

Dipole Moment Calculation                       ... on
Quadrupole Moment Calculation                   ... off
Polarizability Calculation                      ... off
GBWName                                         ... HCl.gbw
Electron density file                           ... HCl.pmp2ur
The origin for moment calculation is the CENTER OF MASS  = ( 0.000000,  0.000000 -0.002990)

-------------
DIPOLE MOMENT
-------------
                                X             Y             Z
Electronic contribution:     -0.00000       0.00000       0.71794
Nuclear contribution   :      0.00000       0.00000      -1.20491
                        -----------------------------------------
Total Dipole Moment    :     -0.00000       0.00000      -0.48697
                        -----------------------------------------
Magnitude (a.u.)       :      0.48697
Magnitude (Debye)      :      1.23779



--------------------
Rotational spectrum 
--------------------
 
Rotational constants in cm-1:     0.000000    10.676984    10.676984 
Rotational constants in MHz :     0.000000 320087.934323 320087.934323 

 Dipole components along the rotational axes: 
x,y,z [a.u.] :    -0.486972     0.000000    -0.000000 
x,y,z [Debye]:    -1.237786     0.000000    -0.000000 

 

                           *** MP2 RELAXED DENSITY ***

------------------------------------------------------------------------------
                       ORCA ELECTRIC PROPERTIES CALCULATION
------------------------------------------------------------------------------

Dipole Moment Calculation                       ... on
Quadrupole Moment Calculation                   ... off
Polarizability Calculation                      ... off
GBWName                                         ... HCl.gbw
Electron density file                           ... HCl.pmp2re
The origin for moment calculation is the CENTER OF MASS  = ( 0.000000,  0.000000 -0.002990)

-------------
DIPOLE MOMENT
-------------
                                X             Y             Z
Electronic contribution:     -0.00000       0.00000       0.73733
Nuclear contribution   :      0.00000       0.00000      -1.20491
                        -----------------------------------------
Total Dipole Moment    :     -0.00000       0.00000      -0.46758
                        -----------------------------------------
Magnitude (a.u.)       :      0.46758
Magnitude (Debye)      :      1.18850



--------------------
Rotational spectrum 
--------------------
 
Rotational constants in cm-1:     0.000000    10.676984    10.676984 
Rotational constants in MHz :     0.000000 320087.934323 320087.934323 

 Dipole components along the rotational axes: 
x,y,z [a.u.] :    -0.467581     0.000000    -0.000000 
x,y,z [Debye]:    -1.188496     0.000000    -0.000000 

 
------------------------------------------------------------------------------
                         ORCA MP2 H E S S I A N CALCULATION
------------------------------------------------------------------------------

Calculating analytic MP2 second derivatives ... (>HCl.last_mp2) done
Warning: T+R mode no 5 is zero 

-----------------------
VIBRATIONAL FREQUENCIES
-----------------------

Scaling factor for frequencies =  1.000000000  (already applied!)

   0:         0.00 cm**-1
   1:         0.00 cm**-1
   2:         0.00 cm**-1
   3:         0.00 cm**-1
   4:         0.00 cm**-1
   5:      3049.76 cm**-1


------------
NORMAL MODES
------------

These modes are the Cartesian displacements weighted by the diagonal matrix
M(i,i)=1/sqrt(m[i]) where m[i] is the mass of the displaced atom
Thus, these vectors are normalized but *not* orthogonal

                  0          1          2          3          4          5    
      0       0.000000   0.000000   0.000000   0.000000   0.000000   0.000000
      1       0.000000   0.000000   0.000000   0.000000   0.000000   0.000000
      2       0.000000   0.000000   0.000000   0.000000   0.000000   0.028421
      3       0.000000   0.000000   0.000000   0.000000   0.000000   0.000000
      4       0.000000   0.000000   0.000000   0.000000   0.000000   0.000000
      5       0.000000   0.000000   0.000000   0.000000   0.000000  -0.999596


-----------
IR SPECTRUM
-----------

 Mode    freq (cm**-1)   T**2         TX         TY         TZ
-------------------------------------------------------------------
   5:      3049.76   57.076443  ( -0.000000   0.000000  -7.554895)

The first frequency considered to be a vibration is 5
The total number of vibrations considered is 1


--------------------------
THERMOCHEMISTRY AT 298.15K
--------------------------

Temperature         ... 298.15 K
Pressure            ... 1.00 atm
Total Mass          ... 36.46 AMU
The molecule is recognized as being linear

Throughout the following assumptions are being made:
  (1) The electronic state is orbitally nondegenerate
  (2) There are no thermally accessible electronically excited states
  (3) Hindered rotations indicated by low frequency modes are not
      treated as such but are treated as vibrations and this may
      cause some error
  (4) All equations used are the standard statistical mechanics
      equations for an ideal gas
  (5) All vibrations are strictly harmonic

freq.    3049.76  E(vib)   ...       0.00 

------------
INNER ENERGY
------------

The inner energy is: U= E(el) + E(ZPE) + E(vib) + E(rot) + E(trans)
    E(el)   - is the total energy from the electronic structure calculation
              = E(kin-el) + E(nuc-el) + E(el-el) + E(nuc-nuc)
    E(ZPE)  - the the zero temperature vibrational energy from the frequency calculation
    E(vib)  - the the finite temperature correction to E(ZPE) due to population
              of excited vibrational states
    E(rot)  - is the rotational thermal energy
    E(trans)- is the translational thermal energy

Summary of contributions to the inner energy U:
Electronic energy                ...   -460.35941443 Eh
Zero point energy                ...      0.00694787 Eh       4.36 kcal/mol
Thermal vibrational correction   ...      0.00000001 Eh       0.00 kcal/mol
Thermal rotational correction    ...      0.00094418 Eh       0.59 kcal/mol
Thermal translational correction ...      0.00141627 Eh       0.89 kcal/mol
-----------------------------------------------------------------------
Total thermal energy                   -460.35010610 Eh


Summary of corrections to the electronic energy:
(perhaps to be used in another calculation)
Total thermal correction                  0.00236046 Eh       1.48 kcal/mol
Non-thermal (ZPE) correction              0.00694787 Eh       4.36 kcal/mol
-----------------------------------------------------------------------
Total correction                          0.00930833 Eh       5.84 kcal/mol


--------
ENTHALPY
--------

The enthalpy is H = U + kB*T
                kB is Boltzmann's constant
Total free energy                 ...   -460.35010610 Eh 
Thermal Enthalpy correction       ...      0.00094421 Eh       0.59 kcal/mol
-----------------------------------------------------------------------
Total Enthalpy                    ...   -460.34916189 Eh


Note: Rotational entropy computed according to Herzberg 
Infrared and Raman Spectra, Chapter V,1, Van Nostrand Reinhold, 1945 
Point Group:  Cinfv, Symmetry Number:   1  
Rotational constants in cm-1:     0.000000    10.676984    10.676984 

Vibrational entropy computed according to the QRRHO of S. Grimme
Chem.Eur.J. 2012 18 9955


-------
ENTROPY
-------

The entropy contributions are T*S = T*(S(el)+S(vib)+S(rot)+S(trans))
     S(el)   - electronic entropy
     S(vib)  - vibrational entropy
     S(rot)  - rotational entropy
     S(trans)- translational entropy
The entropies will be listed as mutliplied by the temperature to get
units of energy

Electronic entropy                ...      0.00000000 Eh      0.00 kcal/mol
Vibrational entropy               ...      0.00000001 Eh      0.00 kcal/mol
Rotational entropy                ...      0.00374436 Eh      2.35 kcal/mol
Translational entropy             ...      0.01744233 Eh     10.95 kcal/mol
-----------------------------------------------------------------------
Final entropy term                ...      0.02118669 Eh     13.29 kcal/mol

In case the symmetry of your molecule has not been determined correctly
or in case you have a reason to use a different symmetry number we print 
out the resulting rotational entropy values for sn=1,12 :
 --------------------------------------------------------
|  sn= 1 | S(rot)=             -inf Eh      -inf kcal/mol|
|  sn= 2 | S(rot)=             -inf Eh      -inf kcal/mol|
|  sn= 3 | S(rot)=             -inf Eh      -inf kcal/mol|
|  sn= 4 | S(rot)=             -inf Eh      -inf kcal/mol|
|  sn= 5 | S(rot)=             -inf Eh      -inf kcal/mol|
|  sn= 6 | S(rot)=             -inf Eh      -inf kcal/mol|
|  sn= 7 | S(rot)=             -inf Eh      -inf kcal/mol|
|  sn= 8 | S(rot)=             -inf Eh      -inf kcal/mol|
|  sn= 9 | S(rot)=             -inf Eh      -inf kcal/mol|
|  sn=10 | S(rot)=             -inf Eh      -inf kcal/mol|
|  sn=11 | S(rot)=             -inf Eh      -inf kcal/mol|
|  sn=12 | S(rot)=             -inf Eh      -inf kcal/mol|
 --------------------------------------------------------


-------------------
GIBBS FREE ENERGY
-------------------

The Gibbs free energy is G = H - T*S

Total enthalpy                    ...   -460.34916189 Eh 
Total entropy correction          ...     -0.02118669 Eh    -13.29 kcal/mol
-----------------------------------------------------------------------
Final Gibbs free energy         ...   -460.37034858 Eh

For completeness - the Gibbs free energy minus the electronic energy
G-E(el)                           ...     -0.01093415 Eh     -6.86 kcal/mol


Timings for individual modules:

Sum of individual times         ...       64.954 sec (=   1.083 min)
GTO integral calculation        ...        4.820 sec (=   0.080 min)   7.4 %
SCF iterations                  ...       16.271 sec (=   0.271 min)  25.0 %
MP2 module                      ...       19.373 sec (=   0.323 min)  29.8 %
Geometry relaxation             ...        0.062 sec (=   0.001 min)   0.1 %
Analytical frequency calculation...       24.429 sec (=   0.407 min)  37.6 %
                             ****ORCA TERMINATED NORMALLY****
TOTAL RUN TIME: 0 days 0 hours 1 minutes 5 seconds 865 msec
