
                                 *****************
                                 * O   R   C   A *
                                 *****************

           --- An Ab Initio, DFT and Semiempirical electronic structure package ---

                  #######################################################
                  #                        -***-                        #
                  #          Department of theory and spectroscopy      #
                  #               Directorship: Frank Neese             #
                  #        Max Planck Institute fuer Kohlenforschung    #
                  #                Kaiser Wilhelm Platz 1               #
                  #                 D-45470 Muelheim/Ruhr               #
                  #                      Germany                        #
                  #                                                     #
                  #                  All rights reserved                #
                  #                        -***-                        #
                  #######################################################


                         Program Version 4.2.1 -  RELEASE  -


 With contributions from (in alphabetic order):
   Daniel Aravena         : Magnetic Suceptibility
   Michael Atanasov       : Ab Initio Ligand Field Theory (pilot matlab implementation)
   Alexander A. Auer      : GIAO ZORA, VPT2
   Ute Becker             : Parallelization
   Giovanni Bistoni       : ED, misc. LED, open-shell LED, HFLD
   Martin Brehm           : Molecular dynamics
   Dmytro Bykov           : SCF Hessian
   Vijay G. Chilkuri      : MRCI spin determinant printing, contributions to CSF-ICE
   Dipayan Datta          : RHF DLPNO-CCSD density
   Achintya Kumar Dutta   : EOM-CC, STEOM-CC
   Dmitry Ganyushin       : Spin-Orbit,Spin-Spin,Magnetic field MRCI
   Miquel Garcia          : C-PCM Hessian, Gaussian charge scheme
   Yang Guo               : DLPNO-NEVPT2, CIM, IAO-localization
   Andreas Hansen         : Spin unrestricted coupled pair/coupled cluster methods
   Benjamin Helmich-Paris : CASSCF linear response (MC-RPA)
   Lee Huntington         : MR-EOM, pCC
   Robert Izsak           : Overlap fitted RIJCOSX, COSX-SCS-MP3, EOM
   Christian Kollmar      : KDIIS, OOCD, Brueckner-CCSD(T), CCSD density
   Simone Kossmann        : Meta GGA functionals, TD-DFT gradient, OOMP2, MP2 Hessian
   Martin Krupicka        : AUTO-CI
   Lucas Lang             : DCDCAS
   Dagmar Lenk            : GEPOL surface, SMD
   Dimitrios Liakos       : Extrapolation schemes; Compound Job, initial MDCI parallelization
   Dimitrios Manganas     : Further ROCIS development; embedding schemes
   Dimitrios Pantazis     : SARC Basis sets
   Taras Petrenko         : DFT Hessian,TD-DFT gradient, ASA, ECA, R-Raman, ABS, FL, XAS/XES, NRVS
   Peter Pinski           : DLPNO-MP2, DLPNO-MP2 Gradient
   Christoph Reimann      : Effective Core Potentials
   Marius Retegan         : Local ZFS, SOC
   Christoph Riplinger    : Optimizer, TS searches, QM/MM, DLPNO-CCSD(T), (RO)-DLPNO pert. Triples
   Tobias Risthaus        : Range-separated hybrids, TD-DFT gradient, RPA, STAB
   Michael Roemelt        : Original ROCIS implementation
   Masaaki Saitow         : Open-shell DLPNO-CCSD energy and density
   Barbara Sandhoefer     : DKH picture change effects
   Avijit Sen             : IP-ROCIS
   Kantharuban Sivalingam : CASSCF convergence, NEVPT2, FIC-MRCI
   Bernardo de Souza      : ESD, SOC TD-DFT
   Georgi Stoychev        : AutoAux, RI-MP2 NMR
   Willem Van den Heuvel  : Paramagnetic NMR
   Boris Wezisla          : Elementary symmetry handling
   Frank Wennmohs         : Technical directorship


 We gratefully acknowledge several colleagues who have allowed us to
 interface, adapt or use parts of their codes:
   Stefan Grimme, W. Hujo, H. Kruse,             : VdW corrections, initial TS optimization,
                  C. Bannwarth                     DFT functionals, gCP, sTDA/sTD-DF
   Ed Valeev, F. Pavosevic, A. Kumar             : LibInt (2-el integral package), F12 methods
   Garnet Chan, S. Sharma, J. Yang, R. Olivares  : DMRG
   Ulf Ekstrom                                   : XCFun DFT Library
   Mihaly Kallay                                 : mrcc  (arbitrary order and MRCC methods)
   Andreas Klamt, Michael Diedenhofen            : otool_cosmo (COSMO solvation model)
   Jiri Pittner, Ondrej Demel                    : Mk-CCSD
   Frank Weinhold                                : gennbo (NPA and NBO analysis)
   Christopher J. Cramer and Donald G. Truhlar   : smd solvation model
   Lars Goerigk                                  : TD-DFT with DH, B97 family of functionals
   V. Asgeirsson, H. Jonsson                     : NEB implementation
   FAccTs GmbH                                   : IRC, NEB, NEB-TS, Multilevel, MM, QM/MM, CI optimization
   S Lehtola, MJT Oliveira, MAL Marques          : LibXC Library


 Your calculation uses the libint2 library for the computation of 2-el integrals
 For citations please refer to: http://libint.valeyev.net

 Your ORCA version has been built with support for libXC version: 4.2.3
 For citations please refer to: https://tddft.org/programs/libxc/

 This ORCA versions uses:
   CBLAS   interface :  Fast vector & matrix operations
   LAPACKE interface :  Fast linear algebra routines
   SCALAPACK package :  Parallel linear algebra routines


----- Orbital basis set information -----
Your calculation utilizes the basis: 6-311G(2df,2pd)
   H, Li - Ne  : R. Krishnan, J. S. Binkley, R. Seeger and J. A. Pople, J. Chem. Phys. 72, 650 (1980).
   Na - Ar     : A. D. McLean and G. S. Chandler J. Chem. Phys. 72, 5639, (1980).
   K  - Ca     : J.-P. Blaudeau, M. P. McGrath, L. A. Curtiss and L. Radom, J. Chem. Phys. 107, 5016 (1997).
   Ga - Kr     : L. A. Curtiss, M. P. McGrath, J.-P. Blandeau, N. E. Davis, R. C. Binning and L. Radom, J. Chem. Phys. 103, 6104 (1995).
   Pol./Diff.
   H, Li - Cl  : T. Clark, J. Chandrasekhar and P. v. R. Schleyer, J. Comp. Chem. 4, 294 (1983).
   H - Ne      : M. J. Frisch, J. A. Pople and J. S. Binkley, J. Chem. Phys. 80, 3265 (1984).

================================================================================
                                        WARNINGS
                       Please study these warnings very carefully!
================================================================================


WARNING: Geometry Optimization
  ===> : Switching off AutoStart
         For restart on a previous wavefunction, please use MOREAD

WARNING: Post HF methods need fully converged wavefunctions
  ===> : Setting SCFConvForced true
         You can overwrite this default with %scf ConvForced false 


INFO   : the flag for use of LIBINT has been found!

================================================================================
                                       INPUT FILE
================================================================================
NAME = methane.inp
|  1> ! UHF MP2 6-311G(2df,2pd) Opt Freq NoFrozenCore TightOpt TightSCF Grid4 FinalGrid5 PrintBasis PrintMOs NBO
|  2> %maxcore 3000
|  3> 
|  4> *xyz 0 1
|  5> C        0.000000000      0.000000000      0.000000000
|  6> H       -0.625911000     -0.625911000      0.625911000
|  7> H        0.625911000     -0.625911000     -0.625911000
|  8> H       -0.625911000      0.625911000     -0.625911000
|  9> H        0.625911000      0.625911000      0.625911000
| 10> *
| 11> 
| 12> %pal
| 13>  nprocs 12
| 14> end
| 15> 
| 16>                          ****END OF INPUT****
================================================================================

                       *****************************
                       * Geometry Optimization Run *
                       *****************************

Geometry optimization settings:
Update method            Update   .... BFGS
Choice of coordinates    CoordSys .... Z-matrix Internals
Initial Hessian          InHess   .... Almoef's Model

Convergence Tolerances:
Energy Change            TolE     ....  1.0000e-06 Eh
Max. Gradient            TolMAXG  ....  1.0000e-04 Eh/bohr
RMS Gradient             TolRMSG  ....  3.0000e-05 Eh/bohr
Max. Displacement        TolMAXD  ....  1.0000e-03 bohr
RMS Displacement         TolRMSD  ....  6.0000e-04 bohr
Strict Convergence                ....  False
------------------------------------------------------------------------------
                        ORCA OPTIMIZATION COORDINATE SETUP
------------------------------------------------------------------------------

The optimization will be done in new redundant internal coordinates
Making redundant internal coordinates   ...  (new redundants) done
Evaluating the initial hessian          ...  (Almloef) done
Evaluating the coordinates              ...  done
Calculating the B-matrix                .... done
Calculating the G-matrix                .... done
Diagonalizing the G-matrix              .... done
The first mode is                       ....    1
The number of degrees of freedom        ....    9

    -----------------------------------------------------------------
                    Redundant Internal Coordinates


    -----------------------------------------------------------------
         Definition                    Initial Value    Approx d2E/dq
    -----------------------------------------------------------------
      1. B(H   1,C   0)                  1.0841         0.367977   
      2. B(H   2,C   0)                  1.0841         0.367977   
      3. B(H   3,C   0)                  1.0841         0.367977   
      4. B(H   4,C   0)                  1.0841         0.367977   
      5. A(H   1,C   0,H   3)          109.4712         0.292826   
      6. A(H   2,C   0,H   3)          109.4712         0.292826   
      7. A(H   1,C   0,H   4)          109.4712         0.292826   
      8. A(H   2,C   0,H   4)          109.4712         0.292826   
      9. A(H   3,C   0,H   4)          109.4712         0.292826   
     10. A(H   1,C   0,H   2)          109.4712         0.292826   
    -----------------------------------------------------------------

Number of atoms                         .... 5
Number of degrees of freedom            .... 10

         *************************************************************
         *                GEOMETRY OPTIMIZATION CYCLE   1            *
         *************************************************************
---------------------------------
CARTESIAN COORDINATES (ANGSTROEM)
---------------------------------
  C      0.000000    0.000000    0.000000
  H     -0.625911   -0.625911    0.625911
  H      0.625911   -0.625911   -0.625911
  H     -0.625911    0.625911   -0.625911
  H      0.625911    0.625911    0.625911

----------------------------
CARTESIAN COORDINATES (A.U.)
----------------------------
  NO LB      ZA    FRAG     MASS         X           Y           Z
   0 C     6.0000    0    12.011    0.000000    0.000000    0.000000
   1 H     1.0000    0     1.008   -1.182800   -1.182800    1.182800
   2 H     1.0000    0     1.008    1.182800   -1.182800   -1.182800
   3 H     1.0000    0     1.008   -1.182800    1.182800   -1.182800
   4 H     1.0000    0     1.008    1.182800    1.182800    1.182800

--------------------------------
INTERNAL COORDINATES (ANGSTROEM)
--------------------------------
 C      0   0   0     0.000000000000     0.00000000     0.00000000
 H      1   0   0     1.084109653016     0.00000000     0.00000000
 H      1   2   0     1.084109653016   109.47122063     0.00000000
 H      1   2   3     1.084109653016   109.47122063   120.00000000
 H      1   2   3     1.084109653016   109.47122063   240.00000000

---------------------------
INTERNAL COORDINATES (A.U.)
---------------------------
 C      0   0   0     0.000000000000     0.00000000     0.00000000
 H      1   0   0     2.048670343341     0.00000000     0.00000000
 H      1   2   0     2.048670343341   109.47122063     0.00000000
 H      1   2   3     2.048670343341   109.47122063   120.00000000
 H      1   2   3     2.048670343341   109.47122063   240.00000000

---------------------
BASIS SET INFORMATION
---------------------
There are 2 groups of distinct atoms

 Group   1 Type C   : 11s5p2d1f contracted to 4s3p2d1f pattern {6311/311/11/1}
 Group   2 Type H   : 5s2p1d contracted to 3s2p1d pattern {311/11/1}

Atom   0C    basis set group =>   1
Atom   1H    basis set group =>   2
Atom   2H    basis set group =>   2
Atom   3H    basis set group =>   2
Atom   4H    basis set group =>   2

-------------------------
BASIS SET IN INPUT FORMAT
-------------------------

 # Basis set for element : H 
 NewGTO H 
 S 3 
   1      33.8650000000      0.0254938145
   2       5.0947900000      0.1903731086
   3       1.1587900000      0.8521614860
 S 1 
   1       0.3258400000      1.0000000000
 S 1 
   1       0.1027410000      1.0000000000
 P 1 
   1       1.5000000000      1.0000000000
 P 1 
   1       0.3750000000      1.0000000000
 D 1 
   1       1.0000000000      1.0000000000
  end;

 # Basis set for element : C 
 NewGTO C 
 S 6 
   1    4563.2400000000      0.0019666502
   2     682.0240000000      0.0152306019
   3     154.9730000000      0.0761269097
   4      44.4553000000      0.2608010331
   5      13.0290000000      0.6164620782
   6       1.8277300000      0.2210060280
 S 3 
   1      20.9642000000      0.1146600807
   2       4.8033100000      0.9199996477
   3       1.4593300000     -0.0030306821
 P 3 
   1      20.9642000000      0.0402486927
   2       4.8033100000      0.2375939567
   3       1.4593300000      0.8158538515
 S 1 
   1       0.4834560000      1.0000000000
 P 1 
   1       0.4834560000      1.0000000000
 S 1 
   1       0.1455850000      1.0000000000
 P 1 
   1       0.1455850000      1.0000000000
 D 1 
   1       1.2520000000      1.0000000000
 D 1 
   1       0.3130000000      1.0000000000
 F 1 
   1       0.8000000000      1.0000000000
  end;



           ************************************************************
           *        Program running with 12 parallel MPI-processes    *
           *              working on a common directory               *
           ************************************************************
------------------------------------------------------------------------------
                           ORCA GTO INTEGRAL CALCULATION
------------------------------------------------------------------------------

                         BASIS SET STATISTICS AND STARTUP INFO

 # of primitive gaussian shells          ...   51
 # of primitive gaussian functions       ...  107
 # of contracted shells                  ...   34
 # of contracted basis functions         ...   86
 Highest angular momentum                ...    3
 Maximum contraction depth               ...    6
 Integral package used                   ... LIBINT
 Integral threshhold            Thresh   ...  2.500e-11
 Primitive cut-off              TCut     ...  2.500e-12


------------------------------ INTEGRAL EVALUATION ----------------------------


 * One electron integrals 
 Pre-screening matrix                    ... done
 Shell pair data                         ... done (   0.000 sec)



           ************************************************************
           *        Program running with 12 parallel MPI-processes    *
           *              working on a common directory               *
           ************************************************************
-------------------------------------------------------------------------------
                                 ORCA SCF
-------------------------------------------------------------------------------

------------
SCF SETTINGS
------------
Hamiltonian:
 Ab initio Hamiltonian  Method          .... Hartree-Fock(GTOs)


General Settings:
 Integral files         IntName         .... methane
 Hartree-Fock type      HFTyp           .... UHF
 Total Charge           Charge          ....    0
 Multiplicity           Mult            ....    1
 Number of Electrons    NEL             ....   10
 Basis Dimension        Dim             ....   86
 Nuclear Repulsion      ENuc            ....     13.5083883574 Eh

Convergence Acceleration:
 DIIS                   CNVDIIS         .... on
   Start iteration      DIISMaxIt       ....    12
   Startup error        DIISStart       ....  0.200000
   # of expansion vecs  DIISMaxEq       ....     5
   Bias factor          DIISBfac        ....   1.050
   Max. coefficient     DIISMaxC        ....  10.000
 Newton-Raphson         CNVNR           .... off
 SOSCF                  CNVSOSCF        .... off
 Level Shifting         CNVShift        .... on
   Level shift para.    LevelShift      ....    0.2500
   Turn off err/grad.   ShiftErr        ....    0.0010
 Zerner damping         CNVZerner       .... off
 Static damping         CNVDamp         .... on
   Fraction old density DampFac         ....    0.7000
   Max. Damping (<1)    DampMax         ....    0.9800
   Min. Damping (>=0)   DampMin         ....    0.0000
   Turn off err/grad.   DampErr         ....    0.1000
 Fernandez-Rico         CNVRico         .... off

SCF Procedure:
 Maximum # iterations   MaxIter         ....   125
 SCF integral mode      SCFMode         .... Direct
   Integral package                     .... LIBINT
 Reset frequency        DirectResetFreq ....    20
 Integral Threshold     Thresh          ....  2.500e-11 Eh
 Primitive CutOff       TCut            ....  2.500e-12 Eh

Convergence Tolerance:
 Convergence Check Mode ConvCheckMode   .... Total+1el-Energy
 Convergence forced     ConvForced      .... 1
 Energy Change          TolE            ....  1.000e-08 Eh
 1-El. energy change                    ....  1.000e-05 Eh
 DIIS Error             TolErr          ....  5.000e-07


Diagonalization of the overlap matrix:
Smallest eigenvalue                        ... 3.142e-03
Time for diagonalization                   ...    0.003 sec
Threshold for overlap eigenvalues          ... 1.000e-08
Number of eigenvalues below threshold      ... 0
Time for construction of square roots      ...    0.006 sec
Total time needed                          ...    0.009 sec

-------------------
DFT GRID GENERATION
-------------------

General Integration Accuracy     IntAcc      ...  4.670
Radial Grid Type                 RadialGrid  ... Gauss-Chebyshev
Angular Grid (max. acc.)         AngularGrid ... Lebedev-302
Angular grid pruning method      GridPruning ... 3 (G Style)
Weight generation scheme         WeightScheme... Becke
Basis function cutoff            BFCut       ...    1.0000e-11
Integration weight cutoff        WCut        ...    1.0000e-14
Grids for H and He will be reduced by one unit

# of grid points (after initial pruning)     ...  19788 (   0.0 sec)
# of grid points (after weights+screening)   ...  19276 (   0.0 sec)
nearest neighbour list constructed           ...    0.0 sec
Grid point re-assignment to atoms done       ...    0.0 sec
Grid point division into batches done        ...    0.2 sec
Reduced shell lists constructed in    0.2 sec

Total number of grid points                  ...    19276
Total number of batches                      ...      303
Average number of points per batch           ...       63
Average number of grid points per atom       ...     3855
Average number of shells per batch           ...    32.74 (96.30%)
Average number of basis functions per batch  ...    82.81 (96.30%)
Average number of large shells per batch     ...    32.59 (99.55%)
Average number of large basis fcns per batch ...    82.37 (99.46%)
Maximum spatial batch extension              ...   1.44,  1.38,  1.38 au
Average spatial batch extension              ...   0.09,  0.09,  0.09 au

Time for grid setup =    0.227 sec

------------------------------
INITIAL GUESS: MODEL POTENTIAL
------------------------------
Loading Hartree-Fock densities                     ... done
Calculating cut-offs                               ... done
Setting up the integral package                    ... done
Initializing the effective Hamiltonian             ... done
Starting the Coulomb interaction                   ... done (   0.0 sec)
Reading the grid                                   ... done
Mapping shells                                     ... done
Starting the XC term evaluation                    ... done (   0.0 sec)
Transforming the Hamiltonian                       ... done (   0.0 sec)
Diagonalizing the Hamiltonian                      ... done (   0.0 sec)
Back transforming the eigenvectors                 ... done (   0.0 sec)
Now organizing SCF variables                       ... done
                      ------------------
                      INITIAL GUESS DONE (   0.5 sec)
                      ------------------
--------------
SCF ITERATIONS
--------------
ITER       Energy         Delta-E        Max-DP      RMS-DP      [F,P]     Damp
               ***  Starting incremental Fock matrix formation  ***
  0    -40.0962299823   0.000000000000 0.03443650  0.00062776  0.3121012 0.7000
  1    -40.1385812045  -0.042351222148 0.02322294  0.00046354  0.1995670 0.7000
                               ***Turning on DIIS***
  2    -40.1638035713  -0.025222366817 0.01325261  0.00029134  0.1170222 0.7000
  3    -40.3458840601  -0.182080488836 0.01571675  0.00051158  0.0668988 0.0000
  4    -40.1863167775   0.159567282584 0.00491221  0.00008676  0.0108422 0.0000
  5    -40.2102750485  -0.023958270997 0.00098597  0.00004010  0.0030014 0.0000
  6    -40.2123259968  -0.002050948280 0.00052491  0.00001971  0.0010283 0.0000
  7    -40.2127755488  -0.000449552011 0.00024045  0.00000918  0.0002680 0.0000
  8    -40.2128031503  -0.000027601507 0.00002491  0.00000103  0.0000142 0.0000
                            ***DIIS convergence achieved***

               *****************************************************
               *                     SUCCESS                       *
               *           SCF CONVERGED AFTER   9 CYCLES          *
               *****************************************************


----------------
TOTAL SCF ENERGY
----------------

Total Energy       :          -40.21279183 Eh           -1094.24570 eV

Components:
Nuclear Repulsion  :           13.50838836 Eh             367.58193 eV
Electronic Energy  :          -53.72118019 Eh           -1461.82763 eV
One Electron Energy:          -79.87176643 Eh           -2173.42126 eV
Two Electron Energy:           26.15058624 Eh             711.59363 eV

Virial components:
Potential Energy   :          -80.40546565 Eh           -2187.94395 eV
Kinetic Energy     :           40.19267382 Eh            1093.69826 eV
Virial Ratio       :            2.00050054


---------------
SCF CONVERGENCE
---------------

  Last Energy change         ...    1.1318e-05  Tolerance :   1.0000e-08
  Last MAX-Density change    ...    2.8161e-06  Tolerance :   1.0000e-07
  Last RMS-Density change    ...    1.3360e-07  Tolerance :   5.0000e-09
  Last DIIS Error            ...    9.8551e-07  Tolerance :   5.0000e-07

             **** THE GBW FILE WAS UPDATED (methane.gbw) ****
             **** DENSITY FILE WAS UPDATED (methane.scfp) ****
             **** ENERGY FILE WAS UPDATED (methane.en.tmp) ****
----------------------
UHF SPIN CONTAMINATION
----------------------

Expectation value of <S**2>     :    -0.000000
Ideal value S*(S+1) for S=0.0   :     0.000000
Deviation                       :    -0.000000

             **** THE GBW FILE WAS UPDATED (methane.gbw) ****
             **** DENSITY FILE WAS UPDATED (methane.scfp) ****
----------------
ORBITAL ENERGIES
----------------
                 SPIN UP ORBITALS
  NO   OCC          E(Eh)            E(eV) 
   0   1.0000     -11.202833      -304.8446 
   1   1.0000      -0.944547       -25.7024 
   2   1.0000      -0.545972       -14.8566 
   3   1.0000      -0.545972       -14.8566 
   4   1.0000      -0.545972       -14.8566 
   5   0.0000       0.147829         4.0226 
   6   0.0000       0.228047         6.2055 
   7   0.0000       0.228047         6.2055 
   8   0.0000       0.228047         6.2055 
   9   0.0000       0.416372        11.3301 
  10   0.0000       0.416372        11.3301 
  11   0.0000       0.416372        11.3301 
  12   0.0000       0.660891        17.9838 
  13   0.0000       0.670112        18.2347 
  14   0.0000       0.670112        18.2347 
  15   0.0000       0.670112        18.2347 
  16   0.0000       0.670377        18.2419 
  17   0.0000       0.670377        18.2419 
  18   0.0000       0.804876        21.9018 
  19   0.0000       1.059861        28.8403 
  20   0.0000       1.059861        28.8403 
  21   0.0000       1.059861        28.8403 
  22   0.0000       1.193739        32.4833 
  23   0.0000       1.193739        32.4833 
  24   0.0000       1.193739        32.4833 
  25   0.0000       1.322992        36.0004 
  26   0.0000       1.322992        36.0004 
  27   0.0000       1.322992        36.0004 
  28   0.0000       1.563148        42.5354 
  29   0.0000       1.563148        42.5354 
  30   0.0000       1.590433        43.2779 
  31   0.0000       1.590433        43.2779 
  32   0.0000       1.590433        43.2779 
  33   0.0000       1.718685        46.7678 
  34   0.0000       2.458346        66.8950 
  35   0.0000       2.458346        66.8950 
  36   0.0000       2.458346        66.8950 
  37   0.0000       2.631974        71.6197 
  38   0.0000       3.177511        86.4645 
  39   0.0000       3.177511        86.4645 
  40   0.0000       3.177511        86.4645 
  41   0.0000       3.200677        87.0949 
  42   0.0000       3.200677        87.0949 
  43   0.0000       3.238953        88.1364 
  44   0.0000       3.238953        88.1364 
  45   0.0000       3.238953        88.1364 
  46   0.0000       3.495877        95.1276 
  47   0.0000       3.495877        95.1276 
  48   0.0000       3.495877        95.1276 
  49   0.0000       3.523136        95.8694 
  50   0.0000       3.523136        95.8694 
  51   0.0000       3.523136        95.8694 
  52   0.0000       3.765918       102.4758 
  53   0.0000       3.765918       102.4758 
  54   0.0000       3.813686       103.7757 
  55   0.0000       3.813686       103.7757 
  56   0.0000       3.813686       103.7757 
  57   0.0000       3.854402       104.8836 
  58   0.0000       4.152162       112.9861 
  59   0.0000       4.152162       112.9861 
  60   0.0000       4.174190       113.5855 
  61   0.0000       4.174190       113.5855 
  62   0.0000       4.174190       113.5855 
  63   0.0000       4.317571       117.4871 
  64   0.0000       4.317571       117.4871 
  65   0.0000       4.317571       117.4871 
  66   0.0000       4.458968       121.3347 
  67   0.0000       4.458968       121.3347 
  68   0.0000       4.458968       121.3347 
  69   0.0000       5.131042       139.6228 
  70   0.0000       5.161654       140.4558 
  71   0.0000       5.161654       140.4558 
  72   0.0000       5.161654       140.4558 
  73   0.0000       5.370372       146.1352 
  74   0.0000       5.370372       146.1352 
  75   0.0000       5.370372       146.1352 
  76   0.0000       5.429785       147.7520 
  77   0.0000       5.562563       151.3650 
  78   0.0000       5.562563       151.3650 
  79   0.0000       5.583945       151.9469 
  80   0.0000       5.583945       151.9469 
  81   0.0000       5.583945       151.9469 
  82   0.0000       6.608749       179.8332 
  83   0.0000       6.608749       179.8332 
  84   0.0000       6.608749       179.8332 
  85   0.0000      26.597505       723.7549 

                 SPIN DOWN ORBITALS
  NO   OCC          E(Eh)            E(eV) 
   0   1.0000     -11.202833      -304.8446 
   1   1.0000      -0.944547       -25.7024 
   2   1.0000      -0.545972       -14.8566 
   3   1.0000      -0.545972       -14.8566 
   4   1.0000      -0.545972       -14.8566 
   5   0.0000       0.147829         4.0226 
   6   0.0000       0.228047         6.2055 
   7   0.0000       0.228047         6.2055 
   8   0.0000       0.228047         6.2055 
   9   0.0000       0.416372        11.3301 
  10   0.0000       0.416372        11.3301 
  11   0.0000       0.416372        11.3301 
  12   0.0000       0.660891        17.9838 
  13   0.0000       0.670112        18.2347 
  14   0.0000       0.670112        18.2347 
  15   0.0000       0.670112        18.2347 
  16   0.0000       0.670377        18.2419 
  17   0.0000       0.670377        18.2419 
  18   0.0000       0.804876        21.9018 
  19   0.0000       1.059861        28.8403 
  20   0.0000       1.059861        28.8403 
  21   0.0000       1.059861        28.8403 
  22   0.0000       1.193739        32.4833 
  23   0.0000       1.193739        32.4833 
  24   0.0000       1.193739        32.4833 
  25   0.0000       1.322992        36.0004 
  26   0.0000       1.322992        36.0004 
  27   0.0000       1.322992        36.0004 
  28   0.0000       1.563148        42.5354 
  29   0.0000       1.563148        42.5354 
  30   0.0000       1.590433        43.2779 
  31   0.0000       1.590433        43.2779 
  32   0.0000       1.590433        43.2779 
  33   0.0000       1.718685        46.7678 
  34   0.0000       2.458346        66.8950 
  35   0.0000       2.458346        66.8950 
  36   0.0000       2.458346        66.8950 
  37   0.0000       2.631974        71.6197 
  38   0.0000       3.177511        86.4645 
  39   0.0000       3.177511        86.4645 
  40   0.0000       3.177511        86.4645 
  41   0.0000       3.200677        87.0949 
  42   0.0000       3.200677        87.0949 
  43   0.0000       3.238953        88.1364 
  44   0.0000       3.238953        88.1364 
  45   0.0000       3.238953        88.1364 
  46   0.0000       3.495877        95.1276 
  47   0.0000       3.495877        95.1276 
  48   0.0000       3.495877        95.1276 
  49   0.0000       3.523136        95.8694 
  50   0.0000       3.523136        95.8694 
  51   0.0000       3.523136        95.8694 
  52   0.0000       3.765918       102.4758 
  53   0.0000       3.765918       102.4758 
  54   0.0000       3.813686       103.7757 
  55   0.0000       3.813686       103.7757 
  56   0.0000       3.813686       103.7757 
  57   0.0000       3.854402       104.8836 
  58   0.0000       4.152162       112.9861 
  59   0.0000       4.152162       112.9861 
  60   0.0000       4.174190       113.5855 
  61   0.0000       4.174190       113.5855 
  62   0.0000       4.174190       113.5855 
  63   0.0000       4.317571       117.4871 
  64   0.0000       4.317571       117.4871 
  65   0.0000       4.317571       117.4871 
  66   0.0000       4.458968       121.3347 
  67   0.0000       4.458968       121.3347 
  68   0.0000       4.458968       121.3347 
  69   0.0000       5.131042       139.6228 
  70   0.0000       5.161654       140.4558 
  71   0.0000       5.161654       140.4558 
  72   0.0000       5.161654       140.4558 
  73   0.0000       5.370372       146.1352 
  74   0.0000       5.370372       146.1352 
  75   0.0000       5.370372       146.1352 
  76   0.0000       5.429785       147.7520 
  77   0.0000       5.562563       151.3650 
  78   0.0000       5.562563       151.3650 
  79   0.0000       5.583945       151.9469 
  80   0.0000       5.583945       151.9469 
  81   0.0000       5.583945       151.9469 
  82   0.0000       6.608749       179.8332 
  83   0.0000       6.608749       179.8332 
  84   0.0000       6.608749       179.8332 
  85   0.0000      26.597505       723.7549 
------------------
MOLECULAR ORBITALS
------------------
                      0         1         2         3         4         5   
                 -11.20283  -0.94455  -0.54597  -0.54597  -0.54597   0.14783
                   1.00000   1.00000   1.00000   1.00000   1.00000   0.00000
                  --------  --------  --------  --------  --------  --------
  0C   1s        -0.563324  0.102931  0.000000 -0.000000  0.000000  0.045414
  0C   2s        -0.466289  0.169683 -0.000000 -0.000000 -0.000000  0.088994
  0C   1pz       -0.000000 -0.000000 -0.096805 -0.013954 -0.166546 -0.000000
  0C   1px       -0.000000 -0.000000  0.146085  0.086431 -0.092154 -0.000000
  0C   1py       -0.000000 -0.000000  0.081187 -0.172158 -0.032766 -0.000000
  0C   3s        -0.006242 -0.410556  0.000000 -0.000000  0.000000 -0.246343
  0C   2pz        0.000000 -0.000000 -0.133349 -0.019221 -0.229416 -0.000000
  0C   2px        0.000000  0.000000  0.201232  0.119059 -0.126941  0.000000
  0C   2py        0.000000  0.000000  0.111836 -0.237147 -0.045136 -0.000000
  0C   4s        -0.003713 -0.215357  0.000000  0.000000  0.000000 -3.669738
  0C   3pz        0.000000 -0.000000 -0.081168 -0.011700 -0.139643 -0.000000
  0C   3px        0.000000  0.000000  0.122487  0.072469 -0.077268  0.000000
  0C   3py        0.000000  0.000000  0.068073 -0.144348 -0.027473 -0.000000
  0C   1dz2       0.000000  0.000000  0.000000  0.000000  0.000000  0.000000
  0C   1dxz      -0.000000  0.000000  0.006679 -0.014163 -0.002696 -0.000000
  0C   1dyz       0.000000  0.000000  0.012018  0.007110 -0.007581  0.000000
  0C   1dx2y2     0.000000 -0.000000 -0.000000  0.000000 -0.000000 -0.000000
  0C   1dxy       0.000000 -0.000000 -0.007964 -0.001148 -0.013701 -0.000000
  0C   2dz2       0.000000 -0.000000  0.000000  0.000000 -0.000000 -0.000000
  0C   2dxz       0.000000  0.000000  0.004934 -0.010462 -0.001991 -0.000000
  0C   2dyz       0.000000  0.000000  0.008877  0.005252 -0.005600  0.000000
  0C   2dx2y2     0.000000  0.000000 -0.000000 -0.000000  0.000000  0.000000
  0C   2dxy       0.000000 -0.000000 -0.005883 -0.000848 -0.010121 -0.000000
  0C   1f0       -0.000000 -0.000000 -0.000151 -0.000022 -0.000260  0.000000
  0C   1f+1      -0.000000  0.000000 -0.000140 -0.000083  0.000088  0.000000
  0C   1f-1       0.000000  0.000000 -0.000078  0.000165  0.000031 -0.000000
  0C   1f+2       0.000000 -0.000000  0.000000  0.000000 -0.000000 -0.000000
  0C   1f-2      -0.000699 -0.005998  0.000000  0.000000  0.000000 -0.033252
  0C   1f+3       0.000000  0.000000 -0.000181 -0.000107  0.000114  0.000000
  0C   1f-3      -0.000000 -0.000000  0.000100 -0.000213 -0.000040  0.000000
  1H   1s        -0.000299 -0.081747 -0.169011  0.037431 -0.021708 -0.009969
  1H   2s         0.001323 -0.119584 -0.298118  0.066024 -0.038292  0.316745
  1H   3s         0.000309 -0.016358 -0.136328  0.030192 -0.017510  0.980336
  1H   1pz       -0.000054  0.004337  0.007881 -0.002574 -0.002596  0.005625
  1H   1px        0.000054 -0.004337 -0.006727  0.004271 -0.003461 -0.005625
  1H   1py        0.000054 -0.004337 -0.008247 -0.001783 -0.002070 -0.005625
  1H   2pz       -0.000412  0.011203  0.021677 -0.007145 -0.007423 -0.114699
  1H   2px        0.000412 -0.011203 -0.018413  0.011945 -0.009712  0.114699
  1H   2py        0.000412 -0.011203 -0.022711 -0.005182 -0.005778  0.114699
  1H   1dz2      -0.000000 -0.000000 -0.000079  0.000266  0.001073 -0.000000
  1H   1dxz      -0.000122  0.001195  0.003198 -0.001558  0.000173 -0.007859
  1H   1dyz      -0.000122  0.001195  0.003556 -0.000133 -0.000155 -0.007859
  1H   1dx2y2    -0.000000  0.000000  0.000263  0.001050 -0.000241  0.000000
  1H   1dxy       0.000122 -0.001195 -0.003284  0.000532 -0.001271  0.007859
  2H   1s        -0.000299 -0.081747  0.084330  0.142135  0.055885 -0.009969
  2H   2s         0.001323 -0.119584  0.148750  0.250712  0.098575  0.316745
  2H   3s         0.000309 -0.016358  0.068022  0.114649  0.045078  0.980336
  2H   1pz        0.000054 -0.004337  0.002797  0.008207 -0.000544 -0.005625
  2H   1px       -0.000054  0.004337 -0.001643 -0.006510 -0.005513  0.005625
  2H   1py        0.000054 -0.004337  0.006964  0.004503  0.002588 -0.005625
  2H   2pz        0.000412 -0.011203  0.007603  0.022698 -0.001743  0.114699
  2H   2px       -0.000412  0.011203 -0.004339 -0.017897 -0.015391 -0.114699
  2H   2py        0.000412 -0.011203  0.019393  0.012219  0.007118  0.114699
  2H   1dz2      -0.000000 -0.000000 -0.000302  0.000541 -0.000920 -0.000000
  2H   1dxz      -0.000122  0.001195 -0.000925 -0.003262 -0.001090 -0.007859
  2H   1dyz       0.000122 -0.001195  0.002178  0.002790  0.000402  0.007859
  2H   1dx2y2    -0.000000  0.000000 -0.000923  0.000348  0.000507  0.000000
  2H   1dxy      -0.000122  0.001195 -0.001906 -0.002390 -0.001827 -0.007859
  3H   1s        -0.000299 -0.081747  0.016640 -0.127581  0.117827 -0.009969
  3H   2s         0.001323 -0.119584  0.029352 -0.225040  0.207835  0.316745
  3H   3s         0.000309 -0.016358  0.013422 -0.102909  0.095042  0.980336
  3H   1pz        0.000054 -0.004337 -0.001267 -0.007987  0.003175 -0.005625
  3H   1px        0.000054 -0.004337  0.004419 -0.005636  0.004917 -0.005625
  3H   1py       -0.000054  0.004337  0.000902  0.003629 -0.007841  0.005625
  3H   2pz        0.000412 -0.011203 -0.003646 -0.022127  0.008551  0.114699
  3H   2px        0.000412 -0.011203  0.012441 -0.015479  0.013479  0.114699
  3H   2py       -0.000412  0.011203  0.002612  0.009801 -0.021753 -0.114699
  3H   1dz2       0.000000 -0.000000 -0.000606 -0.000671 -0.000642 -0.000000
  3H   1dxz       0.000122 -0.001195  0.000718 -0.003025  0.001737  0.007859
  3H   1dyz      -0.000122  0.001195  0.000534  0.002553 -0.002426 -0.007859
  3H   1dx2y2     0.000000  0.000000  0.000923 -0.000348 -0.000507  0.000000
  3H   1dxy      -0.000122  0.001195 -0.000804  0.001999 -0.002836 -0.007859
  4H   1s        -0.000299 -0.081747  0.068040 -0.051985 -0.152003 -0.009969
  4H   2s         0.001323 -0.119584  0.120017 -0.091696 -0.268119  0.316745
  4H   3s         0.000309 -0.016358  0.054883 -0.041932 -0.122609  0.980336
  4H   1pz       -0.000054  0.004337 -0.006351  0.002794  0.005227  0.005625
  4H   1px       -0.000054  0.004337 -0.000665  0.005145  0.006969  0.005625
  4H   1py       -0.000054  0.004337 -0.002184 -0.000909  0.008359  0.005625
  4H   2pz       -0.000412  0.011203 -0.017720  0.007715  0.014231 -0.114699
  4H   2px       -0.000412  0.011203 -0.001632  0.014364  0.019159 -0.114699
  4H   2py       -0.000412  0.011203 -0.005931 -0.002763  0.023092 -0.114699
  4H   1dz2       0.000000 -0.000000  0.000986 -0.000136  0.000488  0.000000
  4H   1dxz       0.000122 -0.001195  0.001555 -0.001795 -0.002654  0.007859
  4H   1dyz       0.000122 -0.001195  0.001913 -0.000370 -0.002982  0.007859
  4H   1dx2y2     0.000000  0.000000 -0.000263 -0.001050  0.000241  0.000000
  4H   1dxy       0.000122 -0.001195  0.000574 -0.000923 -0.003392  0.007859
                      6         7         8         9        10        11   
                   0.22805   0.22805   0.22805   0.41637   0.41637   0.41637
                   0.00000   0.00000   0.00000   0.00000   0.00000   0.00000
                  --------  --------  --------  --------  --------  --------
  0C   1s        -0.000000 -0.000000 -0.000000 -0.000000  0.000000 -0.000000
  0C   2s        -0.000000 -0.000000 -0.000000 -0.000000 -0.000000 -0.000000
  0C   1pz       -0.000309 -0.086332 -0.052352  0.005812 -0.037397  0.008542
  0C   1px       -0.018443 -0.051423  0.084909  0.026316 -0.002399 -0.028407
  0C   1py       -0.099266  0.009823 -0.015613  0.027910  0.010050  0.025006
  0C   3s         0.000000  0.000000 -0.000000  0.000000  0.000000  0.000000
  0C   2pz       -0.001211 -0.338609 -0.205336 -0.041546  0.267300 -0.061057
  0C   2px       -0.072338 -0.201693  0.333028 -0.188099  0.017145  0.203047
  0C   2py       -0.389341  0.038527 -0.061236 -0.199489 -0.071834 -0.178738
  0C   4s         0.000000 -0.000000 -0.000000 -0.000000  0.000000 -0.000000
  0C   3pz       -0.005525 -1.544302 -0.936480 -0.328432  2.113099 -0.482681
  0C   3px       -0.329912 -0.919865  1.518848 -1.486988  0.135538  1.605159
  0C   3py       -1.775675  0.175712 -0.279281 -1.577034 -0.567872 -1.412983
  0C   1dz2      -0.000000 -0.000000  0.000000 -0.000000 -0.000000  0.000000
  0C   1dxz      -0.006600  0.000653 -0.001038  0.009331  0.003360  0.008360
  0C   1dyz      -0.001226 -0.003419  0.005645  0.008798 -0.000802 -0.009497
  0C   1dx2y2    -0.000000 -0.000000  0.000000 -0.000000  0.000000 -0.000000
  0C   1dxy      -0.000021 -0.005740 -0.003481  0.001943 -0.012502  0.002856
  0C   2dz2       0.000000  0.000000 -0.000000  0.000000 -0.000000 -0.000000
  0C   2dxz      -0.238053  0.023557 -0.037441 -0.311267 -0.112084 -0.278888
  0C   2dyz      -0.044229 -0.123320  0.203622 -0.293494  0.026752  0.316818
  0C   2dx2y2     0.000000  0.000000 -0.000000 -0.000000 -0.000000  0.000000
  0C   2dxy      -0.000741 -0.207034 -0.125548 -0.064824  0.417073 -0.095269
  0C   1f0        0.000027  0.007571  0.004591  0.006393 -0.041133  0.009396
  0C   1f+1      -0.000990 -0.002762  0.004560 -0.017725  0.001616  0.019134
  0C   1f-1      -0.005331  0.000527 -0.000838 -0.018799 -0.006769 -0.016843
  0C   1f+2      -0.000000  0.000000  0.000000  0.000000 -0.000000 -0.000000
  0C   1f-2      -0.000000 -0.000000 -0.000000 -0.000000  0.000000 -0.000000
  0C   1f+3      -0.001279 -0.003565  0.005887 -0.022883  0.002086  0.024702
  0C   1f-3       0.006882 -0.000681  0.001082  0.024269  0.008739  0.021744
  1H   1s         0.002069 -0.000788 -0.002143 -0.037902 -0.035268  0.009350
  1H   2s        -0.321755  0.122593  0.333397 -1.489660 -1.386111  0.367492
  1H   3s        -1.845195  0.703042  1.911958 -0.196720 -0.183045  0.048530
  1H   1pz       -0.011478 -0.004623  0.006412  0.005470  0.021044 -0.005068
  1H   1px        0.009527 -0.009713 -0.003024 -0.017445 -0.006212  0.012471
  1H   1py        0.001115 -0.003339 -0.013485 -0.018039 -0.010851 -0.007436
  1H   2pz        0.152182 -0.018177 -0.133434  0.143053  0.133618 -0.035409
  1H   2px       -0.143547  0.081607  0.118444 -0.143435 -0.133145  0.035645
  1H   2py       -0.106332  0.053406  0.164729 -0.143454 -0.133293  0.035010
  1H   1dz2       0.000844  0.001529  0.000253  0.005901 -0.006016  0.001226
  1H   1dxz       0.012946 -0.003855 -0.008853  0.018288  0.012508  0.004520
  1H   1dyz       0.009834 -0.001497 -0.012723  0.017837  0.008983 -0.010607
  1H   1dx2y2     0.000999 -0.000757  0.001242  0.000247  0.001932  0.008290
  1H   1dxy      -0.009112  0.006800  0.011470 -0.008738 -0.020253  0.004981
  2H   1s         0.001430  0.000442  0.002694 -0.005798  0.019532 -0.048505
  2H   2s        -0.222355 -0.068750 -0.418975 -0.227882  0.767644 -1.906367
  2H   3s        -1.275157 -0.394267 -2.402733 -0.030093  0.101373 -0.251748
  2H   1pz        0.007878 -0.006539  0.009456 -0.003335  0.017873 -0.012957
  2H   1px       -0.009829 -0.007797 -0.006068 -0.008640 -0.003041  0.020360
  2H   1py       -0.002421  0.003468  0.013280 -0.011570  0.000190 -0.019093
  2H   2pz       -0.104927  0.007265 -0.173873 -0.021963  0.074198 -0.183260
  2H   2px        0.113562  0.056165  0.158882  0.021581 -0.073725  0.183496
  2H   2py       -0.059362 -0.037010 -0.190790 -0.022226  0.073634 -0.183456
  2H   1dz2       0.000572 -0.001669 -0.000030 -0.000899  0.007818  0.003255
  2H   1dxz       0.010127  0.001571  0.012482  0.009492 -0.002505  0.020371
  2H   1dyz      -0.005595  0.000030 -0.015150  0.005864  0.004672 -0.021334
  2H   1dx2y2     0.001455  0.000514 -0.000857  0.008416  0.001188 -0.000528
  2H   1dxy       0.006317  0.005273  0.013897  0.003235 -0.015942  0.015708
  3H   1s        -0.001419  0.002600 -0.000849 -0.003303  0.039023  0.035129
  3H   2s         0.220662 -0.404461  0.132015 -0.129813  1.533725  1.380681
  3H   3s         1.265448 -2.319498  0.757078 -0.017143  0.202539  0.182328
  3H   1pz       -0.007882  0.005404 -0.010145 -0.002832  0.021800  0.003894
  3H   1px       -0.009769  0.009036  0.004140 -0.010474  0.008757  0.017665
  3H   1py       -0.002481 -0.013366  0.003071 -0.009737 -0.011608 -0.016398
  3H   2pz        0.104412 -0.151369  0.086487 -0.012541  0.147801  0.132551
  3H   2px        0.112762 -0.167442  0.023285 -0.012785  0.147385  0.132990
  3H   2py       -0.058562  0.186598 -0.055192  0.012140 -0.147476 -0.132949
  3H   1dz2      -0.000581 -0.000795 -0.001465 -0.001184  0.005587 -0.006317
  3H   1dxz       0.010079 -0.011848  0.004345  0.006999  0.013537  0.016706
  3H   1dyz      -0.005547  0.013449 -0.007012  0.008357 -0.011371 -0.017669
  3H   1dx2y2    -0.001455 -0.000514  0.000857 -0.008416 -0.001188  0.000528
  3H   1dxy      -0.006246  0.014793 -0.001728  0.002551 -0.021282 -0.007205
  4H   1s        -0.002079 -0.002254  0.000299  0.047003 -0.023287  0.004025
  4H   2s         0.323448  0.350619 -0.046437  1.847355 -0.915258  0.158194
  4H   3s         1.854904  2.010724 -0.266304  0.243956 -0.120866  0.020891
  4H   1pz        0.011474  0.003488 -0.007100 -0.011637  0.018630 -0.003995
  4H   1px        0.009587  0.007121  0.007184 -0.019278  0.005586  0.009777
  4H   1py        0.001176  0.013495 -0.003277 -0.019872  0.000946 -0.010131
  4H   2pz       -0.152697 -0.125927  0.046049 -0.177558  0.088380 -0.015300
  4H   2px       -0.144347 -0.142000 -0.017154 -0.177802  0.087964 -0.014861
  4H   2py       -0.107132 -0.170201  0.029132 -0.177821  0.087816 -0.015496
  4H   1dz2      -0.000836  0.000935  0.001242 -0.003817 -0.007388  0.001836
  4H   1dxz       0.012994  0.009565 -0.000716  0.020781 -0.003534  0.008184
  4H   1dyz       0.009882  0.011922 -0.004586  0.020330 -0.007059 -0.006942
  4H   1dx2y2    -0.000999  0.000757 -0.001242 -0.000247 -0.001932 -0.008290
  4H   1dxy       0.009184  0.013266  0.000699  0.014524 -0.016971  0.003522
                     12        13        14        15        16        17   
                   0.66089   0.67011   0.67011   0.67011   0.67038   0.67038
                   0.00000   0.00000   0.00000   0.00000   0.00000   0.00000
                  --------  --------  --------  --------  --------  --------
  0C   1s         0.089008  0.000000 -0.000000  0.000000 -0.000000  0.000000
  0C   2s         0.131914  0.000000 -0.000000  0.000000 -0.000000  0.000000
  0C   1pz       -0.000000  0.002435 -0.266117  0.099787 -0.000000 -0.000000
  0C   1px        0.000000  0.133523 -0.087021 -0.235331 -0.000000  0.000000
  0C   1py       -0.000000  0.250893  0.048895  0.124273 -0.000000 -0.000000
  0C   3s        -0.348442 -0.000000  0.000000 -0.000000  0.000000 -0.000000
  0C   2pz        0.000000 -0.002920  0.319130 -0.119666  0.000000  0.000000
  0C   2px       -0.000000 -0.160122  0.104357  0.282211  0.000000 -0.000000
  0C   2py        0.000000 -0.300873 -0.058635 -0.149029  0.000000  0.000000
  0C   4s         5.746005  0.000000 -0.000000  0.000000 -0.000000  0.000000
  0C   3pz        0.000000 -0.028741  3.140718 -1.177691  0.000000  0.000000
  0C   3px       -0.000000 -1.575846  1.027026  2.777376  0.000000 -0.000000
  0C   3py        0.000000 -2.961043 -0.577060 -1.466669  0.000000  0.000000
  0C   1dz2      -0.000000 -0.000000  0.000000  0.000000 -0.015036  0.016516
  0C   1dxz       0.000000 -0.047154 -0.009190 -0.023356  0.000000  0.000000
  0C   1dyz      -0.000000 -0.025095  0.016355  0.044229  0.000000 -0.000000
  0C   1dx2y2     0.000000 -0.000000  0.000000 -0.000000 -0.016516 -0.015036
  0C   1dxy       0.000000 -0.000458  0.050015 -0.018755  0.000000  0.000000
  0C   2dz2       0.000000  0.000000 -0.000000 -0.000000  0.011515 -0.012648
  0C   2dxz       0.000000 -0.949167 -0.184978 -0.470143  0.000000  0.000000
  0C   2dyz      -0.000000 -0.505140  0.329215  0.890292  0.000000 -0.000000
  0C   2dx2y2    -0.000000  0.000000 -0.000000  0.000000  0.012648  0.011515
  0C   2dxy       0.000000 -0.009213  1.006762 -0.377510  0.000000  0.000000
  0C   1f0       -0.000000  0.000413 -0.045115  0.016917 -0.000000 -0.000000
  0C   1f+1      -0.000000 -0.013862  0.009034  0.024431  0.000000 -0.000000
  0C   1f-1       0.000000 -0.026046 -0.005076 -0.012901  0.000000  0.000000
  0C   1f+2      -0.000000 -0.000000 -0.000000 -0.000000 -0.000000  0.000000
  0C   1f-2       0.083933  0.000000 -0.000000  0.000000 -0.000000  0.000000
  0C   1f+3      -0.000000 -0.017895  0.011663  0.031540  0.000000 -0.000000
  0C   1f-3      -0.000000  0.033626  0.006553  0.016656 -0.000000 -0.000000
  1H   1s         0.082770  0.099784  0.059557 -0.055078 -0.000000 -0.000000
  1H   2s        -0.602780 -1.401815 -0.836693  0.773771  0.000000  0.000000
  1H   3s        -0.987033 -2.004570 -1.196456  1.106479  0.000000  0.000000
  1H   1pz       -0.002866 -0.004424  0.010523 -0.002534  0.015417 -0.016934
  1H   1px        0.002866 -0.002265  0.006850  0.009202 -0.006957 -0.021819
  1H   1py        0.002866 -0.008039  0.000163 -0.008489  0.022374  0.004884
  1H   2pz        0.414260  0.668389  0.200586 -0.293967 -0.266796  0.293054
  1H   2px       -0.414260 -0.567602 -0.462369  0.193488  0.120394  0.377579
  1H   2py       -0.414260 -0.480595 -0.361614  0.460064 -0.387190 -0.084525
  1H   1dz2       0.000000  0.000013 -0.000019  0.000003  0.002995 -0.003289
  1H   1dxz       0.023707  0.047919  0.022151 -0.009646 -0.015981 -0.003489
  1H   1dyz       0.023707  0.040413  0.013459 -0.032643  0.004969  0.015584
  1H   1dx2y2    -0.000000  0.000007  0.000008  0.000021  0.003289  0.002995
  1H   1dxy      -0.023707 -0.031718 -0.036043  0.023975 -0.011012  0.012095
  2H   1s         0.082770  0.031296 -0.034012  0.120005 -0.000000 -0.000000
  2H   2s        -0.602780 -0.439666  0.477818 -1.685896  0.000000  0.000000
  2H   3s        -0.987033 -0.628715  0.683271 -2.410801  0.000000  0.000000
  2H   1pz        0.002866  0.001230  0.011625  0.000267 -0.015417  0.016934
  2H   1px       -0.002866 -0.007919  0.005748  0.006402  0.006957  0.021819
  2H   1py        0.002866 -0.010993 -0.003872 -0.000938  0.022374  0.004884
  2H   2pz       -0.414260 -0.207262  0.029935 -0.727696  0.266796 -0.293054
  2H   2px        0.414260  0.308049 -0.291719  0.627217 -0.120394 -0.377579
  2H   2py       -0.414260 -0.023079  0.263456 -0.709545 -0.387190 -0.084525
  2H   1dz2       0.000000  0.000004  0.000023  0.000005  0.002995 -0.003289
  2H   1dxz       0.023707  0.026042 -0.007738  0.046280 -0.015981 -0.003489
  2H   1dyz      -0.023707 -0.001458  0.005299 -0.053383 -0.004969 -0.015584
  2H   1dx2y2    -0.000000  0.000022 -0.000002 -0.000006  0.003289  0.002995
  2H   1dxy       0.023707  0.010153 -0.027883  0.044715  0.011012 -0.012095
  3H   1s         0.082770 -0.030024 -0.105022 -0.067871 -0.000000  0.000000
  3H   2s        -0.602780  0.421792  1.475403  0.953487  0.000000 -0.000000
  3H   3s        -0.987033  0.603155  2.109801  1.363470  0.000000 -0.000000
  3H   1pz        0.002866 -0.001415  0.008562 -0.007837 -0.015417  0.016934
  3H   1px        0.002866 -0.007864 -0.000249  0.008650 -0.006957 -0.021819
  3H   1py       -0.002866 -0.011048  0.002124 -0.003186 -0.022374 -0.004884
  3H   2pz       -0.414260  0.202374  0.504302  0.527370  0.266796 -0.293054
  3H   2px       -0.414260  0.299550  0.637067  0.278945  0.120394  0.377579
  3H   2py        0.414260 -0.014580 -0.665330 -0.361273  0.387190  0.084525
  3H   1dz2       0.000000 -0.000004  0.000013 -0.000019  0.002995 -0.003289
  3H   1dxz      -0.023707  0.025635  0.036674  0.029627  0.015981  0.003489
  3H   1dyz       0.023707 -0.001052 -0.039112 -0.036729  0.004969  0.015584
  3H   1dx2y2    -0.000000 -0.000022  0.000002  0.000006  0.003289  0.002995
  3H   1dxy       0.023707 -0.009435 -0.050565 -0.015299  0.011012 -0.012095
  4H   1s         0.082770 -0.101056  0.079476  0.002944  0.000000  0.000000
  4H   2s        -0.602780  1.419688 -1.116528 -0.041362 -0.000000 -0.000000
  4H   3s        -0.987033  2.030130 -1.596615 -0.059147 -0.000000 -0.000000
  4H   1pz       -0.002866  0.004239  0.009664 -0.005036  0.015417 -0.016934
  4H   1px       -0.002866 -0.002210  0.000853  0.011451  0.006957  0.021819
  4H   1py       -0.002866 -0.007985 -0.005833 -0.006241 -0.022374 -0.004884
  4H   2pz        0.414260 -0.673278  0.333651  0.093641 -0.266796  0.293054
  4H   2px        0.414260 -0.576101  0.466416 -0.154784 -0.120394 -0.377579
  4H   2py        0.414260 -0.489095  0.567172  0.111792  0.387190  0.084525
  4H   1dz2      -0.000000 -0.000013 -0.000017  0.000010  0.002995 -0.003289
  4H   1dxz      -0.023707  0.048325 -0.022260  0.007007  0.015981  0.003489
  4H   1dyz      -0.023707  0.040819 -0.030952 -0.015990 -0.004969 -0.015584
  4H   1dx2y2    -0.000000 -0.000007 -0.000008 -0.000021  0.003289  0.002995
  4H   1dxy      -0.023707  0.032436 -0.042405  0.005441 -0.011012  0.012095
                     18        19        20        21        22        23   
                   0.80488   1.05986   1.05986   1.05986   1.19374   1.19374
                   0.00000   0.00000   0.00000   0.00000   0.00000   0.00000
                  --------  --------  --------  --------  --------  --------
  0C   1s        -0.015601 -0.000000 -0.000000  0.000000 -0.000000  0.000000
  0C   2s        -0.010895 -0.000000 -0.000000  0.000000 -0.000000  0.000000
  0C   1pz       -0.000000 -0.000000  0.000000  0.000000 -0.009088 -0.042439
  0C   1px       -0.000000 -0.000000 -0.000000 -0.000000 -0.031775  0.000687
  0C   1py       -0.000000  0.000000  0.000000 -0.000000 -0.029373  0.012388
  0C   3s         0.458233  0.000000  0.000000 -0.000000  0.000000 -0.000000
  0C   2pz       -0.000000 -0.000000  0.000000  0.000000 -0.075946 -0.354646
  0C   2px        0.000000  0.000000 -0.000000 -0.000000 -0.265529  0.005738
  0C   2py       -0.000000  0.000000  0.000000 -0.000000 -0.245459  0.103522
  0C   4s        -7.801658  0.000000 -0.000000  0.000000  0.000000  0.000000
  0C   3pz        0.000000  0.000000  0.000000  0.000000 -0.317324 -1.481804
  0C   3px        0.000000 -0.000000 -0.000000 -0.000000 -1.109451  0.023976
  0C   3py        0.000000  0.000000  0.000000  0.000000 -1.025590  0.432543
  0C   1dz2       0.000000 -0.000000  0.000000 -0.000000  0.000000 -0.000000
  0C   1dxz      -0.000000  0.000000  0.000000 -0.000000  0.000538 -0.000227
  0C   1dyz       0.000000  0.000000 -0.000000 -0.000000  0.000582 -0.000013
  0C   1dx2y2     0.000000 -0.000000 -0.000000  0.000000  0.000000  0.000000
  0C   1dxy      -0.000000 -0.000000  0.000000  0.000000  0.000167  0.000778
  0C   2dz2      -0.000000 -0.000000 -0.000000  0.000000  0.000000  0.000000
  0C   2dxz      -0.000000  0.000000  0.000000 -0.000000 -1.349546  0.569171
  0C   2dyz       0.000000 -0.000000 -0.000000 -0.000000 -1.459896  0.031549
  0C   2dx2y2    -0.000000  0.000000  0.000000  0.000000 -0.000000 -0.000000
  0C   2dxy      -0.000000 -0.000000  0.000000  0.000000 -0.417558 -1.949865
  0C   1f0        0.000000  0.000000 -0.000000 -0.000000  0.021613  0.100925
  0C   1f+1       0.000000 -0.021548 -0.029013  0.049539 -0.046273  0.001000
  0C   1f-1      -0.000000  0.041624 -0.044338 -0.007862 -0.042776  0.018041
  0C   1f+2      -0.000000  0.050014  0.039040  0.044618  0.000000  0.000000
  0C   1f-2      -0.137782  0.000000 -0.000000  0.000000  0.000000  0.000000
  0C   1f+3       0.000000  0.016691  0.022473 -0.038373 -0.059738  0.001291
  0C   1f-3       0.000000  0.032242 -0.034344 -0.006090  0.055223 -0.023290
  1H   1s         0.019328  0.000000  0.000000  0.000000  0.042798 -0.045637
  1H   2s         1.934650 -0.000000 -0.000000 -0.000000 -1.783577  1.901917
  1H   3s         0.679590 -0.000000  0.000000 -0.000000  0.069372 -0.073975
  1H   1pz       -0.016383 -0.008349  0.030504 -0.017332  0.033801 -0.038732
  1H   1px        0.016383 -0.033752  0.005603 -0.011399 -0.035909  0.036579
  1H   1py        0.016383  0.025404  0.024900 -0.005932 -0.035785  0.037183
  1H   2pz       -0.235437  0.159045 -0.581095  0.330171 -0.149760 -0.016677
  1H   2px        0.235437  0.642984 -0.106742  0.217159  0.011507 -0.124585
  1H   2py        0.235437 -0.483939 -0.474354  0.113013  0.019633 -0.084995
  1H   1dz2       0.000000 -0.005761  0.021048 -0.011959  0.028669  0.025951
  1H   1dxz      -0.024290  0.000223  0.000218 -0.000052 -0.004435 -0.010579
  1H   1dyz      -0.024290 -0.000296  0.000049 -0.000100 -0.006377 -0.020040
  1H   1dx2y2     0.000000  0.023566  0.007688  0.002178 -0.001503 -0.007325
  1H   1dxy       0.024290 -0.000073  0.000267 -0.000152 -0.026662 -0.013718
  2H   1s         0.019328 -0.000000 -0.000000 -0.000000  0.005497  0.025269
  2H   2s         1.934650  0.000000  0.000000 -0.000000 -0.229078 -1.053079
  2H   3s         0.679590 -0.000000  0.000000  0.000000  0.008910  0.040960
  2H   1pz        0.016383  0.026270 -0.006373 -0.023871 -0.004870 -0.022423
  2H   1px       -0.016383  0.000867 -0.031273 -0.017938  0.002763  0.020269
  2H   1py        0.016383 -0.025404 -0.024900  0.005932 -0.005916 -0.019595
  2H   2pz        0.235437 -0.500451  0.121406  0.454741 -0.015463 -0.073317
  2H   2px       -0.235437 -0.016512  0.595759  0.341729 -0.122790 -0.067945
  2H   2py        0.235437  0.483939  0.474354 -0.113013 -0.084093  0.112181
  2H   1dz2      -0.000000 -0.018127  0.004397  0.016471 -0.007437 -0.034905
  2H   1dxz      -0.024290 -0.000223 -0.000218  0.000052 -0.021269  0.021420
  2H   1dyz       0.024290  0.000008 -0.000274 -0.000157 -0.028172 -0.010848
  2H   1dx2y2     0.000000 -0.009775 -0.022378 -0.004783  0.038277 -0.008185
  2H   1dxy      -0.024290  0.000230 -0.000056 -0.000209 -0.004868 -0.022910
  3H   1s         0.019328  0.000000  0.000000 -0.000000  0.009446  0.044508
  3H   2s         1.934650 -0.000000 -0.000000  0.000000 -0.393649 -1.854866
  3H   3s         0.679590  0.000000  0.000000 -0.000000  0.015311  0.072145
  3H   1pz        0.016383 -0.026270  0.006373  0.023871 -0.008032 -0.037828
  3H   1px        0.016383  0.033752 -0.005603  0.011399 -0.009202 -0.035604
  3H   1py       -0.016383  0.007482  0.000770  0.035270  0.006049  0.036278
  3H   2pz        0.235437  0.500451 -0.121406 -0.454741 -0.004482 -0.019817
  3H   2px        0.235437 -0.642984  0.106742 -0.217159 -0.081238  0.126092
  3H   2py       -0.235437 -0.142533 -0.014664 -0.671900 -0.125646 -0.081856
  3H   1dz2      -0.000000  0.018127 -0.004397 -0.016471 -0.005701 -0.026447
  3H   1dxz       0.024290  0.000066  0.000007  0.000309 -0.028012 -0.010070
  3H   1dyz      -0.024290  0.000296 -0.000049  0.000100 -0.021428  0.020641
  3H   1dx2y2    -0.000000 -0.016427  0.001926 -0.018592 -0.038277  0.008185
  3H   1dxy      -0.024290 -0.000230  0.000056  0.000209 -0.003085 -0.014228
  4H   1s         0.019328  0.000000 -0.000000 -0.000000 -0.057740 -0.024140
  4H   2s         1.934650 -0.000000  0.000000  0.000000  2.406304  1.006028
  4H   3s         0.679590 -0.000000  0.000000 -0.000000 -0.093593 -0.039130
  4H   1pz       -0.016383  0.008349 -0.030504  0.017332 -0.046704 -0.021519
  4H   1px       -0.016383 -0.000867  0.031273  0.017938 -0.047874 -0.019295
  4H   1py       -0.016383 -0.007482 -0.000770 -0.035270 -0.047750 -0.018691
  4H   2pz       -0.235437 -0.159045  0.581095 -0.330171  0.129816 -0.076457
  4H   2px       -0.235437  0.016512 -0.595759 -0.341729  0.053060  0.069452
  4H   2py       -0.235437  0.142533  0.014664  0.671900  0.061186  0.109042
  4H   1dz2       0.000000  0.005761 -0.021048  0.011959 -0.015530  0.035401
  4H   1dxz       0.024290 -0.000066 -0.000007 -0.000309  0.002308  0.020910
  4H   1dyz       0.024290 -0.000008  0.000274  0.000157  0.000366  0.011449
  4H   1dx2y2    -0.000000  0.002635  0.012765  0.021197  0.001503  0.007325
  4H   1dxy       0.024290  0.000073 -0.000267  0.000152  0.018709 -0.023420
                     24        25        26        27        28        29   
                   1.19374   1.32299   1.32299   1.32299   1.56315   1.56315
                   0.00000   0.00000   0.00000   0.00000   0.00000   0.00000
                  --------  --------  --------  --------  --------  --------
  0C   1s         0.000000  0.000000  0.000000 -0.000000  0.000000 -0.000000
  0C   2s         0.000000  0.000000  0.000000 -0.000000  0.000000 -0.000000
  0C   1pz       -0.008446 -0.089569  0.004066  0.031571 -0.000000  0.000000
  0C   1px        0.030739 -0.021026  0.063228 -0.067794  0.000000  0.000000
  0C   1py       -0.030639 -0.023900 -0.070863 -0.058678  0.000000  0.000000
  0C   3s        -0.000000 -0.000000 -0.000000  0.000000 -0.000000  0.000000
  0C   2pz       -0.070583 -0.125504  0.005697  0.044238 -0.000000  0.000000
  0C   2px        0.256875 -0.029462  0.088595 -0.094992  0.000000  0.000000
  0C   2py       -0.256041 -0.033488 -0.099293 -0.082220  0.000000  0.000000
  0C   4s         0.000000  0.000000  0.000000  0.000000 -0.000000  0.000000
  0C   3pz       -0.294913 -2.041437  0.092661  0.719569 -0.000000  0.000000
  0C   3px        1.073291 -0.479222  1.441085 -1.545137  0.000000  0.000000
  0C   3py       -1.069805 -0.544713 -1.615090 -1.337386  0.000000  0.000000
  0C   1dz2      -0.000000 -0.000000 -0.000000 -0.000000 -0.011693  0.001009
  0C   1dxz       0.000561 -0.004815 -0.014275 -0.011821  0.000000  0.000000
  0C   1dyz      -0.000563 -0.004236  0.012737 -0.013657  0.000000  0.000000
  0C   1dx2y2    -0.000000 -0.000000  0.000000  0.000000 -0.001009 -0.011693
  0C   1dxy       0.000155 -0.018044  0.000819  0.006360 -0.000000  0.000000
  0C   2dz2      -0.000000  0.000000 -0.000000  0.000000 -2.978732  0.257043
  0C   2dxz      -1.407727  0.240074  0.711828  0.589433  0.000000  0.000000
  0C   2dyz       1.412315  0.211210 -0.635138  0.680997  0.000000  0.000000
  0C   2dx2y2     0.000000  0.000000 -0.000000 -0.000000 -0.257043 -2.978732
  0C   2dxy      -0.388068  0.899734 -0.040839 -0.317140 -0.000000  0.000000
  0C   1f0        0.020086 -0.066753  0.003030  0.023529  0.000000 -0.000000
  0C   1f+1       0.044765  0.009596 -0.028856  0.030940  0.000000  0.000000
  0C   1f-1      -0.044620  0.010907  0.032340  0.026780  0.000000  0.000000
  0C   1f+2       0.000000  0.000000 -0.000000 -0.000000  0.000000  0.000000
  0C   1f-2       0.000000  0.000000  0.000000  0.000000 -0.000000 -0.000000
  0C   1f+3       0.057791  0.012388 -0.037253  0.039943  0.000000  0.000000
  0C   1f-3       0.057604 -0.014081 -0.041751 -0.034572 -0.000000 -0.000000
  1H   1s        -0.007026 -0.013527  0.003545  0.047888  0.000000 -0.000000
  1H   2s         0.292796  0.057037 -0.014948 -0.201919  0.000000  0.000000
  1H   3s        -0.011388  0.167006 -0.043769 -0.591224  0.000000  0.000000
  1H   1pz       -0.006061 -0.045408 -0.000854 -0.026884 -0.056605  0.004885
  1H   1px        0.007211 -0.027273  0.045079  0.003079 -0.024072  0.051464
  1H   1py        0.004046 -0.029161 -0.043044  0.009069 -0.032533 -0.046579
  1H   2pz       -0.009040  1.084802 -0.015854  0.108741  1.098280 -0.094773
  1H   2px        0.084464  0.444889 -0.914918  0.392265  0.467064 -0.998525
  1H   2py       -0.123200  0.484633  0.939759  0.266188  0.631216  0.903751
  1H   1dz2       0.006069 -0.029743  0.000066 -0.008407 -0.061050  0.005268
  1H   1dxz      -0.027944  0.016185  0.024441 -0.004010  0.025579  0.036623
  1H   1dyz       0.021683  0.015116 -0.025427 -0.000620  0.018927 -0.040464
  1H   1dx2y2     0.038422 -0.000661 -0.030830  0.002096 -0.005268 -0.061050
  1H   1dxy      -0.003659  0.026013  0.000400  0.014091  0.044506 -0.003841
  2H   1s         0.057402  0.028011  0.039399 -0.012328 -0.000000  0.000000
  2H   2s        -2.392219 -0.118106 -0.166123  0.051982 -0.000000  0.000000
  2H   3s         0.093045 -0.345817 -0.486412  0.152204 -0.000000  0.000000
  2H   1pz       -0.046400 -0.031003  0.041859  0.008486  0.056605 -0.004885
  2H   1px        0.047550 -0.041679  0.002365 -0.032291  0.024072 -0.051464
  2H   1py       -0.047544  0.012154 -0.007382 -0.050825 -0.032533 -0.046579
  2H   2pz        0.131048  0.919844 -0.504961 -0.296266 -1.098280  0.094773
  2H   2px       -0.055624  0.609847 -0.425811  0.797272 -0.467064  0.998525
  2H   2py        0.055962  0.011540  0.531408  0.952021  0.631216  0.903751
  2H   1dz2       0.016078  0.023398 -0.018879 -0.007172 -0.061050  0.005268
  2H   1dxz       0.001132 -0.006222  0.005101  0.028472  0.025579  0.036623
  2H   1dyz      -0.001051  0.022929 -0.002261  0.018562 -0.018927  0.040464
  2H   1dx2y2    -0.000063 -0.010329 -0.001755 -0.029079 -0.005268 -0.061050
  2H   1dxy       0.019076  0.018200 -0.022765 -0.005091 -0.044506  0.003841
  3H   1s        -0.043515  0.026269 -0.041862 -0.006804  0.000000 -0.000000
  3H   2s         1.813470 -0.110764  0.176511  0.028690  0.000000 -0.000000
  3H   3s        -0.070535 -0.324319  0.516830  0.084006  0.000000 -0.000000
  3H   1pz        0.034409 -0.032735 -0.038966  0.013980  0.056605 -0.004885
  3H   1px        0.036429  0.012311 -0.000086 -0.051321 -0.024072  0.051464
  3H   1py       -0.036424 -0.041835 -0.004932 -0.031795  0.032533  0.046579
  3H   2pz       -0.149584  0.939677  0.420557 -0.359181 -1.098280  0.094773
  3H   2px       -0.017006 -0.008372 -0.397750  1.015183  0.467064 -0.998525
  3H   2py        0.017344  0.629759  0.503347  0.734110 -0.631216 -0.903751
  3H   1dz2      -0.028288  0.024161  0.016721 -0.009592 -0.061050  0.005268
  3H   1dxz      -0.005135  0.023058  0.003772  0.018152 -0.025579 -0.036623
  3H   1dyz       0.005216 -0.006351 -0.000932  0.028882  0.018927 -0.040464
  3H   1dx2y2     0.000063  0.010329  0.001755  0.029079 -0.005268 -0.061050
  3H   1dxy      -0.026467  0.019140  0.021070 -0.008071 -0.044506  0.003841
  4H   1s        -0.006862 -0.040753 -0.001081 -0.028755 -0.000000 -0.000000
  4H   2s         0.285953  0.171832  0.004560  0.121247 -0.000000 -0.000000
  4H   3s        -0.011122  0.503130  0.013351  0.355013 -0.000000 -0.000000
  4H   1pz       -0.005930 -0.018329  0.003747  0.049350 -0.056605  0.004885
  4H   1px       -0.003909  0.026717  0.042628 -0.015951  0.024072 -0.051464
  4H   1py       -0.007074  0.024828 -0.045494 -0.009961  0.032533  0.046579
  4H   2pz       -0.009496  0.774719 -0.068549 -0.764188  1.098280 -0.094773
  4H   2px        0.123082 -0.173330 -0.886857  0.610176 -0.467064  0.998525
  4H   2py       -0.084583 -0.133586  0.967820  0.484099 -0.631216 -0.903751
  4H   1dz2       0.006141 -0.017816  0.002093  0.025170 -0.061050  0.005268
  4H   1dxz      -0.021677 -0.013095  0.025770  0.006311 -0.025579 -0.036623
  4H   1dyz       0.027950 -0.014164 -0.024098  0.009700 -0.018927  0.040464
  4H   1dx2y2    -0.038422  0.000661  0.030830 -0.002096 -0.005268 -0.061050
  4H   1dxy      -0.003733  0.011327 -0.002095 -0.027253  0.044506 -0.003841
                     30        31        32        33        34        35   
                   1.59043   1.59043   1.59043   1.71869   2.45835   2.45835
                   0.00000   0.00000   0.00000   0.00000   0.00000   0.00000
                  --------  --------  --------  --------  --------  --------
  0C   1s        -0.000000 -0.000000 -0.000000  0.115999 -0.000000  0.000000
  0C   2s        -0.000000 -0.000000 -0.000000  0.286893 -0.000000  0.000000
  0C   1pz       -0.077978  0.212538  0.072679  0.000000 -0.003273  0.007771
  0C   1px       -0.167099 -0.003476 -0.169118 -0.000000 -0.006054 -0.000977
  0C   1py       -0.150108 -0.106540  0.150506 -0.000000 -0.005265 -0.003707
  0C   3s         0.000000  0.000000  0.000000 -2.741763  0.000000 -0.000000
  0C   2pz       -0.993565  2.708061  0.926038  0.000000  0.433094 -1.028161
  0C   2px       -2.129098 -0.044291 -2.154830 -0.000000  0.800999  0.129312
  0C   2py       -1.912611 -1.357482  1.917674 -0.000000  0.696622  0.490525
  0C   4s         0.000000  0.000000  0.000000 -5.205588  0.000000 -0.000000
  0C   3pz       -0.954229  2.600847  0.889376  0.000000  0.293648 -0.697118
  0C   3px       -2.044806 -0.042538 -2.069519 -0.000000  0.543097  0.087677
  0C   3py       -1.836890 -1.303738  1.841752 -0.000000  0.472326  0.332588
  0C   1dz2      -0.000000 -0.000000 -0.000000  0.000000  0.000000  0.000000
  0C   1dxz      -0.047677 -0.033839  0.047803  0.000000  0.158444  0.111568
  0C   1dyz      -0.053073 -0.001104 -0.053715 -0.000000  0.182184  0.029412
  0C   1dx2y2    -0.000000  0.000000  0.000000 -0.000000  0.000000  0.000000
  0C   1dxy      -0.024767  0.067505  0.023084  0.000000  0.098506 -0.233851
  0C   2dz2      -0.000000 -0.000000 -0.000000  0.000000  0.000000  0.000000
  0C   2dxz      -1.294568 -0.918824  1.297995 -0.000000  0.267678  0.188485
  0C   2dyz      -1.441100 -0.029979 -1.458516 -0.000000  0.307785  0.049688
  0C   2dx2y2    -0.000000  0.000000  0.000000 -0.000000  0.000000  0.000000
  0C   2dxy      -0.672504  1.832976  0.626797  0.000000  0.166417 -0.395072
  0C   1f0        0.030210 -0.082340 -0.028157 -0.000000 -0.138606  0.329049
  0C   1f+1      -0.039643 -0.000825 -0.040122 -0.000000  0.156981  0.025343
  0C   1f-1      -0.035612 -0.025276  0.035706 -0.000000  0.136525  0.096134
  0C   1f+2       0.000000 -0.000000  0.000000 -0.000000 -0.000000 -0.000000
  0C   1f-2      -0.000000  0.000000 -0.000000  0.091725  0.000000 -0.000000
  0C   1f+3      -0.051179 -0.001065 -0.051797 -0.000000  0.202662  0.032717
  0C   1f-3       0.045975  0.032631 -0.046097  0.000000 -0.176253 -0.124108
  1H   1s        -0.031431 -0.042379 -0.011994  0.133952 -0.538834 -0.834171
  1H   2s        -2.818107 -3.799674 -1.075410  1.423316  1.501720  2.324818
  1H   3s        -1.029122 -1.387572 -0.392720  0.656454 -0.075667 -0.117140
  1H   1pz       -0.020173 -0.014016 -0.003447  0.059055 -0.028736  0.005770
  1H   1px        0.010002  0.022692 -0.000555 -0.059055 -0.007776  0.020823
  1H   1py        0.010707  0.018415  0.012710 -0.059055 -0.004688  0.010137
  1H   2pz        1.044082  1.361206  0.383423 -0.691540 -0.265908 -0.510103
  1H   2px       -1.008180 -1.391832 -0.369296  0.691540  0.337434  0.458007
  1H   2py       -1.010669 -1.376734 -0.416118  0.691540  0.331384  0.478942
  1H   1dz2       0.009341 -0.006220 -0.002502  0.000000 -0.003661  0.002225
  1H   1dxz       0.067229  0.085741  0.015023 -0.002599 -0.075435 -0.030063
  1H   1dyz       0.068099  0.080468  0.031377 -0.002599 -0.090831  0.023216
  1H   1dx2y2    -0.000581  0.003524 -0.010929 -0.000000  0.000280 -0.000969
  1H   1dxy      -0.055559 -0.091165 -0.026443  0.002599 -0.091199  0.109365
  2H   1s        -0.008013  0.014383  0.051543  0.133952 -0.166387  0.337591
  2H   2s        -0.718434  1.289603  4.621313  1.423316  0.463718 -0.940858
  2H   3s        -0.262359  0.470940  1.687620  0.656454 -0.023365  0.047407
  2H   1pz        0.001082  0.001070 -0.024758 -0.059055 -0.007897  0.020444
  2H   1px       -0.011253  0.007606  0.020756  0.059055 -0.028615  0.006150
  2H   1py       -0.001912 -0.012172 -0.021528 -0.059055 -0.015694 -0.024488
  2H   2pz       -0.251838  0.441423  1.682773  0.691540  0.114962 -0.241914
  2H   2px        0.287739 -0.472049 -1.668645 -0.691540 -0.043437  0.189818
  2H   2py       -0.241271  0.488165  1.671372  0.691540  0.130236 -0.153893
  2H   1dz2      -0.003414  0.010426 -0.003440  0.000000  0.001503 -0.003745
  2H   1dxz       0.022862 -0.021799 -0.105353 -0.002599 -0.094317 -0.089468
  2H   1dyz      -0.006631  0.027428  0.106305  0.002599 -0.126583 -0.001959
  2H   1dx2y2     0.010846  0.003762  0.000636  0.000000 -0.004018 -0.001663
  2H   1dxy       0.019171 -0.038125 -0.101371 -0.002599 -0.055446  0.134540
  3H   1s        -0.012477  0.041465 -0.032445  0.133952 -0.272053  0.703263
  3H   2s        -1.118732  3.717776 -2.909009  1.423316  0.758205 -1.959978
  3H   3s        -0.408541  1.357665 -1.062318  0.656454 -0.038203  0.098757
  3H   1pz        0.003487 -0.013524  0.020500 -0.059055 -0.004775  0.009638
  3H   1px       -0.000211 -0.022489  0.010465 -0.059055 -0.015660 -0.024607
  3H   1py       -0.012954  0.017923 -0.011237  0.059055 -0.028649  0.006268
  3H   2pz       -0.398522  1.331196 -1.076615  0.691540  0.172029 -0.439403
  3H   2px       -0.385466  1.362840 -1.041194  0.691540  0.193353 -0.372318
  3H   2py        0.431934 -1.346723  1.043921 -0.691540 -0.106553  0.408242
  3H   1dz2      -0.002743  0.006357  0.009179  0.000000  0.001180 -0.002626
  3H   1dxz      -0.015959  0.084011 -0.069170  0.002599 -0.116544 -0.036700
  3H   1dyz       0.032190 -0.078382  0.070123 -0.002599 -0.104356 -0.054727
  3H   1dx2y2    -0.010846 -0.003762 -0.000636 -0.000000  0.004018  0.001663
  3H   1dxy       0.027630 -0.089434  0.057751 -0.002599 -0.050089  0.116001
  4H   1s         0.051921 -0.013470 -0.007103  0.133952  0.977274 -0.206682
  4H   2s         4.655273 -1.207705 -0.636894  1.423316 -2.723643  0.576018
  4H   3s         1.700022 -0.441032 -0.232582  0.656454  0.137236 -0.029024
  4H   1pz        0.024743  0.001562 -0.000812  0.059055  0.016064  0.024312
  4H   1px        0.021044 -0.007403 -0.010847  0.059055  0.005179 -0.009933
  4H   1py        0.021749 -0.011680  0.002418  0.059055  0.008267 -0.020620
  4H   2pz       -1.694441  0.411413  0.222735 -0.691540  0.552900 -0.171214
  4H   2px       -1.681386  0.443057  0.258156 -0.691540  0.574223 -0.104128
  4H   2py       -1.683875  0.458155  0.211334 -0.691540  0.568173 -0.083193
  4H   1dz2      -0.003183 -0.010563 -0.003237 -0.000000  0.000978  0.004145
  4H   1dxz       0.106050 -0.020068 -0.021159  0.002599 -0.053208 -0.082831
  4H   1dyz       0.106919 -0.025342 -0.004805  0.002599 -0.068603 -0.029552
  4H   1dx2y2     0.000581 -0.003524  0.010929 -0.000000 -0.000280  0.000969
  4H   1dxy       0.102359 -0.036395 -0.017177  0.002599 -0.014337  0.141176
                     36        37        38        39        40        41   
                   2.45835   2.63197   3.17751   3.17751   3.17751   3.20068
                   0.00000   0.00000   0.00000   0.00000   0.00000   0.00000
                  --------  --------  --------  --------  --------  --------
  0C   1s        -0.000000  0.062229  0.000000  0.000000 -0.000000  0.000000
  0C   2s        -0.000000  0.207895  0.000000  0.000000 -0.000000  0.000000
  0C   1pz       -0.001996  0.000000  0.000000  0.000000  0.000000  0.000000
  0C   1px        0.006122 -0.000000  0.000000  0.000000 -0.000000 -0.000000
  0C   1py       -0.005798 -0.000000 -0.000000 -0.000000  0.000000 -0.000000
  0C   3s         0.000000 -2.151794 -0.000000 -0.000000  0.000000 -0.000000
  0C   2pz        0.264134  0.000000 -0.000000 -0.000000 -0.000000 -0.000000
  0C   2px       -0.810019  0.000000 -0.000000 -0.000000  0.000000  0.000000
  0C   2py        0.767173  0.000000  0.000000  0.000000 -0.000000  0.000000
  0C   4s         0.000000 -7.622527 -0.000000 -0.000000  0.000000 -0.000000
  0C   3pz        0.179089  0.000000 -0.000000 -0.000000 -0.000000 -0.000000
  0C   3px       -0.549212 -0.000000 -0.000000 -0.000000  0.000000  0.000000
  0C   3py        0.520162 -0.000000  0.000000  0.000000 -0.000000  0.000000
  0C   1dz2      -0.000000  0.000000  0.000000  0.000000 -0.000000 -0.079721
  0C   1dxz       0.174491 -0.000000 -0.000000 -0.000000  0.000000 -0.000000
  0C   1dyz      -0.184236 -0.000000  0.000000  0.000000 -0.000000 -0.000000
  0C   1dx2y2     0.000000 -0.000000  0.000000 -0.000000  0.000000  0.551261
  0C   1dxy       0.060076  0.000000 -0.000000  0.000000  0.000000  0.000000
  0C   2dz2      -0.000000 -0.000000 -0.000000 -0.000000  0.000000  0.162335
  0C   2dxz       0.294787 -0.000000  0.000000  0.000000 -0.000000  0.000000
  0C   2dyz      -0.311251 -0.000000 -0.000000 -0.000000  0.000000  0.000000
  0C   2dx2y2     0.000000  0.000000 -0.000000  0.000000 -0.000000 -1.122524
  0C   2dxy       0.101494  0.000000 -0.000000 -0.000000 -0.000000 -0.000000
  0C   1f0       -0.084533 -0.000000  0.000000  0.000000  0.000000  0.000000
  0C   1f+1      -0.158749 -0.000000 -0.160760 -0.331194  0.382117 -0.000000
  0C   1f-1       0.150352 -0.000000  0.284208  0.272462  0.355721  0.000000
  0C   1f+2       0.000000 -0.000000  0.529043 -0.395215 -0.119973 -0.000000
  0C   1f-2       0.000000 -0.712920 -0.000000 -0.000000  0.000000 -0.000000
  0C   1f+3      -0.204944 -0.000000  0.124524  0.256542 -0.295987  0.000000
  0C   1f-3      -0.194103  0.000000  0.220146  0.211048  0.275540 -0.000000
  1H   1s         0.155385 -0.558658 -0.000000 -0.000000  0.000000 -0.000000
  1H   2s        -0.433054  2.876101  0.000000  0.000000 -0.000000  0.000000
  1H   3s         0.021820  0.552899  0.000000  0.000000 -0.000000  0.000000
  1H   1pz       -0.003223 -0.052287 -0.023976  0.011407 -0.143303 -0.019305
  1H   1px        0.019374  0.052287 -0.136431  0.007766 -0.050667 -0.125258
  1H   1py       -0.027289  0.052287  0.112455  0.003641 -0.092636  0.105953
  1H   2pz        0.099228 -0.564655  0.046723 -0.022230  0.279262 -0.040114
  1H   2px       -0.130866  0.564655  0.265869 -0.015133  0.098737 -0.260280
  1H   2py       -0.039455  0.564655 -0.219146 -0.007096  0.180525  0.220165
  1H   1dz2      -0.000752  0.000000  0.041567 -0.019776  0.248442  0.052383
  1H   1dxz      -0.121036 -0.053252 -0.119263 -0.003862  0.098245 -0.048470
  1H   1dyz       0.111601 -0.053252  0.144691 -0.008236  0.053735  0.057301
  1H   1dx2y2    -0.004231 -0.000000 -0.249120  0.004128  0.042009 -0.362219
  1H   1dxy      -0.031082  0.053252  0.025428 -0.012098  0.151979  0.008831
  2H   1s        -0.932028 -0.558658 -0.000000 -0.000000  0.000000 -0.000000
  2H   2s         2.597543  2.876101  0.000000  0.000000 -0.000000  0.000000
  2H   3s        -0.130882  0.552899  0.000000  0.000000 -0.000000  0.000000
  2H   1pz        0.019726  0.052287  0.086422  0.117242 -0.005127  0.019305
  2H   1px       -0.003576 -0.052287 -0.026033  0.113601  0.087510  0.125258
  2H   1py        0.004843  0.052287 -0.112455 -0.003641  0.092636  0.105953
  2H   2pz        0.518671  0.564655 -0.168414 -0.228476  0.009990  0.040114
  2H   2px       -0.550309 -0.564655  0.050731 -0.221379 -0.170534  0.260280
  2H   2py        0.547826  0.564655  0.219146  0.007096 -0.180525  0.220165
  2H   1dz2      -0.001625 -0.000000  0.149828  0.203261 -0.008888  0.052383
  2H   1dxz      -0.065908 -0.053252  0.119263  0.003862 -0.098245 -0.048470
  2H   1dyz       0.072227  0.053252  0.027609 -0.120479 -0.092808 -0.057301
  2H   1dx2y2     0.000115  0.000000  0.138618 -0.110063 -0.180315 -0.362219
  2H   1dxy       0.008291 -0.053252 -0.091654 -0.124341  0.005437 -0.008831
  3H   1s         0.664634 -0.558658  0.000000  0.000000 -0.000000  0.000000
  3H   2s        -1.852320  2.876101 -0.000000 -0.000000  0.000000 -0.000000
  3H   3s         0.093332  0.552899  0.000000  0.000000 -0.000000  0.000000
  3H   1pz       -0.027454  0.052287 -0.086422 -0.117242  0.005127  0.019305
  3H   1px        0.004326  0.052287  0.136431 -0.007766  0.050667 -0.125258
  3H   1py       -0.003058 -0.052287  0.050009 -0.125008  0.055794 -0.105953
  3H   2pz       -0.343641  0.564655  0.168414  0.228476 -0.009990  0.040114
  3H   2px       -0.405897  0.564655 -0.265869  0.015133 -0.098737 -0.260280
  3H   2py        0.403414 -0.564655 -0.097455  0.243609 -0.108728 -0.220165
  3H   1dz2       0.003261 -0.000000 -0.149828 -0.203261  0.008888  0.052383
  3H   1dxz      -0.079464  0.053252 -0.053037  0.132576 -0.059172  0.048470
  3H   1dyz       0.085783 -0.053252 -0.144691  0.008236 -0.053735  0.057301
  3H   1dx2y2    -0.000115 -0.000000  0.186615 -0.132898  0.106561 -0.362219
  3H   1dxy      -0.072655 -0.053252  0.091654  0.124341 -0.005437 -0.008831
  4H   1s         0.112010 -0.558658 -0.000000 -0.000000 -0.000000  0.000000
  4H   2s        -0.312169  2.876101  0.000000  0.000000  0.000000 -0.000000
  4H   3s         0.015729  0.552899  0.000000  0.000000 -0.000000  0.000000
  4H   1pz       -0.004505 -0.052287  0.023976 -0.011407  0.143303 -0.019305
  4H   1px        0.027275 -0.052287  0.026033 -0.113601 -0.087510  0.125258
  4H   1py       -0.019388 -0.052287 -0.050009  0.125008 -0.055794 -0.105953
  4H   2pz        0.075802 -0.564655 -0.046723  0.022230 -0.279262 -0.040114
  4H   2px        0.013546 -0.564655 -0.050731  0.221379  0.170534  0.260280
  4H   2py        0.104957 -0.564655  0.097455 -0.243609  0.108728 -0.220165
  4H   1dz2      -0.000885  0.000000 -0.041567  0.019776 -0.248442  0.052383
  4H   1dxz      -0.107480  0.053252  0.053037 -0.132576  0.059172  0.048470
  4H   1dyz       0.125157  0.053252 -0.027609  0.120479  0.092808 -0.057301
[...]
   45. RY (11) H  2             0.00004
   46. RY (12) H  2             0.00004
   47. RY (13) H  2             0.00002
   48. RY ( 1) H  3             0.00135
   49. RY ( 2) H  3             0.00059
   50. RY ( 3) H  3             0.00059
   51. RY ( 4) H  3             0.00025
   52. RY ( 5) H  3             0.00011
   53. RY ( 6) H  3             0.00007
   54. RY ( 7) H  3             0.00007
   55. RY ( 8) H  3             0.00004
   56. RY ( 9) H  3             0.00004
   57. RY (10) H  3             0.00004
   58. RY (11) H  3             0.00004
   59. RY (12) H  3             0.00004
   60. RY (13) H  3             0.00002
   61. RY ( 1) H  4             0.00135
   62. RY ( 2) H  4             0.00059
   63. RY ( 3) H  4             0.00059
   64. RY ( 4) H  4             0.00025
   65. RY ( 5) H  4             0.00011
   66. RY ( 6) H  4             0.00007
   67. RY ( 7) H  4             0.00007
   68. RY ( 8) H  4             0.00004
   69. RY ( 9) H  4             0.00004
   70. RY (10) H  4             0.00004
   71. RY (11) H  4             0.00004
   72. RY (12) H  4             0.00004
   73. RY (13) H  4             0.00002
   74. RY ( 1) H  5             0.00135
   75. RY ( 2) H  5             0.00059
   76. RY ( 3) H  5             0.00059
   77. RY ( 4) H  5             0.00025
   78. RY ( 5) H  5             0.00011
   79. RY ( 6) H  5             0.00007
   80. RY ( 7) H  5             0.00007
   81. RY ( 8) H  5             0.00004
   82. RY ( 9) H  5             0.00004
   83. RY (10) H  5             0.00004
   84. RY (11) H  5             0.00004
   85. RY (12) H  5             0.00004
   86. RY (13) H  5             0.00002
          -------------------------------
                 Total Lewis    4.93693  ( 98.7385%)
           Valence non-Lewis    0.02788  (  0.5575%)
           Rydberg non-Lewis    0.03520  (  0.7040%)
          -------------------------------
               Total unit  1    5.00000  (100.0000%)
              Charge unit  1    0.00000

 $CHOOSE
  ALPHA
   BOND S 1 2 S 1 3 S 1 4 S 1 5 END
  END
  BETA
   BOND S 1 2 S 1 3 S 1 4 S 1 5 END
  END
 $END

 NBO analysis completed in 0.16 CPU seconds (0 wall seconds)
 Maximum scratch memory used by NBO was 457469 words (3.49 MB)
Stopping NBO...Storing NBOs: methane.pmp2re.nbo

                                *** returned from   NBO  program ***


----------------------------------
MP2 DERIVATIVE INTEGRAL GENERATION
----------------------------------


Input Wavefunction Amplitudes       ... methane.mp2tbb.tmp
Input Correlated Electron Density   ... methane.pmp2re
Input Energy Weighted Density       ... methane.wmp2.tmp
Input SCF Electron Density          ... methane.scfp

One-Electron Terms    ...
                        ... One-Electron Terms done
Prescreening matrices              ... done

Batch handling in the gradient evaluation:
Memory available                      ... 3000.0 MB
Memory per occupied orbital in Q2     ...    0.6 MB
Memory per occupied orbital in Q3     ...    0.0 MB
Total memory requirement per |i>      ...    0.6 MB
Max. Number of orbitals possible      ...   5030
Number of orbitals treated per batch  ...     10
Number of batches to be done          ...      1
Batch   0: i=    0 ...     9

---------------------------------------
MP2 TOTAL ENERGY:      -40.431914449 Eh
---------------------------------------

-----------------------------------
NORM OF THE MP2 GRADIENT:  0.000001
-----------------------------------

-------------------------   --------------------
FINAL SINGLE POINT ENERGY       -40.431914449080
-------------------------   --------------------

                                *** OPTIMIZATION RUN DONE ***

                            ***************************************
                            *     ORCA property calculations      *
                            ***************************************

                                    ---------------------
                                    Active property flags
                                    ---------------------
   (+) Dipole Moment


------------------------------------------------------------------------------
                       ORCA ELECTRIC PROPERTIES CALCULATION
------------------------------------------------------------------------------

Dipole Moment Calculation                       ... on
Quadrupole Moment Calculation                   ... off
Polarizability Calculation                      ... off
GBWName                                         ... methane.gbw
Electron density file                           ... methane.scfp
The origin for moment calculation is the CENTER OF MASS  = ( 0.000000,  0.000000 -0.000000)

-------------
DIPOLE MOMENT
-------------
                                X             Y             Z
Electronic contribution:      0.00000       0.00000      -0.00000
Nuclear contribution   :     -0.00000      -0.00000       0.00000
                        -----------------------------------------
Total Dipole Moment    :      0.00000      -0.00000       0.00000
                        -----------------------------------------
Magnitude (a.u.)       :      0.00000
Magnitude (Debye)      :      0.00000



--------------------
Rotational spectrum 
--------------------
 
Rotational constants in cm-1:     5.336451     5.336451     5.336451 
Rotational constants in MHz : 159982.779538 159982.779530 159982.779525 

 Dipole components along the rotational axes: 
x,y,z [a.u.] :    -0.000000     0.000000    -0.000000 
x,y,z [Debye]:    -0.000000     0.000000    -0.000000 

 

                         *** MP2 UNRELAXED DENSITY ***

------------------------------------------------------------------------------
                       ORCA ELECTRIC PROPERTIES CALCULATION
------------------------------------------------------------------------------

Dipole Moment Calculation                       ... on
Quadrupole Moment Calculation                   ... off
Polarizability Calculation                      ... off
GBWName                                         ... methane.gbw
Electron density file                           ... methane.pmp2ur
The origin for moment calculation is the CENTER OF MASS  = ( 0.000000,  0.000000 -0.000000)

-------------
DIPOLE MOMENT
-------------
                                X             Y             Z
Electronic contribution:      0.00000       0.00000      -0.00000
Nuclear contribution   :     -0.00000      -0.00000       0.00000
                        -----------------------------------------
Total Dipole Moment    :      0.00000      -0.00000       0.00000
                        -----------------------------------------
Magnitude (a.u.)       :      0.00000
Magnitude (Debye)      :      0.00000



--------------------
Rotational spectrum 
--------------------
 
Rotational constants in cm-1:     5.336451     5.336451     5.336451 
Rotational constants in MHz : 159982.779538 159982.779530 159982.779525 

 Dipole components along the rotational axes: 
x,y,z [a.u.] :    -0.000000     0.000000    -0.000000 
x,y,z [Debye]:    -0.000000     0.000000    -0.000000 

 

                           *** MP2 RELAXED DENSITY ***

------------------------------------------------------------------------------
                       ORCA ELECTRIC PROPERTIES CALCULATION
------------------------------------------------------------------------------

Dipole Moment Calculation                       ... on
Quadrupole Moment Calculation                   ... off
Polarizability Calculation                      ... off
GBWName                                         ... methane.gbw
Electron density file                           ... methane.pmp2re
The origin for moment calculation is the CENTER OF MASS  = ( 0.000000,  0.000000 -0.000000)

-------------
DIPOLE MOMENT
-------------
                                X             Y             Z
Electronic contribution:      0.00000       0.00000      -0.00000
Nuclear contribution   :     -0.00000      -0.00000       0.00000
                        -----------------------------------------
Total Dipole Moment    :      0.00000      -0.00000       0.00000
                        -----------------------------------------
Magnitude (a.u.)       :      0.00000
Magnitude (Debye)      :      0.00000



--------------------
Rotational spectrum 
--------------------
 
Rotational constants in cm-1:     5.336451     5.336451     5.336451 
Rotational constants in MHz : 159982.779538 159982.779530 159982.779525 

 Dipole components along the rotational axes: 
x,y,z [a.u.] :    -0.000000     0.000000     0.000000 
x,y,z [Debye]:    -0.000000     0.000000     0.000000 

 
------------------------------------------------------------------------------
                         ORCA MP2 H E S S I A N CALCULATION
------------------------------------------------------------------------------

Calculating analytic MP2 second derivatives ... (>methane.last_mp2) done

-----------------------
VIBRATIONAL FREQUENCIES
-----------------------

Scaling factor for frequencies =  1.000000000  (already applied!)

   0:         0.00 cm**-1
   1:         0.00 cm**-1
   2:         0.00 cm**-1
   3:         0.00 cm**-1
   4:         0.00 cm**-1
   5:         0.00 cm**-1
   6:      1350.43 cm**-1
   7:      1350.43 cm**-1
   8:      1350.43 cm**-1
   9:      1590.46 cm**-1
  10:      1590.46 cm**-1
  11:      3084.07 cm**-1
  12:      3221.00 cm**-1
  13:      3221.00 cm**-1
  14:      3221.00 cm**-1


------------
NORMAL MODES
------------

These modes are the Cartesian displacements weighted by the diagonal matrix
M(i,i)=1/sqrt(m[i]) where m[i] is the mass of the displaced atom
Thus, these vectors are normalized but *not* orthogonal

                  0          1          2          3          4          5    
      0       0.000000   0.000000   0.000000   0.000000   0.000000   0.000000
      1       0.000000   0.000000   0.000000   0.000000   0.000000   0.000000
      2       0.000000   0.000000   0.000000   0.000000   0.000000   0.000000
      3       0.000000   0.000000   0.000000   0.000000   0.000000   0.000000
      4       0.000000   0.000000   0.000000   0.000000   0.000000   0.000000
      5       0.000000   0.000000   0.000000   0.000000   0.000000   0.000000
      6       0.000000   0.000000   0.000000   0.000000   0.000000   0.000000
      7       0.000000   0.000000   0.000000   0.000000   0.000000   0.000000
      8       0.000000   0.000000   0.000000   0.000000   0.000000   0.000000
      9       0.000000   0.000000   0.000000   0.000000   0.000000   0.000000
     10       0.000000   0.000000   0.000000   0.000000   0.000000   0.000000
     11       0.000000   0.000000   0.000000   0.000000   0.000000   0.000000
     12       0.000000   0.000000   0.000000   0.000000   0.000000   0.000000
     13       0.000000   0.000000   0.000000   0.000000   0.000000   0.000000
     14       0.000000   0.000000   0.000000   0.000000   0.000000   0.000000
                  6          7          8          9         10         11    
      0       0.011868   0.009265  -0.123823   0.000000  -0.000000   0.000000
      1      -0.091924  -0.082965  -0.015018   0.000000  -0.000000   0.000000
      2       0.083474  -0.092681   0.001066   0.000000  -0.000000  -0.000000
      3      -0.362181  -0.009496   0.338888   0.405834  -0.044329  -0.288675
      4       0.140406   0.437107  -0.187974  -0.241307  -0.329299  -0.288675
      5      -0.099491   0.413418   0.255533   0.164527  -0.373627   0.288675
      6      -0.019609   0.299691   0.394855  -0.405835   0.044329   0.288675
      7       0.407261   0.057188   0.277449  -0.241307  -0.329299  -0.288675
      8      -0.442063   0.104231   0.199565  -0.164527   0.373627  -0.288675
      9       0.291474  -0.045701   0.398829   0.405834  -0.044329  -0.288675
     10       0.096178   0.402580   0.273476   0.241307   0.329299   0.288675
     11      -0.055263   0.447944  -0.205917  -0.164527   0.373627  -0.288675
     12      -0.051098  -0.354888   0.342861  -0.405835   0.044329   0.288675
     13       0.451489   0.091714  -0.184001   0.241307   0.329299   0.288675
     14      -0.397835   0.138758  -0.261885   0.164527  -0.373627   0.288675
                  12         13         14    
      0       0.092281  -0.000754   0.000090
      1       0.000469   0.065156   0.065351
      2      -0.000597  -0.065348   0.065158
      3      -0.278286  -0.412828  -0.000883
      4      -0.296797  -0.399540   0.012275
      5       0.296771   0.399501   0.014037
      6      -0.275305   0.001633   0.414820
      7       0.294004   0.011351  -0.401626
      8       0.293789  -0.014960  -0.401665
      9      -0.271506   0.417319   0.000349
     10       0.290206  -0.404335   0.012845
     11      -0.290232   0.404296   0.013467
     12      -0.274488   0.002858  -0.415354
     13      -0.292999   0.016146  -0.402196
     14      -0.293214  -0.010165  -0.402235


-----------
IR SPECTRUM
-----------

 Mode    freq (cm**-1)   T**2         TX         TY         TZ
-------------------------------------------------------------------
   6:      1350.43   11.274717  ( -0.319475   2.474531  -2.247076)
   7:      1350.43   11.274735  ( -0.249395   2.233380   2.494905)
   8:      1350.43   11.274730  (  3.333237   0.404275  -0.028701)
   9:      1590.46    0.000000  ( -0.000001  -0.000000  -0.000000)
  10:      1590.46    0.000000  (  0.000000   0.000000   0.000000)
  11:      3084.07    0.000000  ( -0.000001   0.000000  -0.000000)
  12:      3221.00   16.321339  (  4.039831   0.020521  -0.026139)
  13:      3221.00   16.321311  ( -0.033000   2.852373  -2.860802)
  14:      3221.00   16.321347  (  0.003924   2.860922   2.852448)

The first frequency considered to be a vibration is 6
The total number of vibrations considered is 9


--------------------------
THERMOCHEMISTRY AT 298.15K
--------------------------

Temperature         ... 298.15 K
Pressure            ... 1.00 atm
Total Mass          ... 16.04 AMU

Throughout the following assumptions are being made:
  (1) The electronic state is orbitally nondegenerate
  (2) There are no thermally accessible electronically excited states
  (3) Hindered rotations indicated by low frequency modes are not
      treated as such but are treated as vibrations and this may
      cause some error
  (4) All equations used are the standard statistical mechanics
      equations for an ideal gas
  (5) All vibrations are strictly harmonic

freq.    1350.43  E(vib)   ...       0.01 
freq.    1350.43  E(vib)   ...       0.01 
freq.    1350.43  E(vib)   ...       0.01 
freq.    1590.46  E(vib)   ...       0.00 
freq.    1590.46  E(vib)   ...       0.00 
freq.    3084.07  E(vib)   ...       0.00 
freq.    3221.00  E(vib)   ...       0.00 
freq.    3221.00  E(vib)   ...       0.00 
freq.    3221.00  E(vib)   ...       0.00 

------------
INNER ENERGY
------------

The inner energy is: U= E(el) + E(ZPE) + E(vib) + E(rot) + E(trans)
    E(el)   - is the total energy from the electronic structure calculation
              = E(kin-el) + E(nuc-el) + E(el-el) + E(nuc-nuc)
    E(ZPE)  - the the zero temperature vibrational energy from the frequency calculation
    E(vib)  - the the finite temperature correction to E(ZPE) due to population
              of excited vibrational states
    E(rot)  - is the rotational thermal energy
    E(trans)- is the translational thermal energy

Summary of contributions to the inner energy U:
Electronic energy                ...    -40.43191445 Eh
Zero point energy                ...      0.04551616 Eh      28.56 kcal/mol
Thermal vibrational correction   ...      0.00003408 Eh       0.02 kcal/mol
Thermal rotational correction    ...      0.00141627 Eh       0.89 kcal/mol
Thermal translational correction ...      0.00141627 Eh       0.89 kcal/mol
-----------------------------------------------------------------------
Total thermal energy                    -40.38353166 Eh


Summary of corrections to the electronic energy:
(perhaps to be used in another calculation)
Total thermal correction                  0.00286663 Eh       1.80 kcal/mol
Non-thermal (ZPE) correction              0.04551616 Eh      28.56 kcal/mol
-----------------------------------------------------------------------
Total correction                          0.04838279 Eh      30.36 kcal/mol


--------
ENTHALPY
--------

The enthalpy is H = U + kB*T
                kB is Boltzmann's constant
Total free energy                 ...    -40.38353166 Eh 
Thermal Enthalpy correction       ...      0.00094421 Eh       0.59 kcal/mol
-----------------------------------------------------------------------
Total Enthalpy                    ...    -40.38258745 Eh


Note: Rotational entropy computed according to Herzberg 
Infrared and Raman Spectra, Chapter V,1, Van Nostrand Reinhold, 1945 
Point Group:  Td, Symmetry Number:  12  
Rotational constants in cm-1:     5.336451     5.336451     5.336451 

Vibrational entropy computed according to the QRRHO of S. Grimme
Chem.Eur.J. 2012 18 9955


-------
ENTROPY
-------

The entropy contributions are T*S = T*(S(el)+S(vib)+S(rot)+S(trans))
     S(el)   - electronic entropy
     S(vib)  - vibrational entropy
     S(rot)  - rotational entropy
     S(trans)- translational entropy
The entropies will be listed as mutliplied by the temperature to get
units of energy

Electronic entropy                ...      0.00000000 Eh      0.00 kcal/mol
Vibrational entropy               ...      0.00003916 Eh      0.02 kcal/mol
Rotational entropy                ...      0.00479298 Eh      3.01 kcal/mol
Translational entropy             ...      0.01627961 Eh     10.22 kcal/mol
-----------------------------------------------------------------------
Final entropy term                ...      0.02111175 Eh     13.25 kcal/mol

In case the symmetry of your molecule has not been determined correctly
or in case you have a reason to use a different symmetry number we print 
out the resulting rotational entropy values for sn=1,12 :
 --------------------------------------------------------
|  sn= 1 | S(rot)=       0.00713918 Eh      4.48 kcal/mol|
|  sn= 2 | S(rot)=       0.00648472 Eh      4.07 kcal/mol|
|  sn= 3 | S(rot)=       0.00610189 Eh      3.83 kcal/mol|
|  sn= 4 | S(rot)=       0.00583026 Eh      3.66 kcal/mol|
|  sn= 5 | S(rot)=       0.00561958 Eh      3.53 kcal/mol|
|  sn= 6 | S(rot)=       0.00544743 Eh      3.42 kcal/mol|
|  sn= 7 | S(rot)=       0.00530189 Eh      3.33 kcal/mol|
|  sn= 8 | S(rot)=       0.00517581 Eh      3.25 kcal/mol|
|  sn= 9 | S(rot)=       0.00506460 Eh      3.18 kcal/mol|
|  sn=10 | S(rot)=       0.00496512 Eh      3.12 kcal/mol|
|  sn=11 | S(rot)=       0.00487513 Eh      3.06 kcal/mol|
|  sn=12 | S(rot)=       0.00479298 Eh      3.01 kcal/mol|
 --------------------------------------------------------


-------------------
GIBBS FREE ENERGY
-------------------

The Gibbs free energy is G = H - T*S

Total enthalpy                    ...    -40.38258745 Eh 
Total entropy correction          ...     -0.02111175 Eh    -13.25 kcal/mol
-----------------------------------------------------------------------
Final Gibbs free energy         ...    -40.40369920 Eh

For completeness - the Gibbs free energy minus the electronic energy
G-E(el)                           ...      0.02821525 Eh     17.71 kcal/mol


Timings for individual modules:

Sum of individual times         ...      148.826 sec (=   2.480 min)
GTO integral calculation        ...        2.126 sec (=   0.035 min)   1.4 %
SCF iterations                  ...       10.641 sec (=   0.177 min)   7.1 %
MP2 module                      ...       18.560 sec (=   0.309 min)  12.5 %
Geometry relaxation             ...        0.028 sec (=   0.000 min)   0.0 %
Analytical frequency calculation...      117.471 sec (=   1.958 min)  78.9 %
                             ****ORCA TERMINATED NORMALLY****
TOTAL RUN TIME: 0 days 0 hours 2 minutes 29 seconds 600 msec
