
                                 *****************
                                 * O   R   C   A *
                                 *****************

           --- An Ab Initio, DFT and Semiempirical electronic structure package ---

                  #######################################################
                  #                        -***-                        #
                  #          Department of theory and spectroscopy      #
                  #               Directorship: Frank Neese             #
                  #        Max Planck Institute fuer Kohlenforschung    #
                  #                Kaiser Wilhelm Platz 1               #
                  #                 D-45470 Muelheim/Ruhr               #
                  #                      Germany                        #
                  #                                                     #
                  #                  All rights reserved                #
                  #                        -***-                        #
                  #######################################################


                         Program Version 4.2.1 -  RELEASE  -


 With contributions from (in alphabetic order):
   Daniel Aravena         : Magnetic Suceptibility
   Michael Atanasov       : Ab Initio Ligand Field Theory (pilot matlab implementation)
   Alexander A. Auer      : GIAO ZORA, VPT2
   Ute Becker             : Parallelization
   Giovanni Bistoni       : ED, misc. LED, open-shell LED, HFLD
   Martin Brehm           : Molecular dynamics
   Dmytro Bykov           : SCF Hessian
   Vijay G. Chilkuri      : MRCI spin determinant printing, contributions to CSF-ICE
   Dipayan Datta          : RHF DLPNO-CCSD density
   Achintya Kumar Dutta   : EOM-CC, STEOM-CC
   Dmitry Ganyushin       : Spin-Orbit,Spin-Spin,Magnetic field MRCI
   Miquel Garcia          : C-PCM Hessian, Gaussian charge scheme
   Yang Guo               : DLPNO-NEVPT2, CIM, IAO-localization
   Andreas Hansen         : Spin unrestricted coupled pair/coupled cluster methods
   Benjamin Helmich-Paris : CASSCF linear response (MC-RPA)
   Lee Huntington         : MR-EOM, pCC
   Robert Izsak           : Overlap fitted RIJCOSX, COSX-SCS-MP3, EOM
   Christian Kollmar      : KDIIS, OOCD, Brueckner-CCSD(T), CCSD density
   Simone Kossmann        : Meta GGA functionals, TD-DFT gradient, OOMP2, MP2 Hessian
   Martin Krupicka        : AUTO-CI
   Lucas Lang             : DCDCAS
   Dagmar Lenk            : GEPOL surface, SMD
   Dimitrios Liakos       : Extrapolation schemes; Compound Job, initial MDCI parallelization
   Dimitrios Manganas     : Further ROCIS development; embedding schemes
   Dimitrios Pantazis     : SARC Basis sets
   Taras Petrenko         : DFT Hessian,TD-DFT gradient, ASA, ECA, R-Raman, ABS, FL, XAS/XES, NRVS
   Peter Pinski           : DLPNO-MP2, DLPNO-MP2 Gradient
   Christoph Reimann      : Effective Core Potentials
   Marius Retegan         : Local ZFS, SOC
   Christoph Riplinger    : Optimizer, TS searches, QM/MM, DLPNO-CCSD(T), (RO)-DLPNO pert. Triples
   Tobias Risthaus        : Range-separated hybrids, TD-DFT gradient, RPA, STAB
   Michael Roemelt        : Original ROCIS implementation
   Masaaki Saitow         : Open-shell DLPNO-CCSD energy and density
   Barbara Sandhoefer     : DKH picture change effects
   Avijit Sen             : IP-ROCIS
   Kantharuban Sivalingam : CASSCF convergence, NEVPT2, FIC-MRCI
   Bernardo de Souza      : ESD, SOC TD-DFT
   Georgi Stoychev        : AutoAux, RI-MP2 NMR
   Willem Van den Heuvel  : Paramagnetic NMR
   Boris Wezisla          : Elementary symmetry handling
   Frank Wennmohs         : Technical directorship


 We gratefully acknowledge several colleagues who have allowed us to
 interface, adapt or use parts of their codes:
   Stefan Grimme, W. Hujo, H. Kruse,             : VdW corrections, initial TS optimization,
                  C. Bannwarth                     DFT functionals, gCP, sTDA/sTD-DF
   Ed Valeev, F. Pavosevic, A. Kumar             : LibInt (2-el integral package), F12 methods
   Garnet Chan, S. Sharma, J. Yang, R. Olivares  : DMRG
   Ulf Ekstrom                                   : XCFun DFT Library
   Mihaly Kallay                                 : mrcc  (arbitrary order and MRCC methods)
   Andreas Klamt, Michael Diedenhofen            : otool_cosmo (COSMO solvation model)
   Jiri Pittner, Ondrej Demel                    : Mk-CCSD
   Frank Weinhold                                : gennbo (NPA and NBO analysis)
   Christopher J. Cramer and Donald G. Truhlar   : smd solvation model
   Lars Goerigk                                  : TD-DFT with DH, B97 family of functionals
   V. Asgeirsson, H. Jonsson                     : NEB implementation
   FAccTs GmbH                                   : IRC, NEB, NEB-TS, Multilevel, MM, QM/MM, CI optimization
   S Lehtola, MJT Oliveira, MAL Marques          : LibXC Library


 Your calculation uses the libint2 library for the computation of 2-el integrals
 For citations please refer to: http://libint.valeyev.net

 Your ORCA version has been built with support for libXC version: 4.2.3
 For citations please refer to: https://tddft.org/programs/libxc/

 This ORCA versions uses:
   CBLAS   interface :  Fast vector & matrix operations
   LAPACKE interface :  Fast linear algebra routines
   SCALAPACK package :  Parallel linear algebra routines




***************************************
The coordinates will be read from file: init.xyz
***************************************


Your calculation utilizes the SMD solvation module
Please cite in your paper:
A.V. Marenich, C.J. Cramer, D.G. Truhlar J. Phys. Chem. B, 113, (2009), 6378 

Your calculation utilizes the semiempirical GFN2-xTB method
Please cite in your paper:
C. Bannwarth, Ehlert S., S. Grimme,  J. Chem. Theory Comput., 15, (2019), 1652.
   

Your calculation utilizes a Nudged-Elastic-Band implementation
 by V.Asgeirsson, C. Riplinger & H. Jonsson
Please cite in your paper:
 V. Asgeirsson et al., in prep. (2019)
   

----- Orbital basis set information -----
Your calculation utilizes the basis: def2-SVP
   F. Weigend and R. Ahlrichs, Phys. Chem. Chem. Phys. 7, 3297 (2005).

================================================================================
                                        WARNINGS
                       Please study these warnings very carefully!
================================================================================


WARNING: The environment variable RSH_COMMAND is not set!
  ===> : All Displacements for the Numerical Hessian calculation
         will be started on localhost

WARNING: Geometry Optimization
  ===> : Switching off AutoStart
         For restart on a previous wavefunction, please use MOREAD

WARNING: Found dipole moment calculation with XTB calculation
  ===> : Switching off dipole moment calculation


INFO   : the flag for use of LIBINT has been found!

================================================================================
                                       INPUT FILE
================================================================================
NAME = optts+freq.inp
|  1> ! XTB2 NEB-TS NumFreq IRC
|  2> 
|  3> %neb
|  4>  neb_ts_xyzfile "guess.xyz"
|  5>  neb_end_xyzfile "final.xyz"
|  6> 
|  7>  interpolation XTB2TS
|  8>  # interpolation XTB2
|  9>  preopt_ends true
| 10>  reparam 35
| 11>  nimages 10
| 12> end
| 13> 
| 14> %geom
| 15>  maxiter 1000
| 16> end
| 17> 
| 18> %irc
| 19>  maxiter 1000
| 20>  de_init_displ 0.25
| 21>  TolMAXG 1e-3
| 22>  TolRMSG 2e-4
| 23> end
| 24> 
| 25> *xyzfile 0 1 init.xyz
| 26> 
| 27> %pal
| 28>  nprocs 12
| 29> end
| 30> 
| 31> %cpcm
| 32>  smd true
| 33>  smdsolvent "ch2cl2"
| 34> end
| 35> 
| 36> 
| 37>                          ****END OF INPUT****
================================================================================


------------------------------------------------------------------------------- 
                         Nudged Elastic Band Calculation                       
------------------------------------------------------------------------------- 

Number of images (incl. end points)     ....  12
Number of intermediate images           ....  10
Number of optimized images              ....  10
Optimization of end points before NEB   ....  YES
Use existing gbw files for MO input     ....  NO
Number of atoms                         ....  30
Number of (active) degrees of freedom   ....  90
Constrained atoms                       ....  None


Before the actual NEB run reactant and product are preoptimized.

---------------------------------------------------------------
                        REACTANT OPTIMIZATION            
---------------------------------------------------------------

Geometry optimization settings:
Update method            Update   .... BFGS
Choice of coordinates    CoordSys .... Z-matrix Internals
Initial Hessian          InHess   .... Almoef's Model

Convergence Tolerances:
Energy Change            TolE     ....  5.0000e-06 Eh
Max. Gradient            TolMAXG  ....  3.0000e-04 Eh/bohr
RMS Gradient             TolRMSG  ....  1.0000e-04 Eh/bohr
Max. Displacement        TolMAXD  ....  4.0000e-03 bohr
RMS Displacement         TolRMSD  ....  2.0000e-03 bohr
Strict Convergence                ....  False
------------------------------------------------------------------------------
                        ORCA OPTIMIZATION COORDINATE SETUP
------------------------------------------------------------------------------

The optimization will be done in new redundant internal coordinates
Making redundant internal coordinates   ...  (new redundants) done
Evaluating the initial hessian          ...  (Almloef) done
Evaluating the coordinates              ...  done
Calculating the B-matrix                .... done
Calculating the G-matrix                .... done
Diagonalizing the G-matrix              .... done
Small eigenvalue found = 1.154e-02
The first mode is                       ....  152
The number of degrees of freedom        ....   84

    -----------------------------------------------------------------
                    Redundant Internal Coordinates


    -----------------------------------------------------------------
         Definition                    Initial Value    Approx d2E/dq
    -----------------------------------------------------------------
      1. B(C   1,C   0)                  1.3960         0.611199   
      2. B(C   2,C   1)                  1.3960         0.611149   
      3. B(C   3,C   2)                  1.3958         0.611723   
      4. B(C   4,C   3)                  1.3952         0.612988   
      5. B(C   5,C   0)                  1.3979         0.606930   
      6. B(C   5,C   4)                  1.3976         0.607654   
      7. B(H   6,C   0)                  1.0868         0.364298   
      8. B(H   7,C   1)                  1.0872         0.363805   
      9. B(H   8,C   2)                  1.0875         0.363478   
     10. B(H   9,C   3)                  1.0871         0.363928   
     11. B(H  10,C   4)                  1.0878         0.362991   
     12. B(C  11,C   5)                  1.4770         0.453897   
     13. B(O  12,C  11)                  1.2263         1.021024   
     14. B(H  13,C  11)                  1.1027         0.343670   
     15. B(N  14,H  13)                  2.9975         0.000292   
     16. B(N  14,C   0)                  3.5717         0.000185   
     17. B(N  14,C   5)                  3.6134         0.000159   
     18. B(N  14,H   6)                  3.2872         0.000101   
     19. B(N  14,C  11)                  3.3533         0.000413   
     20. B(C  15,N  14)                  1.4593         0.433897   
     21. B(C  15,H  13)                  3.5366         0.000045   
     22. B(C  16,H  13)                  3.6065         0.000035   
     23. B(C  16,C  15)                  1.5282         0.376070   
     24. B(H  17,H  13)                  3.4536         0.000012   
     25. B(H  17,C  15)                  1.0951         0.353473   
     26. B(H  18,C  15)                  1.0956         0.352782   
     27. B(C  19,C  16)                  1.5293         0.374522   
     28. B(H  20,C  16)                  1.0975         0.350362   
     29. B(H  21,H  13)                  2.7919         0.000133   
     30. B(H  21,C  16)                  1.0971         0.350862   
     31. B(H  21,O  12)                  3.2803         0.000103   
     32. B(H  21,C  11)                  3.2341         0.000137   
     33. B(H  22,C   0)                  3.5971         0.000036   
     34. B(H  22,N  14)                  1.0197         0.417619   
     35. B(H  22,H   6)                  3.2397         0.000026   
     36. B(H  23,N  14)                  1.0212         0.415253   
     37. B(H  23,H  13)                  3.4883         0.000010   
     38. B(H  23,C  11)                  3.5517         0.000043   
     39. B(C  24,C  19)                  1.5203         0.387166   
     40. B(H  25,C  19)                  1.0963         0.351854   
     41. B(H  26,C  19)                  1.0962         0.351963   
     42. B(H  27,C  24)                  1.0946         0.354113   
     43. B(H  28,C  24)                  1.0946         0.354106   
     44. B(H  29,C  24)                  1.0947         0.353900   
     45. A(C   5,C   0,H   6)          120.7612         0.352329   
     46. A(C   1,C   0,N  14)          124.8412         0.143326   
     47. A(C   1,C   0,C   5)          119.6435         0.431296   
     48. A(C   5,C   0,N  14)           80.4636         0.143240   
     49. A(H   6,C   0,N  14)           66.2018         0.130793   
     50. A(C   1,C   0,H   6)          119.5943         0.352747   
     51. A(C   0,C   1,C   2)          120.0377         0.431834   
     52. A(C   2,C   1,H   7)          119.9183         0.352662   
     53. A(C   0,C   1,H   7)          120.0439         0.352666   
     54. A(C   1,C   2,H   8)          119.9523         0.352608   
     55. A(C   3,C   2,H   8)          119.8527         0.352664   
     56. A(C   1,C   2,C   3)          120.1949         0.431900   
     57. A(C   2,C   3,C   4)          119.9968         0.432133   
     58. A(C   2,C   3,H   9)          120.1065         0.352738   
     59. A(C   4,C   3,H   9)          119.8967         0.352861   
     60. A(C   3,C   4,C   5)          119.7355         0.431615   
     61. A(C   3,C   4,H  10)          120.0162         0.352707   
     62. A(C   5,C   4,H  10)          120.2481         0.352186   
     63. A(C   0,C   5,N  14)           77.1087         0.141391   
     64. A(C   4,C   5,N  14)          126.3489         0.141405   
     65. A(C   0,C   5,C   4)          120.3912         0.430846   
     66. A(C  11,C   5,N  14)           68.0280         0.138056   
     67. A(C   0,C   5,C  11)          119.4077         0.409003   
     68. A(C   4,C   5,C  11)          120.2011         0.409089   
     69. A(C   5,C  11,N  14)           87.8634         0.149901   
     70. A(C   5,C  11,H  13)          116.5487         0.332338   
     71. A(C   5,C  11,O  12)          122.1042         0.446022   
     72. A(H  13,C  11,N  14)           61.9705         0.138458   
     73. A(O  12,C  11,H  13)          121.3431         0.378941   
     74. A(O  12,C  11,N  14)          119.3062         0.161565   
     75. A(C   5,N  14,H  23)           87.8186         0.130098   
     76. A(C   5,N  14,H  22)          103.9401         0.130151   
     77. A(C   5,N  14,C  15)          136.0652         0.137159   
     78. A(C   0,N  14,H  23)          101.7757         0.131548   
     79. A(C   0,N  14,C  15)          141.0539         0.138859   
     80. A(C   0,N  14,H  22)           83.2380         0.131603   
     81. A(C   5,N  14,C  11)           24.1086         0.098971   
     82. A(C  11,N  14,H  23)           92.7405         0.140021   
     83. A(C   0,N  14,C   5)           22.4277         0.097315   
     84. A(H  22,N  14,H  23)          105.7696         0.299571   
     85. A(C  15,N  14,H  23)          109.4020         0.335433   
     86. A(C   0,N  14,C  11)           41.8669         0.099323   
     87. A(C  15,N  14,H  22)          109.1850         0.335750   
     88. A(C  11,N  14,H  22)          124.8845         0.140087   
     89. A(C  11,N  14,C  15)          112.5084         0.148787   
     90. A(H  17,C  15,H  18)          107.7853         0.289061   
     91. A(C  16,C  15,H  18)          109.8872         0.323581   
     92. A(N  14,C  15,H  18)          109.2284         0.329306   
     93. A(C  16,C  15,H  17)          110.3100         0.323685   
     94. A(N  14,C  15,H  17)          108.8398         0.329412   
     95. A(N  14,C  15,C  16)          110.7277         0.370895   
     96. A(C  15,C  16,H  21)          110.0303         0.323291   
     97. A(C  19,C  16,H  20)          109.4951         0.322997   
     98. A(C  15,C  16,H  20)          109.7184         0.323216   
     99. A(C  15,C  16,C  19)          111.0372         0.363923   
    100. A(H  20,C  16,H  21)          107.0822         0.288414   
    101. A(C  19,C  16,H  21)          109.3916         0.323073   
    102. A(H  25,C  19,H  26)          107.2096         0.288748   
    103. A(C  24,C  19,H  26)          109.0785         0.325006   
    104. A(C  16,C  19,H  26)          109.9564         0.323239   
    105. A(C  24,C  19,H  25)          109.1602         0.324989   
    106. A(C  16,C  19,H  25)          109.7118         0.323222   
    107. A(C  16,C  19,C  24)          111.6168         0.365738   
    108. A(H  28,C  24,H  29)          108.0316         0.289285   
    109. A(H  27,C  24,H  29)          108.3339         0.289286   
    110. A(C  19,C  24,H  29)          110.9496         0.325299   
    111. A(H  27,C  24,H  28)          108.1103         0.289313   
    112. A(C  19,C  24,H  28)          110.2294         0.325330   
    113. A(C  19,C  24,H  27)          111.0794         0.325331   
    114. D(C   2,C   1,C   0,N  14)     99.3218         0.030137   
    115. D(H   7,C   1,C   0,N  14)    -80.6070         0.030137   
    116. D(H   7,C   1,C   0,C   5)    179.9611         0.030137   
    117. D(C   2,C   1,C   0,H   6)    179.5298         0.030137   
    118. D(C   2,C   1,C   0,C   5)     -0.1100         0.030137   
    119. D(H   7,C   1,C   0,H   6)     -0.3990         0.030137   
    120. D(C   3,C   2,C   1,H   7)    179.9911         0.025801   
    121. D(H   8,C   2,C   1,C   0)   -179.9247         0.025801   
    122. D(C   3,C   2,C   1,C   0)      0.0621         0.025801   
    123. D(H   8,C   2,C   1,H   7)      0.0042         0.025801   
    124. D(H   9,C   3,C   2,H   8)      0.0379         0.025853   
    125. D(C   4,C   3,C   2,C   1)      0.0763         0.025853   
    126. D(C   4,C   3,C   2,H   8)   -179.9369         0.025853   
    127. D(H   9,C   3,C   2,C   1)   -179.9489         0.025853   
    128. D(C   5,C   4,C   3,C   2)     -0.1652         0.025966   
    129. D(H  10,C   4,C   3,H   9)     -0.0100         0.025966   
    130. D(H  10,C   4,C   3,C   2)    179.9648         0.025966   
    131. D(C   5,C   4,C   3,H   9)    179.8599         0.025966   
    132. D(C   0,C   5,C   4,H  10)    179.9868         0.027694   
    133. D(C  11,C   5,C   4,C   3)   -179.9566         0.027694   
    134. D(N  14,C   5,C   0,C   1)    124.8161         0.031647   
    135. D(C  11,C   5,C   0,N  14)     55.2775         0.031647   
    136. D(C  11,C   5,C   4,H  10)     -0.0870         0.027694   
    137. D(C  11,C   5,C   0,C   1)   -179.9063         0.031647   
    138. D(C   4,C   5,C   0,H   6)   -179.6152         0.031647   
    139. D(N  14,C   5,C   0,H   6)    -54.8194         0.031647   
    140. D(C   4,C   5,C   0,N  14)   -124.7957         0.031647   
    141. D(N  14,C   5,C   4,C   3)    -96.2249         0.027694   
    142. D(C  11,C   5,C   0,H   6)      0.4581         0.031647   
    143. D(C   0,C   5,C   4,C   3)      0.1172         0.027694   
    144. D(C   4,C   5,C   0,C   1)      0.0204         0.031647   
    145. D(N  14,C   5,C   4,H  10)     83.6447         0.027694   
    146. D(N  14,C  11,C   5,C   4)    120.3094         0.018278   
    147. D(O  12,C  11,C   5,N  14)   -123.6992         0.018278   
    148. D(H  13,C  11,C   5,C   4)    177.3309         0.018278   
    149. D(H  13,C  11,C   5,C   0)     -2.7422         0.018278   
    150. D(N  14,C  11,C   5,C   0)    -59.7637         0.018278   
    151. D(O  12,C  11,C   5,C   4)     -3.3898         0.018278   
    152. D(O  12,C  11,C   5,C   0)    176.5371         0.018278   
    153. D(H  13,C  11,C   5,N  14)     57.0215         0.018278   
    154. D(H  23,N  14,C   5,C   4)    -10.4528         0.001500   
    155. D(H  22,N  14,C   5,C  11)   -152.6210         0.001500   
    156. D(H  23,N  14,C   5,C   0)   -128.8732         0.001500   
    157. D(C  15,N  14,C   5,C  11)    -14.4085         0.001500   
    158. D(C  15,N  14,C   5,C   4)   -126.5305         0.001500   
    159. D(C  11,N  14,C   0,H   6)    101.6606         0.001500   
    160. D(C  11,N  14,C   0,C   5)    -28.1993         0.001500   
    161. D(C  11,N  14,C   0,C   1)   -147.8121         0.001500   
    162. D(C   5,N  14,C   0,H   6)    129.8599         0.001500   
    163. D(C   5,N  14,C   0,C   1)   -119.6128         0.001500   
    164. D(H  23,N  14,C   0,H   6)   -177.5133         0.001500   
    165. D(H  23,N  14,C   0,C   5)     52.6268         0.001500   
    166. D(H  22,N  14,C   0,H   6)    -72.7493         0.001500   
    167. D(C  15,N  14,C   5,C   0)    115.0491         0.001500   
    168. D(H  22,N  14,C   0,C   1)     37.7780         0.001500   
    169. D(H  22,N  14,C   0,C   5)    157.3908         0.001500   
    170. D(H  22,N  14,C   5,C   0)    -23.1634         0.001500   
    171. D(H  22,N  14,C   5,C   4)     95.2570         0.001500   
    172. D(C  15,N  14,C   0,H   6)     39.5688         0.001500   
    173. D(C  15,N  14,C   0,C   5)    -90.2911         0.001500   
    174. D(H  23,N  14,C   0,C   1)    -66.9861         0.001500   
    175. D(H  23,N  14,C   5,C  11)    101.6692         0.001500   
    176. D(C  15,N  14,C   0,C   1)    150.0961         0.001500   
    177. D(C   5,N  14,C  11,H  13)   -121.7736         0.001500   
    178. D(C   5,N  14,C  11,O  12)    126.0822         0.001500   
    179. D(C   0,N  14,C  11,O  12)    152.2731         0.001500   
    180. D(C   0,N  14,C  11,C   5)     26.1909         0.001500   
    181. D(H  23,N  14,C  11,H  13)    159.7786         0.001500   
    182. D(H  23,N  14,C  11,C   5)    -78.4478         0.001500   
    183. D(H  22,N  14,C  11,H  13)    -88.8104         0.001500   
    184. D(H  22,N  14,C  11,O  12)    159.0454         0.001500   
    185. D(H  22,N  14,C  11,C   5)     32.9632         0.001500   
    186. D(C  15,N  14,C  11,H  13)     47.4552         0.001500   
    187. D(H  23,N  14,C  11,O  12)     47.6344         0.001500   
    188. D(C  15,N  14,C  11,O  12)    -64.6890         0.001500   
    189. D(C  15,N  14,C  11,C   5)    169.2288         0.001500   
    190. D(C  11,N  14,C   5,C   4)   -112.1220         0.001500   
    191. D(C   0,N  14,C  11,H  13)    -95.5827         0.001500   
    192. D(C  11,N  14,C   5,C   0)    129.4577         0.001500   
    193. D(C   0,N  14,C   5,C  11)   -129.4577         0.001500   
    194. D(C   0,N  14,C   5,C   4)    118.4204         0.001500   
    195. D(H  18,C  15,N  14,C  11)    169.4272         0.022209   
    196. D(H  18,C  15,N  14,C   0)   -150.8991         0.022209   
    197. D(H  18,C  15,N  14,H  23)     67.8425         0.022209   
    198. D(H  18,C  15,N  14,H  22)    -47.4742         0.022209   
    199. D(H  17,C  15,N  14,C  11)    -73.1328         0.022209   
    200. D(H  17,C  15,N  14,C   5)    -66.8163         0.022209   
    201. D(H  17,C  15,N  14,C   0)    -33.4591         0.022209   
    202. D(H  17,C  15,N  14,H  23)   -174.7175         0.022209   
    203. D(H  17,C  15,N  14,H  22)     69.9658         0.022209   
    204. D(C  16,C  15,N  14,C  11)     48.2832         0.022209   
    205. D(C  16,C  15,N  14,C   5)     54.5997         0.022209   
    206. D(C  16,C  15,N  14,C   0)     87.9569         0.022209   
    207. D(H  18,C  15,N  14,C   5)    175.7438         0.022209   
    208. D(C  16,C  15,N  14,H  23)    -53.3015         0.022209   
    209. D(C  16,C  15,N  14,H  22)   -168.6182         0.022209   
    210. D(H  21,C  16,C  15,H  18)   -177.6320         0.012612   
    211. D(H  21,C  16,C  15,H  17)     63.6669         0.012612   
    212. D(H  21,C  16,C  15,N  14)    -56.8783         0.012612   
    213. D(H  20,C  16,C  15,H  18)    -60.0642         0.012612   
    214. D(H  20,C  16,C  15,H  17)   -178.7652         0.012612   
    215. D(H  20,C  16,C  15,N  14)     60.6895         0.012612   
    216. D(C  19,C  16,C  15,H  18)     61.1126         0.012612   
    217. D(C  19,C  16,C  15,H  17)    -57.5884         0.012612   
    218. D(C  19,C  16,C  15,N  14)   -178.1336         0.012612   
    219. D(H  26,C  19,C  16,H  21)   -178.0356         0.011870   
    220. D(H  26,C  19,C  16,H  20)     64.9019         0.011870   
    221. D(H  26,C  19,C  16,C  15)    -56.4060         0.011870   
    222. D(H  25,C  19,C  16,H  21)    -60.3605         0.011870   
    223. D(H  25,C  19,C  16,H  20)   -177.4230         0.011870   
    224. D(H  25,C  19,C  16,C  15)     61.2691         0.011870   
    225. D(C  24,C  19,C  16,H  21)     60.7702         0.011870   
    226. D(C  24,C  19,C  16,H  20)    -56.2923         0.011870   
    227. D(C  24,C  19,C  16,C  15)   -177.6002         0.011870   
    228. D(H  29,C  24,C  19,H  25)   -177.1833         0.011925   
    229. D(H  29,C  24,C  19,C  16)     61.3658         0.011925   
    230. D(H  28,C  24,C  19,H  26)     59.2882         0.011925   
    231. D(H  28,C  24,C  19,H  25)    -57.5579         0.011925   
    232. D(H  28,C  24,C  19,C  16)   -179.0088         0.011925   
    233. D(H  27,C  24,C  19,H  26)    179.0956         0.011925   
    234. D(H  27,C  24,C  19,H  25)     62.2495         0.011925   
    235. D(H  29,C  24,C  19,H  26)    -60.3372         0.011925   
    236. D(H  27,C  24,C  19,C  16)    -59.2014         0.011925   
    -----------------------------------------------------------------

Number of atoms                         .... 30
Number of degrees of freedom            .... 236

         *************************************************************
         *                GEOMETRY OPTIMIZATION CYCLE   1            *
         *************************************************************
      -----------------------------------------------------------      
     |                   =====================                   |     
     |                           x T B                           |     
     |                   =====================                   |     
     |                         S. Grimme                         |     
     |          Mulliken Center for Theoretical Chemistry        |     
     |                    University of Bonn                     |     
      -----------------------------------------------------------      

   * xtb version 6.3.0 (49875a8) compiled by 'schneider@apollo14' on 2020-05-23

   xtb is free software: you can redistribute it and/or modify it under
   the terms of the GNU Lesser General Public License as published by
   the Free Software Foundation, either version 3 of the License, or
   (at your option) any later version.
   
   xtb is distributed in the hope that it will be useful,
   but WITHOUT ANY WARRANTY; without even the implied warranty of
   MERCHANTABILITY or FITNESS FOR A PARTICULAR PURPOSE.  See the
   GNU Lesser General Public License for more details.
   
   Cite this work as:
   * S. Grimme, C. Bannwarth, P. Shushkov, J. Chem. Theory Comput., 2017,
     13, 1989-2009. DOI: 10.1021/acs.jctc.7b00118
   * C. Bannwarth, S. Ehlert and S. Grimme., J. Chem. Theory Comput., 2019,
     15, 1652-1671. DOI: 10.1021/acs.jctc.8b01176
   * P. Pracht, E. Caldeweyher, S. Ehlert, S. Grimme, ChemRxiv, 2019, preprint.
     DOI: 10.26434/chemrxiv.8326202.v1
   
   for GFN-FF:
   * S. Spicher and S. Grimme, Angew. Chem. Int. Ed., 2020,
     DOI: 10.1002/anie.202004239
   
   for DFT-D4:
   * E. Caldeweyher, C. Bannwarth and S. Grimme, J. Chem. Phys., 2017,
     147, 034112. DOI: 10.1063/1.4993215
   * E. Caldeweyher, S. Ehlert, A. Hansen, H. Neugebauer, S. Spicher,
     C. Bannwarth and S. Grimme, J. Chem. Phys., 2019, 150, 154122.
     DOI: 10.1063/1.5090222
   
   for sTDA-xTB:
   * S. Grimme and C. Bannwarth, J. Chem. Phys., 2016, 145, 054103.
     DOI: 10.1063/1.4959605
   
   in the mass-spec context:
   * V. Asgeirsson, C. Bauer and S. Grimme, Chem. Sci., 2017, 8, 4879.
     DOI: 10.1039/c7sc00601b
   * J. Koopman and S. Grimme, ACS Omega 2019, 4, 12, 15120-15133.
     DOI: 10.1021/acsomega.9b02011
   
   for metadynamics refer to:
   * S. Grimme, J. Chem. Theory Comput., 2019, 155, 2847-2862
     DOI: 10.1021/acs.jctc.9b00143
   
   with help from (in alphabetical order)
   C. Bannwarth, F. Bohle, G. Brandenburg, E. Caldeweyher, M. Checinski,
   S. Dohm, S. Ehlert, S. Ehrlich, F. März, H. Neugebauer, J. Pisarek,
   P. Pracht, P. Shushkov, and S. Spicher.
   
 * started run on 2020/06/18 at 21:36:27.340     

           -------------------------------------------------
          |                Calculation Setup                |
           -------------------------------------------------

          program call               : /opt/orca/otool_xtb optts+freq_reactant_XTB.xyz --grad -c 0 -u 0 -P 12 --namespace optts+freq_reactant --gbsa CH2Cl2
          calculation namespace      : optts+freq_reactant
          coordinate file            : optts+freq_reactant_XTB.xyz
          number of atoms            :                    30
          number of electrons        :                    72
          charge                     :                     0
          spin                       :                   0.0
          first test random number   :      0.96788453987694

   ID    Z sym.   atoms
    1    6 C      1-6, 12, 16, 17, 20, 25
    2    1 H      7-11, 14, 18, 19, 21-24, 26-30
    3    8 O      13
    4    7 N      15

molecular fragmentation (1/2 indicates fragments):
111111111111112222222222222222
# atoms in fragment 1/2:    14    16
 fragment masses (1/2) :      106.12       73.14
CMA distance (Bohr)    :  10.689
constraining FC (au)   :  0.0500
########################################################################
[WARNING] Please study the warnings concerning your input carefully
-1- prog_main_parseArguments: Process number higher than OMP_NUM_THREADS, I hope you know what you are doing.
########################################################################
 Solvent             : CH2Cl2
 Using internal parameter file: .param_gbsa2_CH2Cl2
 Gsolv ref. state (COSMO-RS): gsolv [1 M gas/solution]
 temperature (mdtemp)       :    298.14999999999998     
 dielectric constant        :    8.9299999999999997     
 rho                        :    1.3300000000000003     
 mass                       :    84.930000000000007     
 surface tension            :    15.568945408385856     
 probe radius               :   0.71987590000000001     
 Gshift (Eh)                :    4.4408291734517593E-003
 c1                         :    1.4917377599999999     
 soset                      :    0.0000000000000000     
 HB correction              :  F

           -------------------------------------------------
          |                 G F N 2 - x T B                 |
           -------------------------------------------------

        Reference                      10.1021/acs.jctc.8b01176
      * Hamiltonian:
        H0-scaling (s, p, d)           1.850000    2.230000    2.230000
        zeta-weighting                 0.500000
      * Dispersion:
        s8                             2.700000
        a1                             0.520000
        a2                             5.000000
        s9                             5.000000
      * Repulsion:
        kExp                           1.500000    1.000000
        rExp                           1.000000
      * Coulomb:
        alpha                          2.000000
        third order                    shell-resolved
        anisotropic                    true
        a3                             3.000000
        a5                             4.000000
        cn-shift                       1.200000
        cn-exp                         4.000000
        max-rad                        5.000000


          ...................................................
          :                      SETUP                      :
          :.................................................:
          :  # basis functions                  69          :
          :  # atomic orbitals                  69          :
          :  # shells                           43          :
          :  # electrons                        72          :
          :  max. iterations                   250          :
          :  Hamiltonian                  GFN2-xTB          :
          :  restarted?                      false          :
          :  GBSA solvation                   true          :
          :  PC potential                    false          :
          :  electronic temp.          300.0000000     K    :
          :  accuracy                    1.0000000          :
          :  -> integral cutoff          0.2500000E+02      :
          :  -> integral neglect         0.1000000E-07      :
          :  -> SCF convergence          0.1000000E-05 Eh   :
          :  -> wf. convergence          0.1000000E-03 e    :
          :  Broyden damping             0.4000000          :
          ...................................................

 iter      E             dE          RMSdq      gap      omega  full diag
   1    -39.6646818 -0.396647E+02  0.439E+00    2.20       0.0  T
   2    -39.7301788 -0.654970E-01  0.237E+00    2.11       1.0  T
   3    -39.7297523  0.426459E-03  0.116E+00    2.38       1.0  T
   4    -39.7361235 -0.637121E-02  0.208E-01    2.22       1.0  T
   5    -39.7367566 -0.633103E-03  0.744E-02    2.23       1.0  T
   6    -39.7367993 -0.427054E-04  0.383E-02    2.24       1.0  T
   7    -39.7368113 -0.119709E-04  0.120E-02    2.24       1.5  T
   8    -39.7368119 -0.615513E-06  0.408E-03    2.24       4.5  T
   9    -39.7368120 -0.950638E-07  0.183E-03    2.24      10.0  T
  10    -39.7368121 -0.256220E-07  0.872E-04    2.24      20.9  T
  11    -39.7368121 -0.313059E-08  0.414E-04    2.24      44.1  T

   *** convergence criteria satisfied after 11 iterations ***

         #    Occupation            Energy/Eh            Energy/eV
      -------------------------------------------------------------
         1        2.0000           -0.7109681             -19.3464
       ...           ...                  ...                  ...
        30        2.0000           -0.4340252             -11.8104
        31        2.0000           -0.4319278             -11.7534
        32        2.0000           -0.4258770             -11.5887
        33        2.0000           -0.4176266             -11.3642
        34        2.0000           -0.4145173             -11.2796
        35        2.0000           -0.4012931             -10.9197
        36        2.0000           -0.3751447             -10.2082 (HOMO)
        37                         -0.2928481              -7.9688 (LUMO)
        38                         -0.2369638              -6.4481
        39                         -0.2035244              -5.5382
        40                         -0.0982680              -2.6740
        41                          0.0285422               0.7767
       ...                                ...                  ...
        69                          0.6299127              17.1408
      -------------------------------------------------------------
                  HL-Gap            0.0822965 Eh            2.2394 eV
             Fermi-level           -0.3339964 Eh           -9.0885 eV

 SCC (total)                   0 d,  0 h,  0 min,  0.072 sec
 SCC setup                      ...        0 min,  0.001 sec (  1.515%)
 Dispersion                     ...        0 min,  0.000 sec (  0.515%)
 classical contributions        ...        0 min,  0.000 sec (  0.166%)
 integral evaluation            ...        0 min,  0.014 sec ( 19.187%)
 iterations                     ...        0 min,  0.033 sec ( 45.143%)
 molecular gradient             ...        0 min,  0.024 sec ( 33.095%)
 printout                       ...        0 min,  0.000 sec (  0.355%)

         :::::::::::::::::::::::::::::::::::::::::::::::::::::
         ::                     SUMMARY                     ::
         :::::::::::::::::::::::::::::::::::::::::::::::::::::
         :: total energy             -39.176593720546 Eh    ::
         :: total w/o Gsasa/hb       -39.159550830024 Eh    ::
         :: gradient norm              0.043493551574 Eh/a0 ::
         :: HOMO-LUMO gap              2.239402255280 eV    ::
         ::.................................................::
         :: SCC energy               -39.753854945457 Eh    ::
         :: -> isotropic ES            0.044685057938 Eh    ::
         :: -> anisotropic ES          0.005689272366 Eh    ::
         :: -> anisotropic XC          0.026945667403 Eh    ::
         :: -> dispersion             -0.021607797434 Eh    ::
         :: -> Gsolv                  -0.023311805558 Eh    ::
         ::    -> Gborn               -0.006268915037 Eh    ::
         ::    -> Gsasa               -0.021483719695 Eh    ::
         ::    -> Ghb                  0.000000000000 Eh    ::
         ::    -> Gshift               0.004440829173 Eh    ::
         :: repulsion energy           0.577147517714 Eh    ::
         :: add. restraining           0.000000000000 Eh    ::
         :::::::::::::::::::::::::::::::::::::::::::::::::::::

           -------------------------------------------------
          |                Property Printout                |
           -------------------------------------------------

    * Orbital Energies and Occupations

         #    Occupation            Energy/Eh            Energy/eV
      -------------------------------------------------------------
         1        2.0000           -0.7109681             -19.3464
       ...           ...                  ...                  ...
        24        2.0000           -0.4832966             -13.1512
        25        2.0000           -0.4816230             -13.1056
        26        2.0000           -0.4655028             -12.6670
        27        2.0000           -0.4503614             -12.2550
        28        2.0000           -0.4447624             -12.1026
        29        2.0000           -0.4396994             -11.9648
        30        2.0000           -0.4340252             -11.8104
        31        2.0000           -0.4319278             -11.7534
        32        2.0000           -0.4258770             -11.5887
        33        2.0000           -0.4176266             -11.3642
        34        2.0000           -0.4145173             -11.2796
        35        2.0000           -0.4012931             -10.9197
        36        2.0000           -0.3751447             -10.2082 (HOMO)
        37                         -0.2928481              -7.9688 (LUMO)
        38                         -0.2369638              -6.4481
        39                         -0.2035244              -5.5382
        40                         -0.0982680              -2.6740
        41                          0.0285422               0.7767
        42                          0.0829494               2.2572
        43                          0.0861057               2.3431
        44                          0.1071336               2.9153
        45                          0.1079248               2.9368
        46                          0.1264644               3.4413
        47                          0.1273062               3.4642
       ...                                ...                  ...
        69                          0.6299127              17.1408
      -------------------------------------------------------------
                  HL-Gap            0.0822965 Eh            2.2394 eV
             Fermi-level           -0.3339964 Eh           -9.0885 eV

     #   Z        covCN         q      C6AA      α(0)
     1   6 C      2.915    -0.022    28.561     8.764
     2   6 C      2.912    -0.025    28.633     8.774
     3   6 C      2.911    -0.018    28.448     8.746
     4   6 C      2.912    -0.026    28.648     8.777
     5   6 C      2.915    -0.012    28.324     8.727
     6   6 C      2.967    -0.005    28.145     8.702
     7   1 H      0.925     0.055     2.259     2.351
     8   1 H      0.925     0.051     2.311     2.377
     9   1 H      0.925     0.052     2.295     2.369
    10   1 H      0.925     0.049     2.332     2.388
    11   1 H      0.925     0.054     2.267     2.355
    12   6 C      2.766     0.207    23.615     7.959
    13   8 O      0.856    -0.396    21.610     6.233
    14   1 H      0.923     0.036     2.503     2.474
    15   7 N      2.629    -0.366    29.439     8.058
    16   6 C      3.732     0.024    20.254     6.424
    17   6 C      3.802    -0.062    21.691     6.631
    18   1 H      0.924     0.034     2.528     2.487
    19   1 H      0.924     0.007     2.933     2.678
    20   6 C      3.800    -0.053    21.533     6.607
    21   1 H      0.924     0.031     2.579     2.512
    22   1 H      0.924     0.040     2.445     2.445
    23   1 H      0.860     0.142     1.459     1.892
    24   1 H      0.860     0.137     1.494     1.915
    25   6 C      3.750    -0.101    22.495     6.764
    26   1 H      0.924     0.032     2.555     2.500
    27   1 H      0.924     0.031     2.573     2.509
    28   1 H      0.924     0.035     2.514     2.480
    29   1 H      0.924     0.036     2.503     2.474
    30   1 H      0.924     0.034     2.531     2.488

 Mol. C6AA /au·bohr⁶  :       8342.065919
 Mol. C8AA /au·bohr⁸  :     188392.335491
 Mol. α(0) /au        :        141.856655


Wiberg/Mayer (AO) data.
largest (>0.10) Wiberg bond orders for each atom
          total WBO             WBO to atom ...
     1  C   3.988        C    2 1.457    C    6 1.368    H    7 0.967    C    4 0.106
     2  C   3.990        C    1 1.457    C    3 1.429    H    8 0.970    C    5 0.106
     3  C   3.989        C    4 1.430    C    2 1.429    H    9 0.970
     4  C   3.990        C    5 1.456    C    3 1.430    H   10 0.970    C    1 0.106
     5  C   3.988        C    4 1.456    C    6 1.370    H   11 0.967    C    2 0.106
     6  C   3.989        C    5 1.370    C    1 1.368    C   12 1.070
     7  H   0.997        C    1 0.967
     8  H   0.997        C    2 0.970
     9  H   0.997        C    3 0.970
    10  H   0.997        C    4 0.970
    11  H   0.997        C    5 0.967
    12  C   3.909        O   13 1.826    C    6 1.070    H   14 0.937
    13  O   2.031        C   12 1.826
    14  H   0.998        C   12 0.937
    15  N   2.986        C   16 1.016    H   23 0.967    H   24 0.967
    16  C   3.985        N   15 1.016    C   17 1.007    H   18 0.975    H   19 0.974
    17  C   3.996        C   20 1.007    C   16 1.007    H   21 0.976    H   22 0.976
    18  H   0.999        C   16 0.975
    19  H   1.000        C   16 0.974
    20  C   3.998        C   25 1.021    C   17 1.007    H   26 0.978    H   27 0.978
    21  H   0.999        C   17 0.976
    22  H   0.998        C   17 0.976
    23  H   0.980        N   15 0.967
    24  H   0.981        N   15 0.967
    25  C   3.997        C   20 1.021    H   30 0.988    H   28 0.988    H   29 0.987
    26  H   0.999        C   20 0.978
    27  H   0.999        C   20 0.978
    28  H   0.999        C   25 0.988
    29  H   0.998        C   25 0.987
    30  H   0.999        C   25 0.988
Topologies differ in total number of bonds
Writing topology from bond orders to xtbtopo.mol

molecular dipole:
                 x           y           z       tot (Debye)
 q only:       -0.481      -1.413      -0.556
   full:       -0.556      -1.468      -0.995       4.725
molecular quadrupole (traceless):
                xx          xy          yy          xz          yz          zz
 q only:       -1.476      -2.406       9.793      -1.431      -8.454      -8.317
  q+dip:        0.859      -2.934       8.090      -0.511      -7.243      -8.949
   full:       -0.923      -2.648       7.363      -1.708      -7.748      -6.439


           -------------------------------------------------
          | TOTAL ENERGY              -39.176593720546 Eh   |
          | GRADIENT NORM               0.043493551574 Eh/α |
          | HOMO-LUMO GAP               2.239402255280 eV   |
           -------------------------------------------------

------------------------------------------------------------------------
 * finished run on 2020/06/18 at 21:36:27.446     
------------------------------------------------------------------------
 total:
 * wall-time:     0 d,  0 h,  0 min,  0.106 sec
 *  cpu-time:     0 d,  0 h,  0 min,  1.128 sec
 * ratio c/w:    10.632 speedup
 SCF:
 * wall-time:     0 d,  0 h,  0 min,  0.072 sec
 *  cpu-time:     0 d,  0 h,  0 min,  0.774 sec
 * ratio c/w:    10.710 speedup


-------------------------   --------------------
FINAL SINGLE POINT ENERGY       -39.176593720550
-------------------------   --------------------

------------------------------------------------------------------------------
                         ORCA GEOMETRY RELAXATION STEP
------------------------------------------------------------------------------

Reading the OPT-File                    .... done
Getting information on internals        .... done
Copying old internal coords+grads       .... done
Making the new internal coordinates     .... (new redundants).... done
Validating the new internal coordinates .... (new redundants).... done
Calculating the B-matrix                .... done
Calculating the G,G- and P matrices     .... done
Transforming gradient to internals      .... done
Projecting the internal gradient        .... done
Number of atoms                         ....  30
Number of internal coordinates          .... 236
Current Energy                          ....   -39.176593721 Eh
Current gradient norm                   ....     0.043493552 Eh/bohr
Maximum allowed component of the step   ....  0.300
Current trust radius                    ....  0.300
Evaluating the initial hessian          ....  (Almloef) done
Projecting the Hessian                  .... done
Forming the augmented Hessian           .... done
Diagonalizing the augmented Hessian     .... done
Last element of RFO vector              ....  0.990440355
Lowest eigenvalues of augmented Hessian:
 -0.003326921  0.000442411  0.003006409  0.004120348  0.007703042
Length of the computed step             ....  0.139273066
The final length of the internal step   ....  0.139273066
Converting the step to cartesian space:
 Initial RMS(Int)=    0.0090659044
Transforming coordinates:
 Iter   0:  RMS(Cart)=    0.0293770156 RMS(Int)=    0.5782515539
 Iter   1:  RMS(Cart)=    0.0004869676 RMS(Int)=    0.0001279644
 Iter   2:  RMS(Cart)=    0.0000039084 RMS(Int)=    0.0000021382
 Iter   3:  RMS(Cart)=    0.0000001411 RMS(Int)=    0.0000000640
 Iter   4:  RMS(Cart)=    0.0000000029 RMS(Int)=    0.0000000016
done
Storing new coordinates                 .... done

                                .--------------------.
          ----------------------|Geometry convergence|-------------------------
          Item                value                   Tolerance       Converged
          ---------------------------------------------------------------------
          RMS gradient        0.0023774672            0.0001000000      NO
          MAX gradient        0.0168148295            0.0003000000      NO
          RMS step            0.0090659044            0.0020000000      NO
          MAX step            0.0478128220            0.0040000000      NO
          ........................................................
          Max(Bonds)      0.0253      Max(Angles)    1.88
          Max(Dihed)        1.56      Max(Improp)    0.00
          ---------------------------------------------------------------------

The optimization has not yet converged - more geometry cycles are needed


    ---------------------------------------------------------------------------
                         Redundant Internal Coordinates
                            (Angstroem and degrees)

        Definition                    Value    dE/dq     Step     New-Value
    ----------------------------------------------------------------------------
     1. B(C   1,C   0)                1.3960  0.013105 -0.0111    1.3848   
     2. B(C   2,C   1)                1.3960  0.008670 -0.0080    1.3880   
     3. B(C   3,C   2)                1.3958  0.008288 -0.0078    1.3880   
     4. B(C   4,C   3)                1.3952  0.012568 -0.0109    1.3843   
     5. B(C   5,C   0)                1.3979  0.003968 -0.0035    1.3944   
     6. B(C   5,C   4)                1.3976  0.005097 -0.0039    1.3937   
     7. B(H   6,C   0)                1.0868  0.005430 -0.0078    1.0790   
     8. B(H   7,C   1)                1.0872  0.005028 -0.0072    1.0800   
     9. B(H   8,C   2)                1.0875  0.004976 -0.0072    1.0803   
    10. B(H   9,C   3)                1.0871  0.004990 -0.0072    1.0799   
    11. B(H  10,C   4)                1.0878  0.005482 -0.0079    1.0799   
    12. B(C  11,C   5)                1.4770  0.006237 -0.0098    1.4672   
    13. B(O  12,C  11)                1.2263  0.016815 -0.0089    1.2174   
    14. B(H  13,C  11)                1.1027  0.001238 -0.0036    1.0991   
    15. B(N  14,H  13)                2.9975  0.000155  0.0010    2.9986   
    16. B(N  14,C   0)                3.5717  0.000200 -0.0005    3.5712   
    17. B(N  14,C   5)                3.6134  0.001550 -0.0002    3.6132   
    18. B(N  14,H   6)                3.2872  0.000304 -0.0018    3.2854   
    19. B(N  14,C  11)                3.3533 -0.000837  0.0058    3.3591   
    20. B(C  15,N  14)                1.4593 -0.003292  0.0055    1.4648   
    21. B(C  15,H  13)                3.5366 -0.002499  0.0097    3.5463   
    22. B(C  16,H  13)                3.6065 -0.001475  0.0008    3.6072   
    23. B(C  16,C  15)                1.5282  0.003162 -0.0034    1.5248   
    24. B(H  17,H  13)                3.4536  0.000704 -0.0050    3.4486   
    25. B(H  17,C  15)                1.0951  0.001020 -0.0016    1.0935   
    26. B(H  18,C  15)                1.0956 -0.004897  0.0073    1.1029   
    27. B(C  19,C  16)                1.5293  0.001100 -0.0015    1.5278   
    28. B(H  20,C  16)                1.0975  0.002712 -0.0041    1.0934   
    29. B(H  21,H  13)                2.7919  0.000464 -0.0110    2.7809   
    30. B(H  21,C  16)                1.0971  0.004704 -0.0057    1.0913   
    31. B(H  21,O  12)                3.2803  0.001995 -0.0253    3.2550   
    32. B(H  21,C  11)                3.2341 -0.001213 -0.0139    3.2201   
    33. B(H  22,C   0)                3.5971  0.000449 -0.0044    3.5927   
    34. B(H  22,N  14)                1.0197  0.002552 -0.0033    1.0164   
    35. B(H  22,H   6)                3.2397 -0.000219 -0.0035    3.2362   
    36. B(H  23,N  14)                1.0212  0.002696 -0.0048    1.0164   
    37. B(H  23,H  13)                3.4883  0.002028 -0.0058    3.4825   
    38. B(H  23,C  11)                3.5517 -0.000132  0.0003    3.5520   
    39. B(C  24,C  19)                1.5203 -0.002078  0.0028    1.5231   
    40. B(H  25,C  19)                1.0963  0.002275 -0.0034    1.0929   
    41. B(H  26,C  19)                1.0962  0.001894 -0.0028    1.0934   
    42. B(H  27,C  24)                1.0946  0.004114 -0.0061    1.0885   
    43. B(H  28,C  24)                1.0946  0.003664 -0.0054    1.0891   
    44. B(H  29,C  24)                1.0947  0.004096 -0.0061    1.0887   
    45. A(C   5,C   0,H   6)          120.76  0.001064   -0.37    120.39   
    46. A(C   1,C   0,N  14)          124.84  0.000005    0.01    124.85   
    47. A(C   1,C   0,C   5)          119.64 -0.000259    0.12    119.76   
    48. A(C   5,C   0,N  14)           80.46  0.000186    0.04     80.51   
    49. A(H   6,C   0,N  14)           66.20  0.000342   -0.11     66.09   
    50. A(C   1,C   0,H   6)          119.59 -0.000805    0.25    119.85   
    51. A(C   0,C   1,C   2)          120.04  0.000237    0.00    120.04   
    52. A(C   2,C   1,H   7)          119.92 -0.000206    0.01    119.93   
    53. A(C   0,C   1,H   7)          120.04 -0.000031   -0.02    120.03   
    54. A(C   1,C   2,H   8)          119.95  0.000705   -0.05    119.90   
    55. A(C   3,C   2,H   8)          119.85  0.000606   -0.04    119.82   
    56. A(C   1,C   2,C   3)          120.19 -0.001310    0.09    120.28   
    57. A(C   2,C   3,C   4)          120.00 -0.000246   -0.00    120.00   
    58. A(C   2,C   3,H   9)          120.11  0.000136   -0.00    120.10   
    59. A(C   4,C   3,H   9)          119.90  0.000111    0.00    119.90   
    60. A(C   3,C   4,C   5)          119.74  0.000295    0.12    119.85   
    61. A(C   3,C   4,H  10)          120.02 -0.002583    0.33    120.35   
    62. A(C   5,C   4,H  10)          120.25  0.002288   -0.45    119.80   
    63. A(C   0,C   5,N  14)           77.11 -0.000725    0.01     77.12   
    64. A(C   4,C   5,N  14)          126.35  0.000201    0.04    126.39   
    65. A(C   0,C   5,C   4)          120.39  0.001284   -0.33    120.07   
    66. A(C  11,C   5,N  14)           68.03 -0.000891    0.25     68.28   
    67. A(C   0,C   5,C  11)          119.41 -0.001751    0.32    119.73   
    68. A(C   4,C   5,C  11)          120.20  0.000468    0.00    120.20   
    69. A(C   5,C  11,N  14)           87.86 -0.000008   -0.08     87.79   
    70. A(C   5,C  11,H  13)          116.55  0.000855   -0.84    115.71   
    71. A(C   5,C  11,O  12)          122.10 -0.002119    1.36    123.47   
    72. A(H  13,C  11,N  14)           61.97  0.000555   -0.26     61.71   
    73. A(O  12,C  11,H  13)          121.34  0.001258   -0.52    120.82   
    74. A(O  12,C  11,N  14)          119.31  0.000751   -0.41    118.90   
    75. A(C   5,N  14,H  23)           87.82 -0.000720   -0.01     87.81   
    76. A(C   5,N  14,H  22)          103.94  0.000317   -0.21    103.73   
    77. A(C   5,N  14,C  15)          136.07  0.000753   -0.14    135.92   
    78. A(C   0,N  14,H  23)          101.78 -0.000292    0.02    101.80   
    79. A(C   0,N  14,C  15)          141.05  0.000732   -0.14    140.92   
    80. A(C   0,N  14,H  22)           83.24 -0.000089   -0.19     83.05   
    81. A(C   5,N  14,C  11)           24.11  0.000898   -0.17     23.94   
    82. A(C  11,N  14,H  23)           92.74 -0.000125   -0.22     92.52   
    83. A(C   0,N  14,C   5)           22.43  0.000539   -0.05     22.37   
    84. A(H  22,N  14,H  23)          105.77 -0.000258    0.44    106.21   
    85. A(C  15,N  14,H  23)          109.40 -0.000020   -0.06    109.35   
    86. A(C   0,N  14,C  11)           41.87  0.001081   -0.16     41.71   
    87. A(C  15,N  14,H  22)          109.19 -0.000382    0.15    109.33   
    88. A(C  11,N  14,H  22)          124.88  0.000961   -0.35    124.54   
    89. A(C  11,N  14,C  15)          112.51 -0.000240    0.05    112.56   
    90. A(H  17,C  15,H  18)          107.79  0.000500   -0.10    107.69   
    91. A(C  16,C  15,H  18)          109.89  0.002895   -0.51    109.37   
    92. A(N  14,C  15,H  18)          109.23 -0.005274    1.88    111.11   
    93. A(C  16,C  15,H  17)          110.31 -0.000569   -0.40    109.91   
    94. A(N  14,C  15,H  17)          108.84  0.002334   -0.92    107.92   
    95. A(N  14,C  15,C  16)          110.73  0.000062    0.06    110.79   
    96. A(C  15,C  16,H  21)          110.03  0.002213   -0.51    109.52   
    97. A(C  19,C  16,H  20)          109.50  0.000887   -0.03    109.47   
    98. A(C  15,C  16,H  20)          109.72  0.001408   -0.31    109.41   
    99. A(C  15,C  16,C  19)          111.04 -0.003640    0.62    111.66   
   100. A(H  20,C  16,H  21)          107.08 -0.001092    0.11    107.19   
   101. A(C  19,C  16,H  21)          109.39  0.000326    0.10    109.49   
   102. A(H  25,C  19,H  26)          107.21 -0.000549    0.15    107.36   
   103. A(C  24,C  19,H  26)          109.08 -0.000255    0.15    109.23   
   104. A(C  16,C  19,H  26)          109.96  0.001184   -0.31    109.65   
   105. A(C  24,C  19,H  25)          109.16 -0.000038    0.09    109.25   
   106. A(C  16,C  19,H  25)          109.71  0.001004   -0.28    109.43   
   107. A(C  16,C  19,C  24)          111.62 -0.001328    0.20    111.81   
   108. A(H  28,C  24,H  29)          108.03 -0.000033    0.10    108.13   
   109. A(H  27,C  24,H  29)          108.33 -0.000148   -0.12    108.21   
   110. A(C  19,C  24,H  29)          110.95  0.000416   -0.10    110.85   
   111. A(H  27,C  24,H  28)          108.11 -0.000172    0.09    108.20   
   112. A(C  19,C  24,H  28)          110.23 -0.001001    0.24    110.47   
   113. A(C  19,C  24,H  27)          111.08  0.000914   -0.20    110.88   
   114. D(C   2,C   1,C   0,N  14)     99.32  0.000015    0.16     99.49   
   115. D(H   7,C   1,C   0,N  14)    -80.61  0.000042    0.06    -80.55   
   116. D(H   7,C   1,C   0,C   5)    179.96 -0.000015   -0.10    179.86   
   117. D(C   2,C   1,C   0,H   6)    179.53 -0.000027    0.17    179.70   
   118. D(C   2,C   1,C   0,C   5)     -0.11 -0.000042    0.00     -0.11   
   119. D(H   7,C   1,C   0,H   6)     -0.40  0.000000    0.07     -0.33   
   120. D(C   3,C   2,C   1,H   7)    179.99 -0.000018    0.08    180.07   
   121. D(H   8,C   2,C   1,C   0)   -179.92  0.000013   -0.03   -179.96   
   122. D(C   3,C   2,C   1,C   0)      0.06  0.000008   -0.02      0.04   
   123. D(H   8,C   2,C   1,H   7)      0.00 -0.000014    0.07      0.08   
   124. D(H   9,C   3,C   2,H   8)      0.04  0.000037   -0.01      0.02   
   125. D(C   4,C   3,C   2,C   1)      0.08 -0.000006   -0.00      0.07   
   126. D(C   4,C   3,C   2,H   8)   -179.94 -0.000011    0.00   -179.93   
   127. D(H   9,C   3,C   2,C   1)   -179.95  0.000042   -0.02   -179.97   
   128. D(C   5,C   4,C   3,C   2)     -0.17  0.000030    0.05     -0.11   
   129. D(H  10,C   4,C   3,H   9)     -0.01  0.000046   -0.00     -0.01   
   130. D(H  10,C   4,C   3,C   2)    179.96  0.000094   -0.02    179.95   
   131. D(C   5,C   4,C   3,H   9)    179.86 -0.000017    0.07    179.93   
   132. D(C   0,C   5,C   4,H  10)    179.99 -0.000133    0.00    179.99   
   133. D(C  11,C   5,C   4,C   3)   -179.96  0.000568   -0.21   -180.16   
   134. D(N  14,C   5,C   0,C   1)    124.82  0.000064    0.06    124.87   
   135. D(C  11,C   5,C   0,N  14)     55.28 -0.000624    0.12     55.40   
   136. D(C  11,C   5,C   4,H  10)     -0.09  0.000498   -0.14     -0.22   
   137. D(C  11,C   5,C   0,C   1)   -179.91 -0.000560    0.18   -179.73   
   138. D(C   4,C   5,C   0,H   6)   -179.62  0.000058   -0.13   -179.75   
   139. D(N  14,C   5,C   0,H   6)    -54.82  0.000056   -0.12    -54.94   
   140. D(C   4,C   5,C   0,N  14)   -124.80  0.000003   -0.01   -124.81   
   141. D(N  14,C   5,C   4,C   3)    -96.22 -0.000208    0.15    -96.08   
   142. D(C  11,C   5,C   0,H   6)      0.46 -0.000569    0.01      0.47   
   143. D(C   0,C   5,C   4,C   3)      0.12 -0.000063   -0.07      0.05   
   144. D(C   4,C   5,C   0,C   1)      0.02  0.000067    0.04      0.06   
   145. D(N  14,C   5,C   4,H  10)     83.64 -0.000278    0.22     83.86   
   146. D(N  14,C  11,C   5,C   4)    120.31 -0.000216    0.16    120.47   
   147. D(O  12,C  11,C   5,N  14)   -123.70 -0.000133    0.05   -123.65   
   148. D(H  13,C  11,C   5,C   4)    177.33  0.000117    0.11    177.44   
   149. D(H  13,C  11,C   5,C   0)     -2.74  0.000744   -0.03     -2.77   
   150. D(N  14,C  11,C   5,C   0)    -59.76  0.000411    0.02    -59.74   
   151. D(O  12,C  11,C   5,C   4)     -3.39 -0.000349    0.21     -3.18   
   152. D(O  12,C  11,C   5,C   0)    176.54  0.000278    0.07    176.61   
   153. D(H  13,C  11,C   5,N  14)     57.02  0.000333   -0.05     56.97   
   154. D(H  23,N  14,C   5,C   4)    -10.45  0.000892   -0.60    -11.05   
   155. D(H  22,N  14,C   5,C  11)   -152.62  0.000454    0.00   -152.62   
   156. D(H  23,N  14,C   5,C   0)   -128.87 -0.000222   -0.21   -129.08   
   157. D(C  15,N  14,C   5,C  11)    -14.41  0.001386   -0.29    -14.70   
   158. D(C  15,N  14,C   5,C   4)   -126.53  0.001391   -0.44   -126.97   
   159. D(C  11,N  14,C   0,H   6)    101.66  0.000067   -0.21    101.45   
   160. D(C  11,N  14,C   0,C   5)    -28.20 -0.000919    0.21    -27.98   
   161. D(C  11,N  14,C   0,C   1)   -147.81 -0.000731    0.04   -147.77   
   162. D(C   5,N  14,C   0,H   6)    129.86  0.000986   -0.42    129.44   
   163. D(C   5,N  14,C   0,C   1)   -119.61  0.000188   -0.18   -119.79   
   164. D(H  23,N  14,C   0,H   6)   -177.51  0.000636   -0.64   -178.15   
   165. D(H  23,N  14,C   0,C   5)     52.63 -0.000350   -0.21     52.41   
   166. D(H  22,N  14,C   0,H   6)    -72.75  0.000376   -0.22    -72.97   
   167. D(C  15,N  14,C   5,C   0)    115.05  0.000276   -0.05    115.00   
   168. D(H  22,N  14,C   0,C   1)     37.78 -0.000422    0.03     37.80   
   169. D(H  22,N  14,C   0,C   5)    157.39 -0.000610    0.20    157.59   
   170. D(H  22,N  14,C   5,C   0)    -23.16 -0.000656    0.24    -22.92   
   171. D(H  22,N  14,C   5,C   4)     95.26  0.000458   -0.15     95.10   
   172. D(C  15,N  14,C   0,H   6)     39.57 -0.000085   -0.28     39.29   
   173. D(C  15,N  14,C   0,C   5)    -90.29 -0.001071    0.14    -90.15   
   174. D(H  23,N  14,C   0,C   1)    -66.99 -0.000162   -0.39    -67.38   
   175. D(H  23,N  14,C   5,C  11)    101.67  0.000888   -0.45    101.22   
   176. D(C  15,N  14,C   0,C   1)    150.10 -0.000883   -0.03    150.06   
   177. D(C   5,N  14,C  11,H  13)   -121.77 -0.000818    0.85   -120.92   
   178. D(C   5,N  14,C  11,O  12)    126.08 -0.002281    1.44    127.52   
   179. D(C   0,N  14,C  11,O  12)    152.27 -0.001783    1.37    153.64   
   180. D(C   0,N  14,C  11,C   5)     26.19  0.000498   -0.08     26.12   
   181. D(H  23,N  14,C  11,H  13)    159.78  0.000243    0.45    160.23   
   182. D(H  23,N  14,C  11,C   5)    -78.45  0.001061   -0.40    -78.85   
   183. D(H  22,N  14,C  11,H  13)    -88.81  0.000134    0.73    -88.08   
   184. D(H  22,N  14,C  11,O  12)    159.05 -0.001329    1.32    160.37   
   185. D(H  22,N  14,C  11,C   5)     32.96  0.000952   -0.12     32.84   
   186. D(C  15,N  14,C  11,H  13)     47.46  0.000376    0.61     48.06   
   187. D(H  23,N  14,C  11,O  12)     47.63 -0.001221    1.04     48.68   
   188. D(C  15,N  14,C  11,O  12)    -64.69 -0.001087    1.19    -63.49   
   189. D(C  15,N  14,C  11,C   5)    169.23  0.001194   -0.25    168.98   
   190. D(C  11,N  14,C   5,C   4)   -112.12  0.000004   -0.15   -112.28   
   191. D(C   0,N  14,C  11,H  13)    -95.58 -0.000319    0.78    -94.80   
   192. D(C  11,N  14,C   5,C   0)    129.46 -0.001110    0.24    129.70   
   193. D(C   0,N  14,C   5,C  11)   -129.46  0.001110   -0.24   -129.70   
   194. D(C   0,N  14,C   5,C   4)    118.42  0.001114   -0.39    118.03   
   195. D(H  18,C  15,N  14,C  11)    169.43  0.000385   -0.10    169.33   
   196. D(H  18,C  15,N  14,C   0)   -150.90  0.001370   -0.20   -151.10   
   197. D(H  18,C  15,N  14,H  23)     67.84  0.000648    0.16     68.00   
   198. D(H  18,C  15,N  14,H  22)    -47.47  0.001178   -0.42    -47.89   
   199. D(H  17,C  15,N  14,C  11)    -73.13 -0.000666    0.32    -72.81   
   200. D(H  17,C  15,N  14,C   5)    -66.82 -0.001052    0.41    -66.41   
   201. D(H  17,C  15,N  14,C   0)    -33.46  0.000319    0.22    -33.23   
   202. D(H  17,C  15,N  14,H  23)   -174.72 -0.000404    0.59   -174.13   
   203. D(H  17,C  15,N  14,H  22)     69.97  0.000127    0.01     69.97   
   204. D(C  16,C  15,N  14,C  11)     48.28  0.000188   -0.73     47.56   
   205. D(C  16,C  15,N  14,C   5)     54.60 -0.000198   -0.64     53.96   
   206. D(C  16,C  15,N  14,C   0)     87.96  0.001172   -0.83     87.13   
   207. D(H  18,C  15,N  14,C   5)    175.74 -0.000001   -0.02    175.73   
   208. D(C  16,C  15,N  14,H  23)    -53.30  0.000450   -0.47    -53.77   
   209. D(C  16,C  15,N  14,H  22)   -168.62  0.000981   -1.05   -169.66   
   210. D(H  21,C  16,C  15,H  18)   -177.63  0.001824   -0.49   -178.12   
   211. D(H  21,C  16,C  15,H  17)     63.67 -0.000237    0.19     63.86   
   212. D(H  21,C  16,C  15,N  14)    -56.88 -0.002827    1.56    -55.32   
   213. D(H  20,C  16,C  15,H  18)    -60.06  0.002651   -0.85    -60.91   
   214. D(H  20,C  16,C  15,H  17)   -178.77  0.000590   -0.16   -178.93   
   215. D(H  20,C  16,C  15,N  14)     60.69 -0.002000    1.21     61.89   
   216. D(C  19,C  16,C  15,H  18)     61.11  0.002330   -0.69     60.43   
   217. D(C  19,C  16,C  15,H  17)    -57.59  0.000269   -0.01    -57.59   
   218. D(C  19,C  16,C  15,N  14)   -178.13 -0.002321    1.36   -176.77   
   219. D(H  26,C  19,C  16,H  21)   -178.04 -0.000702   -0.00   -178.04   
   220. D(H  26,C  19,C  16,H  20)     64.90 -0.000083   -0.18     64.72   
   221. D(H  26,C  19,C  16,C  15)    -56.41 -0.000077   -0.17    -56.58   
   222. D(H  25,C  19,C  16,H  21)    -60.36 -0.000067   -0.17    -60.53   
   223. D(H  25,C  19,C  16,H  20)   -177.42  0.000552   -0.35   -177.78   
   224. D(H  25,C  19,C  16,C  15)     61.27  0.000558   -0.34     60.93   
   225. D(C  24,C  19,C  16,H  21)     60.77 -0.000306   -0.11     60.66   
   226. D(C  24,C  19,C  16,H  20)    -56.29  0.000312   -0.29    -56.59   
   227. D(C  24,C  19,C  16,C  15)   -177.60  0.000319   -0.28   -177.88   
   228. D(H  29,C  24,C  19,H  25)   -177.18  0.000781   -0.37   -177.55   
   229. D(H  29,C  24,C  19,C  16)     61.37  0.000408   -0.21     61.16   
   230. D(H  28,C  24,C  19,H  26)     59.29 -0.000468    0.16     59.45   
   231. D(H  28,C  24,C  19,H  25)    -57.56  0.000356   -0.15    -57.71   
   232. D(H  28,C  24,C  19,C  16)   -179.01 -0.000017    0.00   -179.00   
   233. D(H  27,C  24,C  19,H  26)    179.10 -0.000750    0.31    179.40   
   234. D(H  27,C  24,C  19,H  25)     62.25  0.000074   -0.01     62.24   
   235. D(H  29,C  24,C  19,H  26)    -60.34 -0.000043   -0.05    -60.39   
   236. D(H  27,C  24,C  19,C  16)    -59.20 -0.000299    0.15    -59.05   
    ----------------------------------------------------------------------------

         *************************************************************
         *                GEOMETRY OPTIMIZATION CYCLE   2            *
         *************************************************************
      -----------------------------------------------------------      
     |                   =====================                   |     
     |                           x T B                           |     
     |                   =====================                   |     
     |                         S. Grimme                         |     
     |          Mulliken Center for Theoretical Chemistry        |     
     |                    University of Bonn                     |     
      -----------------------------------------------------------      

   * xtb version 6.3.0 (49875a8) compiled by 'schneider@apollo14' on 2020-05-23

   xtb is free software: you can redistribute it and/or modify it under
   the terms of the GNU Lesser General Public License as published by
   the Free Software Foundation, either version 3 of the License, or
   (at your option) any later version.
   
   xtb is distributed in the hope that it will be useful,
   but WITHOUT ANY WARRANTY; without even the implied warranty of
   MERCHANTABILITY or FITNESS FOR A PARTICULAR PURPOSE.  See the
   GNU Lesser General Public License for more details.
   
   Cite this work as:
   * S. Grimme, C. Bannwarth, P. Shushkov, J. Chem. Theory Comput., 2017,
     13, 1989-2009. DOI: 10.1021/acs.jctc.7b00118
   * C. Bannwarth, S. Ehlert and S. Grimme., J. Chem. Theory Comput., 2019,
     15, 1652-1671. DOI: 10.1021/acs.jctc.8b01176
   * P. Pracht, E. Caldeweyher, S. Ehlert, S. Grimme, ChemRxiv, 2019, preprint.
     DOI: 10.26434/chemrxiv.8326202.v1
   
   for GFN-FF:
   * S. Spicher and S. Grimme, Angew. Chem. Int. Ed., 2020,
     DOI: 10.1002/anie.202004239
   
   for DFT-D4:
   * E. Caldeweyher, C. Bannwarth and S. Grimme, J. Chem. Phys., 2017,
     147, 034112. DOI: 10.1063/1.4993215
   * E. Caldeweyher, S. Ehlert, A. Hansen, H. Neugebauer, S. Spicher,
     C. Bannwarth and S. Grimme, J. Chem. Phys., 2019, 150, 154122.
     DOI: 10.1063/1.5090222
   
   for sTDA-xTB:
   * S. Grimme and C. Bannwarth, J. Chem. Phys., 2016, 145, 054103.
     DOI: 10.1063/1.4959605
   
   in the mass-spec context:
   * V. Asgeirsson, C. Bauer and S. Grimme, Chem. Sci., 2017, 8, 4879.
     DOI: 10.1039/c7sc00601b
   * J. Koopman and S. Grimme, ACS Omega 2019, 4, 12, 15120-15133.
     DOI: 10.1021/acsomega.9b02011
   
   for metadynamics refer to:
   * S. Grimme, J. Chem. Theory Comput., 2019, 155, 2847-2862
     DOI: 10.1021/acs.jctc.9b00143
   
   with help from (in alphabetical order)
   C. Bannwarth, F. Bohle, G. Brandenburg, E. Caldeweyher, M. Checinski,
   S. Dohm, S. Ehlert, S. Ehrlich, F. März, H. Neugebauer, J. Pisarek,
   P. Pracht, P. Shushkov, and S. Spicher.
   
 * started run on 2020/06/18 at 21:36:28.051     

           -------------------------------------------------
          |                Calculation Setup                |
           -------------------------------------------------

          program call               : /opt/orca/otool_xtb optts+freq_reactant_XTB.xyz --grad -c 0 -u 0 -P 12 --namespace optts+freq_reactant --gbsa CH2Cl2
          calculation namespace      : optts+freq_reactant
          coordinate file            : optts+freq_reactant_XTB.xyz
          number of atoms            :                    30
          number of electrons        :                    72
          charge                     :                     0
          spin                       :                   0.0
          first test random number   :      0.26051351027752

   ID    Z sym.   atoms
    1    6 C      1-6, 12, 16, 17, 20, 25
    2    1 H      7-11, 14, 18, 19, 21-24, 26-30
    3    8 O      13
    4    7 N      15

molecular fragmentation (1/2 indicates fragments):
111111111111112222222222222222
# atoms in fragment 1/2:    14    16
 fragment masses (1/2) :      106.12       73.14
CMA distance (Bohr)    :  10.662
constraining FC (au)   :  0.0500
########################################################################
[WARNING] Please study the warnings concerning your input carefully
-1- prog_main_parseArguments: Process number higher than OMP_NUM_THREADS, I hope you know what you are doing.
########################################################################
 Solvent             : CH2Cl2
 Using internal parameter file: .param_gbsa2_CH2Cl2
 Gsolv ref. state (COSMO-RS): gsolv [1 M gas/solution]
 temperature (mdtemp)       :    298.14999999999998     
 dielectric constant        :    8.9299999999999997     
 rho                        :    1.3300000000000003     
 mass                       :    84.930000000000007     
 surface tension            :    15.568945408385856     
 probe radius               :   0.71987590000000001     
 Gshift (Eh)                :    4.4408291734517593E-003
 c1                         :    1.4917377599999999     
 soset                      :    0.0000000000000000     
 HB correction              :  F

           -------------------------------------------------
          |                 G F N 2 - x T B                 |
           -------------------------------------------------

        Reference                      10.1021/acs.jctc.8b01176
      * Hamiltonian:
        H0-scaling (s, p, d)           1.850000    2.230000    2.230000
        zeta-weighting                 0.500000
      * Dispersion:
        s8                             2.700000
        a1                             0.520000
        a2                             5.000000
        s9                             5.000000
      * Repulsion:
        kExp                           1.500000    1.000000
        rExp                           1.000000
      * Coulomb:
        alpha                          2.000000
        third order                    shell-resolved
        anisotropic                    true
        a3                             3.000000
        a5                             4.000000
        cn-shift                       1.200000
        cn-exp                         4.000000
        max-rad                        5.000000


          ...................................................
          :                      SETUP                      :
          :.................................................:
          :  # basis functions                  69          :
          :  # atomic orbitals                  69          :
          :  # shells                           43          :
          :  # electrons                        72          :
          :  max. iterations                   250          :
          :  Hamiltonian                  GFN2-xTB          :
          :  restarted?                      false          :
          :  GBSA solvation                   true          :
          :  PC potential                    false          :
          :  electronic temp.          300.0000000     K    :
          :  accuracy                    1.0000000          :
          :  -> integral cutoff          0.2500000E+02      :
          :  -> integral neglect         0.1000000E-07      :
          :  -> SCF convergence          0.1000000E-05 Eh   :
          :  -> wf. convergence          0.1000000E-03 e    :
          :  Broyden damping             0.4000000          :
          ...................................................

 iter      E             dE          RMSdq      gap      omega  full diag
   1    -39.6917729 -0.396918E+02  0.433E+00    2.27       0.0  T
   2    -39.7563193 -0.645464E-01  0.234E+00    2.18       1.0  T
   3    -39.7563298 -0.105234E-04  0.112E+00    2.42       1.0  T
   4    -39.7616863 -0.535656E-02  0.201E-01    2.28       1.0  T
   5    -39.7622624 -0.576055E-03  0.722E-02    2.29       1.0  T
   6    -39.7623016 -0.392392E-04  0.365E-02    2.29       1.0  T
   7    -39.7623120 -0.104073E-04  0.114E-02    2.29       1.6  T
   8    -39.7623126 -0.570148E-06  0.380E-03    2.29       4.8  T
   9    -39.7623127 -0.772186E-07  0.158E-03    2.29      11.5  T
  10    -39.7623127 -0.162346E-07  0.764E-04    2.29      23.9  T
  11    -39.7623127 -0.253272E-08  0.321E-04    2.29      56.9  T

   *** convergence criteria satisfied after 11 iterations ***

         #    Occupation            Energy/Eh            Energy/eV
      -------------------------------------------------------------
         1        2.0000           -0.7130626             -19.4034
       ...           ...                  ...                  ...
        30        2.0000           -0.4347911             -11.8313
        31        2.0000           -0.4315820             -11.7439
        32        2.0000           -0.4256955             -11.5838
        33        2.0000           -0.4187211             -11.3940
        34        2.0000           -0.4165115             -11.3339
        35        2.0000           -0.4007268             -10.9043
        36        2.0000           -0.3760521             -10.2329 (HOMO)
        37                         -0.2917970              -7.9402 (LUMO)
        38                         -0.2346895              -6.3862
        39                         -0.2006256              -5.4593
        40                         -0.0936165              -2.5474
        41                          0.0281586               0.7662
       ...                                ...                  ...
        69                          0.6547769              17.8174
      -------------------------------------------------------------
                  HL-Gap            0.0842550 Eh            2.2927 eV
             Fermi-level           -0.3339246 Eh           -9.0865 eV

 SCC (total)                   0 d,  0 h,  0 min,  0.061 sec
 SCC setup                      ...        0 min,  0.001 sec (  1.398%)
 Dispersion                     ...        0 min,  0.000 sec (  0.430%)
 classical contributions        ...        0 min,  0.000 sec (  0.171%)
 integral evaluation            ...        0 min,  0.010 sec ( 15.682%)
 iterations                     ...        0 min,  0.026 sec ( 42.994%)
 molecular gradient             ...        0 min,  0.023 sec ( 37.897%)
 printout                       ...        0 min,  0.001 sec (  1.399%)

         :::::::::::::::::::::::::::::::::::::::::::::::::::::
         ::                     SUMMARY                     ::
         :::::::::::::::::::::::::::::::::::::::::::::::::::::
         :: total energy             -39.178700152031 Eh    ::
         :: total w/o Gsasa/hb       -39.161734608226 Eh    ::
         :: gradient norm              0.019911907311 Eh/a0 ::
         :: HOMO-LUMO gap              2.292696121721 eV    ::
         ::.................................................::
         :: SCC energy               -39.779278253126 Eh    ::
         :: -> isotropic ES            0.044367265358 Eh    ::
         :: -> anisotropic ES          0.005482695522 Eh    ::
         :: -> anisotropic XC          0.025878983491 Eh    ::
         :: -> dispersion             -0.021670506213 Eh    ::
         :: -> Gsolv                  -0.023158525193 Eh    ::
         ::    -> Gborn               -0.006192981387 Eh    ::
         ::    -> Gsasa               -0.021406372979 Eh    ::
         ::    -> Ghb                  0.000000000000 Eh    ::
         ::    -> Gshift               0.004440829173 Eh    ::
         :: repulsion energy           0.600465127156 Eh    ::
         :: add. restraining           0.000000000000 Eh    ::
         :::::::::::::::::::::::::::::::::::::::::::::::::::::

           -------------------------------------------------
          |                Property Printout                |
           -------------------------------------------------

    * Orbital Energies and Occupations

         #    Occupation            Energy/Eh            Energy/eV
      -------------------------------------------------------------
         1        2.0000           -0.7130626             -19.4034
       ...           ...                  ...                  ...
        24        2.0000           -0.4857335             -13.2175
        25        2.0000           -0.4818778             -13.1126
        26        2.0000           -0.4652885             -12.6611
        27        2.0000           -0.4500049             -12.2453
        28        2.0000           -0.4449620             -12.1080
        29        2.0000           -0.4390542             -11.9473
        30        2.0000           -0.4347911             -11.8313
        31        2.0000           -0.4315820             -11.7439
[...]
freq.     179.48  E(vib)   ...       0.37 
freq.     200.91  E(vib)   ...       0.35 
freq.     214.44  E(vib)   ...       0.34 
freq.     227.08  E(vib)   ...       0.33 
freq.     299.77  E(vib)   ...       0.26 
freq.     367.45  E(vib)   ...       0.21 
freq.     378.35  E(vib)   ...       0.21 
freq.     395.01  E(vib)   ...       0.20 
freq.     439.75  E(vib)   ...       0.17 
freq.     506.55  E(vib)   ...       0.14 
freq.     587.69  E(vib)   ...       0.10 
freq.     594.35  E(vib)   ...       0.10 
freq.     666.45  E(vib)   ...       0.08 
freq.     720.64  E(vib)   ...       0.07 
freq.     747.61  E(vib)   ...       0.06 
freq.     757.00  E(vib)   ...       0.06 
freq.     777.94  E(vib)   ...       0.05 
freq.     816.09  E(vib)   ...       0.05 
freq.     848.40  E(vib)   ...       0.04 
freq.     878.26  E(vib)   ...       0.04 
freq.     895.87  E(vib)   ...       0.03 
freq.     904.97  E(vib)   ...       0.03 
freq.     928.04  E(vib)   ...       0.03 
freq.     932.63  E(vib)   ...       0.03 
freq.     948.88  E(vib)   ...       0.03 
freq.     952.98  E(vib)   ...       0.03 
freq.     986.12  E(vib)   ...       0.02 
freq.    1033.32  E(vib)   ...       0.02 
freq.    1078.62  E(vib)   ...       0.02 
freq.    1098.43  E(vib)   ...       0.02 
freq.    1109.88  E(vib)   ...       0.02 
freq.    1116.82  E(vib)   ...       0.01 
freq.    1120.16  E(vib)   ...       0.01 
freq.    1137.94  E(vib)   ...       0.01 
freq.    1170.69  E(vib)   ...       0.01 
freq.    1179.90  E(vib)   ...       0.01 
freq.    1184.61  E(vib)   ...       0.01 
freq.    1190.07  E(vib)   ...       0.01 
freq.    1207.36  E(vib)   ...       0.01 
freq.    1220.95  E(vib)   ...       0.01 
freq.    1227.41  E(vib)   ...       0.01 
freq.    1260.93  E(vib)   ...       0.01 
freq.    1269.50  E(vib)   ...       0.01 
freq.    1272.36  E(vib)   ...       0.01 
freq.    1275.93  E(vib)   ...       0.01 
freq.    1287.07  E(vib)   ...       0.01 
freq.    1310.68  E(vib)   ...       0.01 
freq.    1337.16  E(vib)   ...       0.01 
freq.    1339.08  E(vib)   ...       0.01 
freq.    1366.22  E(vib)   ...       0.01 
freq.    1415.65  E(vib)   ...       0.00 
freq.    1439.59  E(vib)   ...       0.00 
freq.    1459.11  E(vib)   ...       0.00 
freq.    1468.59  E(vib)   ...       0.00 
freq.    1490.33  E(vib)   ...       0.00 
freq.    1492.48  E(vib)   ...       0.00 
freq.    1497.40  E(vib)   ...       0.00 
freq.    1502.19  E(vib)   ...       0.00 
freq.    1592.16  E(vib)   ...       0.00 
freq.    1598.67  E(vib)   ...       0.00 
freq.    1755.73  E(vib)   ...       0.00 
freq.    2731.91  E(vib)   ...       0.00 
freq.    2952.47  E(vib)   ...       0.00 
freq.    2967.29  E(vib)   ...       0.00 
freq.    2968.32  E(vib)   ...       0.00 
freq.    2982.02  E(vib)   ...       0.00 
freq.    2984.08  E(vib)   ...       0.00 
freq.    3000.33  E(vib)   ...       0.00 
freq.    3028.41  E(vib)   ...       0.00 
freq.    3032.32  E(vib)   ...       0.00 
freq.    3038.05  E(vib)   ...       0.00 
freq.    3062.78  E(vib)   ...       0.00 
freq.    3071.48  E(vib)   ...       0.00 
freq.    3075.40  E(vib)   ...       0.00 
freq.    3080.92  E(vib)   ...       0.00 
freq.    3090.44  E(vib)   ...       0.00 
freq.    3270.16  E(vib)   ...       0.00 

------------
INNER ENERGY
------------

The inner energy is: U= E(el) + E(ZPE) + E(vib) + E(rot) + E(trans)
    E(el)   - is the total energy from the electronic structure calculation
              = E(kin-el) + E(nuc-el) + E(el-el) + E(nuc-nuc)
    E(ZPE)  - the the zero temperature vibrational energy from the frequency calculation
    E(vib)  - the the finite temperature correction to E(ZPE) due to population
              of excited vibrational states
    E(rot)  - is the rotational thermal energy
    E(trans)- is the translational thermal energy

Summary of contributions to the inner energy U:
Electronic energy                ...    -39.15299780 Eh
Zero point energy                ...      0.25140866 Eh     157.76 kcal/mol
Thermal vibrational correction   ...      0.01082306 Eh       6.79 kcal/mol
Thermal rotational correction    ...      0.00141627 Eh       0.89 kcal/mol
Thermal translational correction ...      0.00141627 Eh       0.89 kcal/mol
-----------------------------------------------------------------------
Total thermal energy                    -38.88793353 Eh


Summary of corrections to the electronic energy:
(perhaps to be used in another calculation)
Total thermal correction                  0.01365561 Eh       8.57 kcal/mol
Non-thermal (ZPE) correction              0.25140866 Eh     157.76 kcal/mol
-----------------------------------------------------------------------
Total correction                          0.26506427 Eh     166.33 kcal/mol


--------
ENTHALPY
--------

The enthalpy is H = U + kB*T
                kB is Boltzmann's constant
Total free energy                 ...    -38.88793353 Eh 
Thermal Enthalpy correction       ...      0.00094421 Eh       0.59 kcal/mol
-----------------------------------------------------------------------
Total Enthalpy                    ...    -38.88698932 Eh


Note: Only C1 symmetry has been detected, increase convergence thresholds 
      if your molecule has a higher symmetry. Symmetry factor of 1.0 is   
      used for the rotational entropy correction. 
 

Note: Rotational entropy computed according to Herzberg 
Infrared and Raman Spectra, Chapter V,1, Van Nostrand Reinhold, 1945 
Point Group:  C1, Symmetry Number:   1  
Rotational constants in cm-1:     0.068622     0.010194     0.009596 

Vibrational entropy computed according to the QRRHO of S. Grimme
Chem.Eur.J. 2012 18 9955


-------
ENTROPY
-------

The entropy contributions are T*S = T*(S(el)+S(vib)+S(rot)+S(trans))
     S(el)   - electronic entropy
     S(vib)  - vibrational entropy
     S(rot)  - rotational entropy
     S(trans)- translational entropy
The entropies will be listed as mutliplied by the temperature to get
units of energy

Electronic entropy                ...      0.00000000 Eh      0.00 kcal/mol
Vibrational entropy               ...      0.01953585 Eh     12.26 kcal/mol
Rotational entropy                ...      0.01513416 Eh      9.50 kcal/mol
Translational entropy             ...      0.01969790 Eh     12.36 kcal/mol
-----------------------------------------------------------------------
Final entropy term                ...      0.05436791 Eh     34.12 kcal/mol

In case the symmetry of your molecule has not been determined correctly
or in case you have a reason to use a different symmetry number we print 
out the resulting rotational entropy values for sn=1,12 :
 --------------------------------------------------------
|  sn= 1 | S(rot)=       0.01513416 Eh      9.50 kcal/mol|
|  sn= 2 | S(rot)=       0.01447970 Eh      9.09 kcal/mol|
|  sn= 3 | S(rot)=       0.01409687 Eh      8.85 kcal/mol|
|  sn= 4 | S(rot)=       0.01382525 Eh      8.68 kcal/mol|
|  sn= 5 | S(rot)=       0.01361456 Eh      8.54 kcal/mol|
|  sn= 6 | S(rot)=       0.01344242 Eh      8.44 kcal/mol|
|  sn= 7 | S(rot)=       0.01329687 Eh      8.34 kcal/mol|
|  sn= 8 | S(rot)=       0.01317079 Eh      8.26 kcal/mol|
|  sn= 9 | S(rot)=       0.01305958 Eh      8.19 kcal/mol|
|  sn=10 | S(rot)=       0.01296010 Eh      8.13 kcal/mol|
|  sn=11 | S(rot)=       0.01287011 Eh      8.08 kcal/mol|
|  sn=12 | S(rot)=       0.01278796 Eh      8.02 kcal/mol|
 --------------------------------------------------------


-------------------
GIBBS FREE ENERGY
-------------------

The Gibbs free energy is G = H - T*S

Total enthalpy                    ...    -38.88698932 Eh 
Total entropy correction          ...     -0.05436791 Eh    -34.12 kcal/mol
-----------------------------------------------------------------------
Final Gibbs free energy         ...    -38.94135723 Eh

For completeness - the Gibbs free energy minus the electronic energy
G-E(el)                           ...      0.21164057 Eh    132.81 kcal/mol


Total Time for Numerical Frequencies  :        75.269 sec



------------------------------------------------------------------------------- 
                    Intrinsic Reaction Coordinate Calculation                  
------------------------------------------------------------------------------- 

System:
Nr. of atoms                        .... 30
Algorithm: SD (steepest descent step) plus correction
Settings:
Max. no of cycles        MaxIter    .... 1000
Direction                           .... Forward and backward
Initial displacement Hessian type   .... Read
Hessian Filename                    .... optts+freq_TSOpt.hess
Following Hessian mode              .... 0
Initial displacement type           .... Energy
  Initial displacement energy change.... 0.250 mEh
Coordinate system following type    .... Cartesian
Length of steepest descent step     .... 0.150 bohr
Do parabolic fit 
  if SD step is uphill              .... YES
Do Correction to SD step            .... YES
Scaling for length of correction
  compared to SD step               .... 0.333
Do parabolic fit to SD correction   .... YES
Only interpolate for parabolic fit  .... YES
Do update to length of
  SD step and correction            .... YES
Convergence Tolerances:
  Max. Gradient            TolMAXG  ....  1.0000e-03 Eh/bohr
  RMS Gradient             TolRMSG  ....  2.0000e-04 Eh/bohr
Storing full IRC trajectory in      .... optts+freq_TSOpt_IRC_Full_trj.xyz
Storing forward trajectory in       .... optts+freq_TSOpt_IRC_F_trj.xyz
Storing backward trajectory in      .... optts+freq_TSOpt_IRC_B_trj.xyz


 ...good, the file optts+freq_TSOpt.hess exists
Reading the hessian file           ...... done
Determining length of initial displacement:
  Requested energy change (quadratic behavior): 0.250 mEh
  Resulting scaling factor for initial displacement along normalized TS mode: 0.0754

         *************************************************************
         *                          FORWARD IRC                      *
         *************************************************************

Iteration    E(Eh)      dE(kcal/mol)  max(|G|)   RMS(G) 
Convergence thresholds                0.001000  0.000200            
    0       -39.153239   -0.151360    0.004796  0.000992
    1       -39.155785   -1.748888    0.016329  0.002790
    2       -39.159481   -4.068399    0.019798  0.003042
    3       -39.163739   -6.740441    0.019606  0.002990
    4       -39.167733   -9.246611    0.016545  0.002695
    5       -39.171019   -11.308659    0.013433  0.002208
    6       -39.173716   -13.000569    0.009946  0.001778
    7       -39.175814   -14.317608    0.007485  0.001404
    8       -39.177364   -15.290207    0.005245  0.001195
    9       -39.177691   -15.495222    0.004815  0.001161
   10       -39.177865   -15.604178    0.004578  0.000929
   11       -39.178140   -15.777126    0.004151  0.000791
   12       -39.178404   -15.942746    0.003694  0.000738
   13       -39.178633   -16.086316    0.003319  0.000642
   14       -39.178844   -16.218762    0.002908  0.000578
   15       -39.179031   -16.336231    0.002570  0.000511
   16       -39.179199   -16.441583    0.002212  0.000457
   17       -39.179348   -16.534779    0.001922  0.000406
   18       -39.179480   -16.617737    0.001643  0.000363
   19       -39.179597   -16.691448    0.001391  0.000327
   20       -39.179701   -16.756740    0.001196  0.000309
   21       -39.179789   -16.811457    0.000972  0.000351
   22       -39.179807   -16.823210    0.000951  0.000299
   23       -39.179826   -16.835121    0.000911  0.000268
   24       -39.179847   -16.848301    0.000875  0.000246
   25       -39.179869   -16.861826    0.000838  0.000242
   26       -39.179890   -16.874996    0.000803  0.000235
   27       -39.179910   -16.887937    0.000793  0.000231
   28       -39.179931   -16.900557    0.000787  0.000226
   29       -39.179950   -16.912968    0.000777  0.000222
   30       -39.179970   -16.925091    0.000771  0.000217
   31       -39.179989   -16.937021    0.000761  0.000213
   32       -39.180007   -16.948694    0.000754  0.000209
   33       -39.180026   -16.960186    0.000744  0.000205
   34       -39.180044   -16.971449    0.000737  0.000201
   35       -39.180061   -16.982544    0.000728  0.000198

                      ***********************HURRAY********************
                      ***            THE IRC HAS CONVERGED          ***
                      *************************************************


         *************************************************************
         *                          BACKWARD IRC                     *
         *************************************************************

Iteration    E(Eh)      dE(kcal/mol)  max(|G|)   RMS(G) 
Convergence thresholds                0.001000  0.000200            
    0       -39.153254   -0.160562    0.005488  0.001021
    1       -39.157096   -2.571557    0.023475  0.004781
    2       -39.163228   -6.419511    0.035575  0.005466
    3       -39.171971   -11.905715    0.042817  0.006592
    4       -39.180512   -17.265358    0.038186  0.005939
    5       -39.187599   -21.712797    0.028325  0.004652
    6       -39.193048   -25.131966    0.023454  0.003717
    7       -39.197514   -27.934041    0.018564  0.002991
    8       -39.201062   -30.160968    0.013692  0.002359
    9       -39.203867   -31.920560    0.010236  0.001838
   10       -39.206007   -33.263581    0.008458  0.001413
   11       -39.207610   -34.269740    0.005128  0.001125
   12       -39.208147   -34.606534    0.004678  0.001281
   13       -39.208290   -34.696463    0.004680  0.000941
   14       -39.208565   -34.868879    0.004411  0.000801
   15       -39.208836   -35.038734    0.003890  0.000746
   16       -39.209076   -35.189558    0.003711  0.000667
   17       -39.209298   -35.328727    0.003065  0.000612
   18       -39.209495   -35.452399    0.003086  0.000548
   19       -39.209673   -35.563906    0.002548  0.000488
   20       -39.209831   -35.663412    0.002225  0.000435
   21       -39.209971   -35.751198    0.002025  0.000385
   22       -39.210094   -35.828122    0.001581  0.000350
   23       -39.210195   -35.891823    0.001632  0.000365
   24       -39.210227   -35.911679    0.001356  0.000360
   25       -39.210243   -35.922015    0.001321  0.000289
   26       -39.210266   -35.936467    0.001269  0.000266
   27       -39.210290   -35.951049    0.001212  0.000258
   28       -39.210312   -35.965045    0.001159  0.000249
   29       -39.210333   -35.978577    0.001105  0.000241
   30       -39.210354   -35.991661    0.001056  0.000233
   31       -39.210374   -36.004316    0.001005  0.000225
   32       -39.210394   -36.016557    0.000960  0.000218
   33       -39.210413   -36.028404    0.000913  0.000211
   34       -39.210431   -36.039869    0.000872  0.000204
   35       -39.210449   -36.050972    0.000828  0.000198

                      ***********************HURRAY********************
                      ***            THE IRC HAS CONVERGED          ***
                      *************************************************


---------------------------------------------------------------
                       IRC PATH SUMMARY              
---------------------------------------------------------------
All gradients are in Eh/Bohr.

Step        E(Eh)      dE(kcal/mol)  max(|G|)   RMS(G) 
   1       -39.210449   -36.050972    0.000828  0.000198
   2       -39.210431   -36.039869    0.000872  0.000204
   3       -39.210413   -36.028404    0.000913  0.000211
   4       -39.210394   -36.016557    0.000960  0.000218
   5       -39.210374   -36.004316    0.001005  0.000225
   6       -39.210354   -35.991661    0.001056  0.000233
   7       -39.210333   -35.978577    0.001105  0.000241
   8       -39.210312   -35.965045    0.001159  0.000249
   9       -39.210290   -35.951049    0.001212  0.000258
  10       -39.210266   -35.936467    0.001269  0.000266
  11       -39.210243   -35.922015    0.001321  0.000289
  12       -39.210227   -35.911679    0.001356  0.000360
  13       -39.210195   -35.891823    0.001632  0.000365
  14       -39.210094   -35.828122    0.001581  0.000350
  15       -39.209971   -35.751198    0.002025  0.000385
  16       -39.209831   -35.663412    0.002225  0.000435
  17       -39.209673   -35.563906    0.002548  0.000488
  18       -39.209495   -35.452399    0.003086  0.000548
  19       -39.209298   -35.328727    0.003065  0.000612
  20       -39.209076   -35.189558    0.003711  0.000667
  21       -39.208836   -35.038734    0.003890  0.000746
  22       -39.208565   -34.868879    0.004411  0.000801
  23       -39.208290   -34.696463    0.004680  0.000941
  24       -39.208147   -34.606534    0.004678  0.001281
  25       -39.207610   -34.269740    0.005128  0.001125
  26       -39.206007   -33.263581    0.008458  0.001413
  27       -39.203867   -31.920560    0.010236  0.001838
  28       -39.201062   -30.160968    0.013692  0.002359
  29       -39.197514   -27.934041    0.018564  0.002991
  30       -39.193048   -25.131966    0.023454  0.003717
  31       -39.187599   -21.712797    0.028325  0.004652
  32       -39.180512   -17.265358    0.038186  0.005939
  33       -39.171971   -11.905715    0.042817  0.006592
  34       -39.163228   -6.419511    0.035575  0.005466
  35       -39.157096   -2.571557    0.023475  0.004781
  36       -39.153254   -0.160562    0.005488  0.001021
  37       -39.152998    0.000000    0.000174  0.000043 <= TS
  38       -39.153239   -0.151360    0.004796  0.000992
  39       -39.155785   -1.748888    0.016329  0.002790
  40       -39.159481   -4.068399    0.019798  0.003042
  41       -39.163739   -6.740441    0.019606  0.002990
  42       -39.167733   -9.246611    0.016545  0.002695
  43       -39.171019   -11.308659    0.013433  0.002208
  44       -39.173716   -13.000569    0.009946  0.001778
  45       -39.175814   -14.317608    0.007485  0.001404
  46       -39.177364   -15.290207    0.005245  0.001195
  47       -39.177691   -15.495222    0.004815  0.001161
  48       -39.177865   -15.604178    0.004578  0.000929
  49       -39.178140   -15.777126    0.004151  0.000791
  50       -39.178404   -15.942746    0.003694  0.000738
  51       -39.178633   -16.086316    0.003319  0.000642
  52       -39.178844   -16.218762    0.002908  0.000578
  53       -39.179031   -16.336231    0.002570  0.000511
  54       -39.179199   -16.441583    0.002212  0.000457
  55       -39.179348   -16.534779    0.001922  0.000406
  56       -39.179480   -16.617737    0.001643  0.000363
  57       -39.179597   -16.691448    0.001391  0.000327
  58       -39.179701   -16.756740    0.001196  0.000309
  59       -39.179789   -16.811457    0.000972  0.000351
  60       -39.179807   -16.823210    0.000951  0.000299
  61       -39.179826   -16.835121    0.000911  0.000268
  62       -39.179847   -16.848301    0.000875  0.000246
  63       -39.179869   -16.861826    0.000838  0.000242
  64       -39.179890   -16.874996    0.000803  0.000235
  65       -39.179910   -16.887937    0.000793  0.000231
  66       -39.179931   -16.900557    0.000787  0.000226
  67       -39.179950   -16.912968    0.000777  0.000222
  68       -39.179970   -16.925091    0.000771  0.000217
  69       -39.179989   -16.937021    0.000761  0.000213
  70       -39.180007   -16.948694    0.000754  0.000209
  71       -39.180026   -16.960186    0.000744  0.000205
  72       -39.180044   -16.971449    0.000737  0.000201
  73       -39.180061   -16.982544    0.000728  0.000198

Timings for individual modules:

Sum of individual times         ...      159.973 sec (=   2.666 min)
Geometry relaxation             ...       15.816 sec (=   0.264 min)   9.9 %
XTB module                      ...       37.527 sec (=   0.625 min)  23.5 %
                             ****ORCA TERMINATED NORMALLY****
TOTAL RUN TIME: 0 days 0 hours 14 minutes 38 seconds 602 msec
