
                                 *****************
                                 * O   R   C   A *
                                 *****************

           --- An Ab Initio, DFT and Semiempirical electronic structure package ---

                  #######################################################
                  #                        -***-                        #
                  #          Department of theory and spectroscopy      #
                  #               Directorship: Frank Neese             #
                  #        Max Planck Institute fuer Kohlenforschung    #
                  #                Kaiser Wilhelm Platz 1               #
                  #                 D-45470 Muelheim/Ruhr               #
                  #                      Germany                        #
                  #                                                     #
                  #                  All rights reserved                #
                  #                        -***-                        #
                  #######################################################


                         Program Version 4.2.1 -  RELEASE  -


 With contributions from (in alphabetic order):
   Daniel Aravena         : Magnetic Suceptibility
   Michael Atanasov       : Ab Initio Ligand Field Theory (pilot matlab implementation)
   Alexander A. Auer      : GIAO ZORA, VPT2
   Ute Becker             : Parallelization
   Giovanni Bistoni       : ED, misc. LED, open-shell LED, HFLD
   Martin Brehm           : Molecular dynamics
   Dmytro Bykov           : SCF Hessian
   Vijay G. Chilkuri      : MRCI spin determinant printing, contributions to CSF-ICE
   Dipayan Datta          : RHF DLPNO-CCSD density
   Achintya Kumar Dutta   : EOM-CC, STEOM-CC
   Dmitry Ganyushin       : Spin-Orbit,Spin-Spin,Magnetic field MRCI
   Miquel Garcia          : C-PCM Hessian, Gaussian charge scheme
   Yang Guo               : DLPNO-NEVPT2, CIM, IAO-localization
   Andreas Hansen         : Spin unrestricted coupled pair/coupled cluster methods
   Benjamin Helmich-Paris : CASSCF linear response (MC-RPA)
   Lee Huntington         : MR-EOM, pCC
   Robert Izsak           : Overlap fitted RIJCOSX, COSX-SCS-MP3, EOM
   Christian Kollmar      : KDIIS, OOCD, Brueckner-CCSD(T), CCSD density
   Simone Kossmann        : Meta GGA functionals, TD-DFT gradient, OOMP2, MP2 Hessian
   Martin Krupicka        : AUTO-CI
   Lucas Lang             : DCDCAS
   Dagmar Lenk            : GEPOL surface, SMD
   Dimitrios Liakos       : Extrapolation schemes; Compound Job, initial MDCI parallelization
   Dimitrios Manganas     : Further ROCIS development; embedding schemes
   Dimitrios Pantazis     : SARC Basis sets
   Taras Petrenko         : DFT Hessian,TD-DFT gradient, ASA, ECA, R-Raman, ABS, FL, XAS/XES, NRVS
   Peter Pinski           : DLPNO-MP2, DLPNO-MP2 Gradient
   Christoph Reimann      : Effective Core Potentials
   Marius Retegan         : Local ZFS, SOC
   Christoph Riplinger    : Optimizer, TS searches, QM/MM, DLPNO-CCSD(T), (RO)-DLPNO pert. Triples
   Tobias Risthaus        : Range-separated hybrids, TD-DFT gradient, RPA, STAB
   Michael Roemelt        : Original ROCIS implementation
   Masaaki Saitow         : Open-shell DLPNO-CCSD energy and density
   Barbara Sandhoefer     : DKH picture change effects
   Avijit Sen             : IP-ROCIS
   Kantharuban Sivalingam : CASSCF convergence, NEVPT2, FIC-MRCI
   Bernardo de Souza      : ESD, SOC TD-DFT
   Georgi Stoychev        : AutoAux, RI-MP2 NMR
   Willem Van den Heuvel  : Paramagnetic NMR
   Boris Wezisla          : Elementary symmetry handling
   Frank Wennmohs         : Technical directorship


 We gratefully acknowledge several colleagues who have allowed us to
 interface, adapt or use parts of their codes:
   Stefan Grimme, W. Hujo, H. Kruse,             : VdW corrections, initial TS optimization,
                  C. Bannwarth                     DFT functionals, gCP, sTDA/sTD-DF
   Ed Valeev, F. Pavosevic, A. Kumar             : LibInt (2-el integral package), F12 methods
   Garnet Chan, S. Sharma, J. Yang, R. Olivares  : DMRG
   Ulf Ekstrom                                   : XCFun DFT Library
   Mihaly Kallay                                 : mrcc  (arbitrary order and MRCC methods)
   Andreas Klamt, Michael Diedenhofen            : otool_cosmo (COSMO solvation model)
   Jiri Pittner, Ondrej Demel                    : Mk-CCSD
   Frank Weinhold                                : gennbo (NPA and NBO analysis)
   Christopher J. Cramer and Donald G. Truhlar   : smd solvation model
   Lars Goerigk                                  : TD-DFT with DH, B97 family of functionals
   V. Asgeirsson, H. Jonsson                     : NEB implementation
   FAccTs GmbH                                   : IRC, NEB, NEB-TS, Multilevel, MM, QM/MM, CI optimization
   S Lehtola, MJT Oliveira, MAL Marques          : LibXC Library


 Your calculation uses the libint2 library for the computation of 2-el integrals
 For citations please refer to: http://libint.valeyev.net

 Your ORCA version has been built with support for libXC version: 4.2.3
 For citations please refer to: https://tddft.org/programs/libxc/

 This ORCA versions uses:
   CBLAS   interface :  Fast vector & matrix operations
   LAPACKE interface :  Fast linear algebra routines
   SCALAPACK package :  Parallel linear algebra routines




***************************************
The coordinates will be read from file: init.xyz
***************************************


Your calculation utilizes the SMD solvation module
Please cite in your paper:
A.V. Marenich, C.J. Cramer, D.G. Truhlar J. Phys. Chem. B, 113, (2009), 6378 

Your calculation utilizes the semiempirical GFN2-xTB method
Please cite in your paper:
C. Bannwarth, Ehlert S., S. Grimme,  J. Chem. Theory Comput., 15, (2019), 1652.
   

Your calculation utilizes a Nudged-Elastic-Band implementation
 by V.Asgeirsson, C. Riplinger & H. Jonsson
Please cite in your paper:
 V. Asgeirsson et al., in prep. (2019)
   

----- Orbital basis set information -----
Your calculation utilizes the basis: def2-SVP
   F. Weigend and R. Ahlrichs, Phys. Chem. Chem. Phys. 7, 3297 (2005).

================================================================================
                                        WARNINGS
                       Please study these warnings very carefully!
================================================================================


WARNING: The environment variable RSH_COMMAND is not set!
  ===> : All Displacements for the Numerical Hessian calculation
         will be started on localhost

WARNING: Geometry Optimization
  ===> : Switching off AutoStart
         For restart on a previous wavefunction, please use MOREAD

WARNING: Found dipole moment calculation with XTB calculation
  ===> : Switching off dipole moment calculation


INFO   : the flag for use of LIBINT has been found!

================================================================================
                                       INPUT FILE
================================================================================
NAME = optts+freq.inp
|  1> ! XTB2 NEB-TS NumFreq IRC
|  2> 
|  3> %neb
|  4>  # neb_ts_xyzfile "guess.xyz"
|  5>  neb_end_xyzfile "final.xyz"
|  6> 
|  7>  interpolation XTB2TS
|  8>  # interpolation XTB2
|  9>  preopt_ends true
| 10>  reparam 35
| 11>  nimages 10
| 12> end
| 13> 
| 14> %geom
| 15>  maxiter 1000
| 16> end
| 17> 
| 18> %irc
| 19>  maxiter 1000
| 20>  de_init_displ 0.25
| 21>  TolMAXG 1e-3
| 22>  TolRMSG 2e-4
| 23> end
| 24> 
| 25> *xyzfile 0 1 init.xyz
| 26> 
| 27> %pal
| 28>  nprocs 12
| 29> end
| 30> 
| 31> %cpcm
| 32>  smd true
| 33>  smdsolvent "ch2cl2"
| 34> end
| 35> 
| 36> 
| 37>                          ****END OF INPUT****
================================================================================


------------------------------------------------------------------------------- 
                         Nudged Elastic Band Calculation                       
------------------------------------------------------------------------------- 

Number of images (incl. end points)     ....  12
Number of intermediate images           ....  10
Number of optimized images              ....  10
Optimization of end points before NEB   ....  YES
Use existing gbw files for MO input     ....  NO
Number of atoms                         ....  30
Number of (active) degrees of freedom   ....  90
Constrained atoms                       ....  None


Before the actual NEB run reactant and product are preoptimized.

---------------------------------------------------------------
                        REACTANT OPTIMIZATION            
---------------------------------------------------------------

Geometry optimization settings:
Update method            Update   .... BFGS
Choice of coordinates    CoordSys .... Z-matrix Internals
Initial Hessian          InHess   .... Almoef's Model

Convergence Tolerances:
Energy Change            TolE     ....  5.0000e-06 Eh
Max. Gradient            TolMAXG  ....  3.0000e-04 Eh/bohr
RMS Gradient             TolRMSG  ....  1.0000e-04 Eh/bohr
Max. Displacement        TolMAXD  ....  4.0000e-03 bohr
RMS Displacement         TolRMSD  ....  2.0000e-03 bohr
Strict Convergence                ....  False
------------------------------------------------------------------------------
                        ORCA OPTIMIZATION COORDINATE SETUP
------------------------------------------------------------------------------

The optimization will be done in new redundant internal coordinates
Making redundant internal coordinates   ...  (new redundants) done
Evaluating the initial hessian          ...  (Almloef) done
Evaluating the coordinates              ...  done
Calculating the B-matrix                .... done
Calculating the G-matrix                .... done
Diagonalizing the G-matrix              .... done
Small eigenvalue found = 5.337e-03
Small eigenvalue found = 7.186e-03
Small eigenvalue found = 1.690e-02
The first mode is                       ....   70
The number of degrees of freedom        ....   84

    -----------------------------------------------------------------
                    Redundant Internal Coordinates


    -----------------------------------------------------------------
         Definition                    Initial Value    Approx d2E/dq
    -----------------------------------------------------------------
      1. B(C   1,C   0)                  1.3970         0.608962   
      2. B(C   2,C   1)                  1.3936         0.616563   
      3. B(C   3,C   2)                  1.3927         0.618524   
      4. B(C   4,C   3)                  1.3959         0.611485   
      5. B(C   5,C   4)                  1.4051         0.590990   
      6. B(C   5,C   0)                  1.4043         0.592814   
      7. B(H   6,C   0)                  1.0877         0.363204   
      8. B(H   7,C   1)                  1.0869         0.364218   
      9. B(H   8,C   2)                  1.0868         0.364387   
     10. B(H   9,C   3)                  1.0868         0.364295   
     11. B(H  10,C   4)                  1.0885         0.362041   
     12. B(C  11,C   5)                  1.5155         0.393998   
     13. B(O  12,C  11)                  1.4098         0.520334   
     14. B(H  13,C  11)                  1.0961         0.352169   
     15. B(N  14,C  11)                  1.4529         0.444092   
     16. B(C  15,N  14)                  1.4624         0.428879   
     17. B(C  16,C  15)                  1.5324         0.370304   
     18. B(H  17,C  15)                  1.0966         0.351440   
     19. B(H  18,C  15)                  1.0967         0.351286   
     20. B(C  19,C  16)                  1.5292         0.374717   
     21. B(H  20,C  16)                  1.0976         0.350236   
     22. B(H  21,C  16)                  1.0963         0.351848   
     23. B(H  22,N  14)                  1.0208         0.415916   
     24. B(H  23,O  12)                  0.9722         0.497225   
     25. B(C  24,C  19)                  1.5208         0.386446   
     26. B(H  25,C  19)                  1.0961         0.352140   
     27. B(H  26,C  19)                  1.0962         0.351952   
     28. B(H  27,C  24)                  1.0947         0.353919   
     29. B(H  28,C  24)                  1.0944         0.354271   
     30. B(H  29,C  24)                  1.0948         0.353818   
     31. A(C   1,C   0,C   5)          120.6826         0.429196   
     32. A(C   1,C   0,H   6)          119.0490         0.352349   
     33. A(C   5,C   0,H   6)          120.2677         0.350752   
     34. A(C   2,C   1,H   7)          119.8778         0.353256   
     35. A(C   0,C   1,H   7)          120.0162         0.352515   
     36. A(C   0,C   1,C   2)          120.1059         0.432234   
     37. A(C   1,C   2,H   8)          120.0910         0.353284   
     38. A(C   1,C   2,C   3)          119.9421         0.433446   
     39. A(C   3,C   2,H   8)          119.9668         0.353474   
     40. A(C   4,C   3,H   9)          119.8625         0.352775   
     41. A(C   2,C   3,H   9)          120.1396         0.353459   
     42. A(C   2,C   3,C   4)          119.9976         0.432802   
     43. A(C   3,C   4,H  10)          119.3141         0.352405   
     44. A(C   3,C   4,C   5)          120.8447         0.429277   
     45. A(C   5,C   4,H  10)          119.8388         0.350380   
     46. A(C   0,C   5,C   4)          118.4212         0.426897   
     47. A(C   4,C   5,C  11)          121.3326         0.397054   
     48. A(C   0,C   5,C  11)          120.2021         0.397269   
     49. A(H  13,C  11,N  14)          113.2564         0.330477   
     50. A(C   5,C  11,N  14)          112.1293         0.375384   
     51. A(O  12,C  11,H  13)          106.3379         0.339294   
     52. A(C   5,C  11,H  13)          108.9790         0.325973   
     53. A(O  12,C  11,N  14)          105.7399         0.391481   
     54. A(C   5,C  11,O  12)          110.1822         0.385840   
     55. A(C  11,O  12,H  23)          101.4861         0.356464   
     56. A(C  11,N  14,C  15)          113.1749         0.378533   
     57. A(C  11,N  14,H  22)          107.5268         0.336822   
     58. A(C  15,N  14,H  22)          108.7802         0.334874   
     59. A(H  17,C  15,H  18)          106.5130         0.288608   
     60. A(C  16,C  15,H  18)          108.3646         0.322537   
     61. A(N  14,C  15,H  18)          107.6446         0.328444   
     62. A(C  16,C  15,H  17)          111.2547         0.322561   
     63. A(N  14,C  15,H  17)          111.3255         0.328467   
     64. A(N  14,C  15,C  16)          111.4979         0.369172   
     65. A(H  20,C  16,H  21)          106.9516         0.288525   
     66. A(C  19,C  16,H  21)          109.1421         0.323249   
     67. A(C  15,C  16,H  21)          110.4770         0.322622   
     68. A(C  19,C  16,H  20)          109.2766         0.323006   
     69. A(C  15,C  16,H  20)          109.5547         0.322379   
     70. A(C  15,C  16,C  19)          111.3314         0.362995   
     71. A(H  25,C  19,H  26)          107.2798         0.288783   
     72. A(C  24,C  19,H  26)          109.0934         0.324905   
     73. A(C  16,C  19,H  26)          109.8623         0.323265   
     74. A(C  24,C  19,H  25)          109.2112         0.324933   
     75. A(C  16,C  19,H  25)          109.8999         0.323293   
     76. A(C  16,C  19,C  24)          111.3979         0.365654   
     77. A(H  28,C  24,H  29)          108.0727         0.289296   
     78. A(H  27,C  24,H  29)          108.2780         0.289251   
     79. A(C  19,C  24,H  29)          111.0095         0.325187   
     80. A(H  27,C  24,H  28)          108.0881         0.289309   
     81. A(C  19,C  24,H  28)          110.2951         0.325256   
     82. A(C  19,C  24,H  27)          110.9903         0.325203   
     83. D(C   2,C   1,C   0,H   6)    179.8757         0.025606   
     84. D(C   2,C   1,C   0,C   5)     -0.4291         0.025606   
     85. D(H   7,C   1,C   0,C   5)    179.4534         0.025606   
     86. D(H   7,C   1,C   0,H   6)     -0.2419         0.025606   
     87. D(C   3,C   2,C   1,H   7)   -179.9712         0.026288   
     88. D(C   3,C   2,C   1,C   0)     -0.0886         0.026288   
     89. D(H   8,C   2,C   1,C   0)    179.7889         0.026288   
     90. D(H   8,C   2,C   1,H   7)     -0.0937         0.026288   
     91. D(H   9,C   3,C   2,C   1)    179.8958         0.026465   
     92. D(H   9,C   3,C   2,H   8)      0.0182         0.026465   
     93. D(C   4,C   3,C   2,H   8)   -179.7518         0.026465   
     94. D(C   4,C   3,C   2,C   1)      0.1259         0.026465   
     95. D(C   5,C   4,C   3,H   9)   -179.4165         0.025831   
     96. D(H  10,C   4,C   3,C   2)    179.8006         0.025831   
     97. D(C   5,C   4,C   3,C   2)      0.3541         0.025831   
     98. D(H  10,C   4,C   3,H   9)      0.0300         0.025831   
     99. D(C  11,C   5,C   4,H  10)      2.1158         0.024040   
    100. D(C   0,C   5,C   4,H  10)    179.7046         0.024040   
    101. D(C   0,C   5,C   4,C   3)     -0.8518         0.024040   
    102. D(C  11,C   5,C   0,H   6)     -1.8035         0.024196   
    103. D(C  11,C   5,C   0,C   1)    178.5050         0.024196   
    104. D(C  11,C   5,C   4,C   3)   -178.4406         0.024040   
    105. D(C   4,C   5,C   0,H   6)   -179.4205         0.024196   
    106. D(C   4,C   5,C   0,C   1)      0.8880         0.024196   
    107. D(N  14,C  11,C   5,C   4)     82.6077         0.011537   
    108. D(N  14,C  11,C   5,C   0)    -94.9387         0.011537   
    109. D(H  13,C  11,C   5,C   4)   -151.1924         0.011537   
    110. D(O  12,C  11,C   5,C   0)    147.5789         0.011537   
    111. D(O  12,C  11,C   5,C   4)    -34.8747         0.011537   
    112. D(H  13,C  11,C   5,C   0)     31.2612         0.011537   
    113. D(H  23,O  12,C  11,C   5)    137.8643         0.021467   
    114. D(H  23,O  12,C  11,N  14)     16.4936         0.021467   
    115. D(H  23,O  12,C  11,H  13)   -104.1775         0.021467   
    116. D(H  22,N  14,C  11,O  12)    110.4104         0.016819   
    117. D(H  22,N  14,C  11,C   5)     -9.6931         0.016819   
    118. D(C  15,N  14,C  11,H  13)    -13.3732         0.016819   
    119. D(C  15,N  14,C  11,O  12)   -129.4282         0.016819   
    120. D(H  22,N  14,C  11,H  13)   -133.5347         0.016819   
    121. D(C  15,N  14,C  11,C   5)    110.4684         0.016819   
    122. D(H  18,C  15,N  14,H  22)    -44.5783         0.015682   
    123. D(H  18,C  15,N  14,C  11)   -164.0223         0.015682   
    124. D(H  17,C  15,N  14,H  22)     71.8044         0.015682   
    125. D(H  17,C  15,N  14,C  11)    -47.6395         0.015682   
    126. D(C  16,C  15,N  14,H  22)   -163.3041         0.015682   
    127. D(C  16,C  15,N  14,C  11)     77.2520         0.015682   
    128. D(H  21,C  16,C  15,H  18)    178.9079         0.010961   
    129. D(H  21,C  16,C  15,H  17)     62.1339         0.010961   
    130. D(H  21,C  16,C  15,N  14)    -62.7971         0.010961   
    131. D(H  20,C  16,C  15,H  18)    -63.5165         0.010961   
    132. D(H  20,C  16,C  15,H  17)    179.7095         0.010961   
    133. D(H  20,C  16,C  15,N  14)     54.7784         0.010961   
    134. D(C  19,C  16,C  15,H  18)     57.4682         0.010961   
    135. D(C  19,C  16,C  15,H  17)    -59.3058         0.010961   
    136. D(C  19,C  16,C  15,N  14)    175.7632         0.010961   
    137. D(H  26,C  19,C  16,H  20)     62.2418         0.011208   
    138. D(H  26,C  19,C  16,C  15)    -58.9056         0.011208   
    139. D(H  25,C  19,C  16,H  21)    -63.3029         0.011208   
    140. D(H  25,C  19,C  16,H  20)   -179.9410         0.011208   
    141. D(H  25,C  19,C  16,C  15)     58.9116         0.011208   
    142. D(C  24,C  19,C  16,H  21)     57.8755         0.011208   
    143. D(C  24,C  19,C  16,H  20)    -58.7626         0.011208   
    144. D(H  26,C  19,C  16,H  21)    178.8799         0.011208   
    145. D(C  24,C  19,C  16,C  15)   -179.9101         0.011208   
    146. D(H  29,C  24,C  19,H  26)    -61.6570         0.011883   
    147. D(H  29,C  24,C  19,C  16)     59.7960         0.011883   
    148. D(H  28,C  24,C  19,H  26)     58.1012         0.011883   
    149. D(H  28,C  24,C  19,H  25)    -58.8664         0.011883   
    150. D(H  28,C  24,C  19,C  16)    179.5542         0.011883   
    151. D(H  27,C  24,C  19,H  26)    177.8662         0.011883   
    152. D(H  29,C  24,C  19,H  25)   -178.6245         0.011883   
    153. D(H  27,C  24,C  19,H  25)     60.8987         0.011883   
    154. D(H  27,C  24,C  19,C  16)    -60.6808         0.011883   
    -----------------------------------------------------------------

Number of atoms                         .... 30
Number of degrees of freedom            .... 154

         *************************************************************
         *                GEOMETRY OPTIMIZATION CYCLE   1            *
         *************************************************************
      -----------------------------------------------------------      
     |                   =====================                   |     
     |                           x T B                           |     
     |                   =====================                   |     
     |                         S. Grimme                         |     
     |          Mulliken Center for Theoretical Chemistry        |     
     |                    University of Bonn                     |     
      -----------------------------------------------------------      

   * xtb version 6.3.0 (49875a8) compiled by 'schneider@apollo14' on 2020-05-23

   xtb is free software: you can redistribute it and/or modify it under
   the terms of the GNU Lesser General Public License as published by
   the Free Software Foundation, either version 3 of the License, or
   (at your option) any later version.
   
   xtb is distributed in the hope that it will be useful,
   but WITHOUT ANY WARRANTY; without even the implied warranty of
   MERCHANTABILITY or FITNESS FOR A PARTICULAR PURPOSE.  See the
   GNU Lesser General Public License for more details.
   
   Cite this work as:
   * S. Grimme, C. Bannwarth, P. Shushkov, J. Chem. Theory Comput., 2017,
     13, 1989-2009. DOI: 10.1021/acs.jctc.7b00118
   * C. Bannwarth, S. Ehlert and S. Grimme., J. Chem. Theory Comput., 2019,
     15, 1652-1671. DOI: 10.1021/acs.jctc.8b01176
   * P. Pracht, E. Caldeweyher, S. Ehlert, S. Grimme, ChemRxiv, 2019, preprint.
     DOI: 10.26434/chemrxiv.8326202.v1
   
   for GFN-FF:
   * S. Spicher and S. Grimme, Angew. Chem. Int. Ed., 2020,
     DOI: 10.1002/anie.202004239
   
   for DFT-D4:
   * E. Caldeweyher, C. Bannwarth and S. Grimme, J. Chem. Phys., 2017,
     147, 034112. DOI: 10.1063/1.4993215
   * E. Caldeweyher, S. Ehlert, A. Hansen, H. Neugebauer, S. Spicher,
     C. Bannwarth and S. Grimme, J. Chem. Phys., 2019, 150, 154122.
     DOI: 10.1063/1.5090222
   
   for sTDA-xTB:
   * S. Grimme and C. Bannwarth, J. Chem. Phys., 2016, 145, 054103.
     DOI: 10.1063/1.4959605
   
   in the mass-spec context:
   * V. Asgeirsson, C. Bauer and S. Grimme, Chem. Sci., 2017, 8, 4879.
     DOI: 10.1039/c7sc00601b
   * J. Koopman and S. Grimme, ACS Omega 2019, 4, 12, 15120-15133.
     DOI: 10.1021/acsomega.9b02011
   
   for metadynamics refer to:
   * S. Grimme, J. Chem. Theory Comput., 2019, 155, 2847-2862
     DOI: 10.1021/acs.jctc.9b00143
   
   with help from (in alphabetical order)
   C. Bannwarth, F. Bohle, G. Brandenburg, E. Caldeweyher, M. Checinski,
   S. Dohm, S. Ehlert, S. Ehrlich, F. März, H. Neugebauer, J. Pisarek,
   P. Pracht, P. Shushkov, and S. Spicher.
   
 * started run on 2020/06/18 at 22:00:48.642     

           -------------------------------------------------
          |                Calculation Setup                |
           -------------------------------------------------

          program call               : /opt/orca/otool_xtb optts+freq_reactant_XTB.xyz --grad -c 0 -u 0 -P 12 --namespace optts+freq_reactant --gbsa CH2Cl2
          calculation namespace      : optts+freq_reactant
          coordinate file            : optts+freq_reactant_XTB.xyz
          number of atoms            :                    30
          number of electrons        :                    72
          charge                     :                     0
          spin                       :                   0.0
          first test random number   :      0.94201831787626

   ID    Z sym.   atoms
    1    6 C      1-6, 12, 16, 17, 20, 25
    2    1 H      7-11, 14, 18, 19, 21-24, 26-30
    3    8 O      13
    4    7 N      15
########################################################################
[WARNING] Please study the warnings concerning your input carefully
-1- prog_main_parseArguments: Process number higher than OMP_NUM_THREADS, I hope you know what you are doing.
########################################################################
 Solvent             : CH2Cl2
 Using internal parameter file: .param_gbsa2_CH2Cl2
 Gsolv ref. state (COSMO-RS): gsolv [1 M gas/solution]
 temperature (mdtemp)       :    298.14999999999998     
 dielectric constant        :    8.9299999999999997     
 rho                        :    1.3300000000000003     
 mass                       :    84.930000000000007     
 surface tension            :    15.568945408385856     
 probe radius               :   0.71987590000000001     
 Gshift (Eh)                :    4.4408291734517593E-003
 c1                         :    1.4917377599999999     
 soset                      :    0.0000000000000000     
 HB correction              :  F

           -------------------------------------------------
          |                 G F N 2 - x T B                 |
           -------------------------------------------------

        Reference                      10.1021/acs.jctc.8b01176
      * Hamiltonian:
        H0-scaling (s, p, d)           1.850000    2.230000    2.230000
        zeta-weighting                 0.500000
      * Dispersion:
        s8                             2.700000
        a1                             0.520000
        a2                             5.000000
        s9                             5.000000
      * Repulsion:
        kExp                           1.500000    1.000000
        rExp                           1.000000
      * Coulomb:
        alpha                          2.000000
        third order                    shell-resolved
        anisotropic                    true
        a3                             3.000000
        a5                             4.000000
        cn-shift                       1.200000
        cn-exp                         4.000000
        max-rad                        5.000000


          ...................................................
          :                      SETUP                      :
          :.................................................:
          :  # basis functions                  69          :
          :  # atomic orbitals                  69          :
          :  # shells                           43          :
          :  # electrons                        72          :
          :  max. iterations                   250          :
          :  Hamiltonian                  GFN2-xTB          :
          :  restarted?                      false          :
          :  GBSA solvation                   true          :
          :  PC potential                    false          :
          :  electronic temp.          300.0000000     K    :
          :  accuracy                    1.0000000          :
          :  -> integral cutoff          0.2500000E+02      :
          :  -> integral neglect         0.1000000E-07      :
          :  -> SCF convergence          0.1000000E-05 Eh   :
          :  -> wf. convergence          0.1000000E-03 e    :
          :  Broyden damping             0.4000000          :
          ...................................................

 iter      E             dE          RMSdq      gap      omega  full diag
   1    -39.6999216 -0.396999E+02  0.390E+00    3.90       0.0  T
   2    -39.7426886 -0.427670E-01  0.225E+00    4.11       1.0  T
   3    -39.7416918  0.996794E-03  0.721E-01    4.05       1.0  T
   4    -39.7440698 -0.237799E-02  0.262E-01    4.06       1.0  T
   5    -39.7458057 -0.173592E-02  0.700E-02    4.06       1.0  T
   6    -39.7458252 -0.195204E-04  0.302E-02    4.06       1.0  T
   7    -39.7458262 -0.100678E-05  0.124E-02    4.06       1.5  T
   8    -39.7458279 -0.170649E-05  0.392E-03    4.06       4.7  T
   9    -39.7458281 -0.141710E-06  0.195E-03    4.06       9.4  T
  10    -39.7458281 -0.445313E-08  0.693E-04    4.06      26.3  T
  11    -39.7458281 -0.587052E-08  0.231E-04    4.06      79.0  T

   *** convergence criteria satisfied after 11 iterations ***

         #    Occupation            Energy/Eh            Energy/eV
      -------------------------------------------------------------
         1        2.0000           -0.6954881             -18.9252
       ...           ...                  ...                  ...
        30        2.0000           -0.4366944             -11.8831
        31        2.0000           -0.4280041             -11.6466
        32        2.0000           -0.4267671             -11.6129
        33        2.0000           -0.4175089             -11.3610
        34        2.0000           -0.4071422             -11.0789
        35        2.0000           -0.4037729             -10.9872
        36        2.0000           -0.3824611             -10.4073 (HOMO)
        37                         -0.2331102              -6.3433 (LUMO)
        38                         -0.2305374              -6.2732
        39                         -0.1079804              -2.9383
        40                          0.0147930               0.4025
        41                          0.0591034               1.6083
       ...                                ...                  ...
        69                          0.6230670              16.9545
      -------------------------------------------------------------
                  HL-Gap            0.1493509 Eh            4.0640 eV
             Fermi-level           -0.3077856 Eh           -8.3753 eV

 SCC (total)                   0 d,  0 h,  0 min,  0.071 sec
 SCC setup                      ...        0 min,  0.001 sec (  1.886%)
 Dispersion                     ...        0 min,  0.000 sec (  0.525%)
 classical contributions        ...        0 min,  0.000 sec (  0.172%)
 integral evaluation            ...        0 min,  0.014 sec ( 19.512%)
 iterations                     ...        0 min,  0.032 sec ( 44.761%)
 molecular gradient             ...        0 min,  0.023 sec ( 32.233%)
 printout                       ...        0 min,  0.001 sec (  0.886%)

         :::::::::::::::::::::::::::::::::::::::::::::::::::::
         ::                     SUMMARY                     ::
         :::::::::::::::::::::::::::::::::::::::::::::::::::::
         :: total energy             -39.206905241605 Eh    ::
         :: total w/o Gsasa/hb       -39.191477285467 Eh    ::
         :: gradient norm              0.039789777199 Eh/a0 ::
         :: HOMO-LUMO gap              4.064044924651 eV    ::
         ::.................................................::
         :: SCC energy               -39.761256046834 Eh    ::
         :: -> isotropic ES            0.040250778153 Eh    ::
         :: -> anisotropic ES          0.004338787735 Eh    ::
         :: -> anisotropic XC          0.023423985422 Eh    ::
         :: -> dispersion             -0.024011923924 Eh    ::
         :: -> Gsolv                  -0.018387304615 Eh    ::
         ::    -> Gborn               -0.002959348477 Eh    ::
         ::    -> Gsasa               -0.019868785311 Eh    ::
         ::    -> Ghb                  0.000000000000 Eh    ::
         ::    -> Gshift               0.004440829173 Eh    ::
         :: repulsion energy           0.554367971651 Eh    ::
         :: add. restraining           0.000000000000 Eh    ::
         :::::::::::::::::::::::::::::::::::::::::::::::::::::

           -------------------------------------------------
          |                Property Printout                |
           -------------------------------------------------

    * Orbital Energies and Occupations

         #    Occupation            Energy/Eh            Energy/eV
      -------------------------------------------------------------
         1        2.0000           -0.6954881             -18.9252
       ...           ...                  ...                  ...
        24        2.0000           -0.4796363             -13.0516
        25        2.0000           -0.4779555             -13.0058
        26        2.0000           -0.4661158             -12.6837
        27        2.0000           -0.4494430             -12.2300
        28        2.0000           -0.4436214             -12.0716
        29        2.0000           -0.4381873             -11.9237
        30        2.0000           -0.4366944             -11.8831
        31        2.0000           -0.4280041             -11.6466
        32        2.0000           -0.4267671             -11.6129
        33        2.0000           -0.4175089             -11.3610
        34        2.0000           -0.4071422             -11.0789
        35        2.0000           -0.4037729             -10.9872
        36        2.0000           -0.3824611             -10.4073 (HOMO)
        37                         -0.2331102              -6.3433 (LUMO)
        38                         -0.2305374              -6.2732
        39                         -0.1079804              -2.9383
        40                          0.0147930               0.4025
        41                          0.0591034               1.6083
        42                          0.0653664               1.7787
        43                          0.0880663               2.3964
        44                          0.0976480               2.6571
        45                          0.1030926               2.8053
        46                          0.1116431               3.0380
        47                          0.1236313               3.3642
       ...                                ...                  ...
        69                          0.6230670              16.9545
      -------------------------------------------------------------
                  HL-Gap            0.1493509 Eh            4.0640 eV
             Fermi-level           -0.3077856 Eh           -8.3753 eV

     #   Z        covCN         q      C6AA      α(0)
     1   6 C      2.914    -0.040    28.986     8.828
     2   6 C      2.910    -0.031    28.766     8.795
     3   6 C      2.912    -0.031    28.771     8.796
     4   6 C      2.910    -0.031    28.761     8.794
     5   6 C      2.914    -0.030    28.760     8.794
     6   6 C      2.959    -0.014    28.366     8.736
     7   1 H      0.925     0.028     2.619     2.531
     8   1 H      0.925     0.039     2.469     2.457
     9   1 H      0.925     0.038     2.472     2.459
    10   1 H      0.925     0.039     2.457     2.451
    11   1 H      0.925     0.043     2.409     2.427
    12   6 C      3.672     0.180    17.941     6.071
    13   8 O      1.656    -0.480    22.471     6.399
    14   1 H      0.924     0.018     2.765     2.600
    15   7 N      2.679    -0.295    27.587     7.801
    16   6 C      3.742     0.016    20.377     6.440
    17   6 C      3.801    -0.064    21.732     6.637
    18   1 H      0.924     0.012     2.853     2.641
    19   1 H      0.924     0.037     2.490     2.468
    20   6 C      3.800    -0.053    21.532     6.607
    21   1 H      0.924     0.045     2.386     2.416
    22   1 H      0.924     0.036     2.498     2.472
    23   1 H      0.860     0.149     1.409     1.859
    24   1 H      0.804     0.318     0.669     1.284
    25   6 C      3.750    -0.102    22.517     6.767
    26   1 H      0.924     0.031     2.575     2.510
    27   1 H      0.924     0.033     2.543     2.494
    28   1 H      0.924     0.035     2.514     2.479
    29   1 H      0.924     0.036     2.498     2.471
    30   1 H      0.924     0.037     2.489     2.467

 Mol. C6AA /au·bohr⁶  :       8220.848238
 Mol. C8AA /au·bohr⁸  :     185547.718218
 Mol. α(0) /au        :        139.951557


Wiberg/Mayer (AO) data.
largest (>0.10) Wiberg bond orders for each atom
          total WBO             WBO to atom ...
     1  C   3.991        C    2 1.443    C    6 1.413    H    7 0.970    C    4 0.111
     2  C   3.991        C    1 1.443    C    3 1.438    H    8 0.971    C    5 0.112
     3  C   3.991        C    4 1.439    C    2 1.438    H    9 0.971    C    6 0.109
     4  C   3.991        C    5 1.444    C    3 1.439    H   10 0.970    C    1 0.111
     5  C   3.990        C    4 1.444    C    6 1.411    H   11 0.969    C    2 0.112
     6  C   3.986        C    1 1.413    C    5 1.411    C   12 0.982    C    3 0.109
     7  H   0.999        C    1 0.970
     8  H   0.998        C    2 0.971
     9  H   0.998        C    3 0.971
    10  H   0.998        C    4 0.970
    11  H   0.998        C    5 0.969
    12  C   3.952        N   15 0.994    C    6 0.982    O   13 0.975    H   14 0.952
    13  O   1.936        C   12 0.975    H   24 0.872
    14  H   0.999        C   12 0.952
    15  N   3.079        C   16 1.001    C   12 0.994    H   23 0.951
    16  C   3.981        C   17 1.004    N   15 1.001    H   19 0.975    H   18 0.970
    17  C   3.995        C   20 1.007    C   16 1.004    H   21 0.976    H   22 0.974
    18  H   1.000        C   16 0.970
    19  H   0.998        C   16 0.975
    20  C   3.997        C   25 1.020    C   17 1.007    H   26 0.978    H   27 0.978
    21  H   0.998        C   17 0.976
    22  H   0.999        C   17 0.974
    23  H   0.978        N   15 0.951
    24  H   0.898        O   13 0.872
    25  C   3.996        C   20 1.020    H   28 0.988    H   30 0.987    H   29 0.987
    26  H   0.999        C   20 0.978
    27  H   0.999        C   20 0.978
    28  H   0.999        C   25 0.988
    29  H   0.998        C   25 0.987
    30  H   0.999        C   25 0.987
Topologies differ in total number of bonds
Writing topology from bond orders to xtbtopo.mol

molecular dipole:
                 x           y           z       tot (Debye)
 q only:       -0.391       0.008      -0.698
   full:       -0.695      -0.133      -0.815       2.744
molecular quadrupole (traceless):
                xx          xy          yy          xz          yz          zz
 q only:       -1.691      -0.359       5.749      -3.454      -2.553      -4.058
  q+dip:       -0.337      -0.578       6.923      -6.111      -2.740      -6.586
   full:       -1.719      -0.521       6.144      -4.967      -2.024      -4.425


           -------------------------------------------------
          | TOTAL ENERGY              -39.206905241605 Eh   |
          | GRADIENT NORM               0.039789777199 Eh/α |
          | HOMO-LUMO GAP               4.064044924651 eV   |
           -------------------------------------------------

------------------------------------------------------------------------
 * finished run on 2020/06/18 at 22:00:48.755     
------------------------------------------------------------------------
 total:
 * wall-time:     0 d,  0 h,  0 min,  0.113 sec
 *  cpu-time:     0 d,  0 h,  0 min,  1.307 sec
 * ratio c/w:    11.538 speedup
 SCF:
 * wall-time:     0 d,  0 h,  0 min,  0.072 sec
 *  cpu-time:     0 d,  0 h,  0 min,  0.833 sec
 * ratio c/w:    11.649 speedup


-------------------------   --------------------
FINAL SINGLE POINT ENERGY       -39.206905241610
-------------------------   --------------------

------------------------------------------------------------------------------
                         ORCA GEOMETRY RELAXATION STEP
------------------------------------------------------------------------------

Reading the OPT-File                    .... done
Getting information on internals        .... done
Copying old internal coords+grads       .... done
Making the new internal coordinates     .... (new redundants).... done
Validating the new internal coordinates .... (new redundants).... done
Calculating the B-matrix                .... done
Calculating the G,G- and P matrices     .... done
Transforming gradient to internals      .... done
Projecting the internal gradient        .... done
Number of atoms                         ....  30
Number of internal coordinates          .... 154
Current Energy                          ....   -39.206905242 Eh
Current gradient norm                   ....     0.039789777 Eh/bohr
Maximum allowed component of the step   ....  0.300
Current trust radius                    ....  0.300
Evaluating the initial hessian          ....  (Almloef) done
Projecting the Hessian                  .... done
Forming the augmented Hessian           .... done
Diagonalizing the augmented Hessian     .... done
Last element of RFO vector              ....  0.986899104
Lowest eigenvalues of augmented Hessian:
 -0.005540036  0.010961645  0.011207983  0.011562189  0.011882730
Length of the computed step             ....  0.163480384
The final length of the internal step   ....  0.163480384
Converting the step to cartesian space:
 Initial RMS(Int)=    0.0131736248
Transforming coordinates:
 Iter   0:  RMS(Cart)=    0.0352229061 RMS(Int)=    0.8760811360
 Iter   1:  RMS(Cart)=    0.0009084002 RMS(Int)=    0.0002865196
 Iter   2:  RMS(Cart)=    0.0000230734 RMS(Int)=    0.0000078047
 Iter   3:  RMS(Cart)=    0.0000007590 RMS(Int)=    0.0000005665
 Iter   4:  RMS(Cart)=    0.0000000402 RMS(Int)=    0.0000000161
done
Storing new coordinates                 .... done

                                .--------------------.
          ----------------------|Geometry convergence|-------------------------
          Item                value                   Tolerance       Converged
          ---------------------------------------------------------------------
          RMS gradient        0.0037009696            0.0001000000      NO
          MAX gradient        0.0164788622            0.0003000000      NO
          RMS step            0.0131736248            0.0020000000      NO
          MAX step            0.0472635756            0.0040000000      NO
          ........................................................
          Max(Bonds)      0.0147      Max(Angles)    2.26
          Max(Dihed)        2.71      Max(Improp)    0.00
          ---------------------------------------------------------------------

The optimization has not yet converged - more geometry cycles are needed


    ---------------------------------------------------------------------------
                         Redundant Internal Coordinates
                            (Angstroem and degrees)

        Definition                    Value    dE/dq     Step     New-Value
    ----------------------------------------------------------------------------
     1. B(C   1,C   0)                1.3970  0.013408 -0.0115    1.3854   
     2. B(C   2,C   1)                1.3936  0.009951 -0.0084    1.3853   
     3. B(C   3,C   2)                1.3927  0.008707 -0.0073    1.3855   
     4. B(C   4,C   3)                1.3959  0.012741 -0.0109    1.3849   
     5. B(C   5,C   4)                1.4051  0.016479 -0.0147    1.3904   
     6. B(C   5,C   0)                1.4043  0.014406 -0.0129    1.3914   
     7. B(H   6,C   0)                1.0877  0.004444 -0.0064    1.0813   
     8. B(H   7,C   1)                1.0869  0.004763 -0.0068    1.0801   
     9. B(H   8,C   2)                1.0868  0.004413 -0.0063    1.0805   
    10. B(H   9,C   3)                1.0868  0.004889 -0.0070    1.0799   
    11. B(H  10,C   4)                1.0885  0.005795 -0.0083    1.0802   
    12. B(C  11,C   5)                1.5155  0.003031 -0.0040    1.5115   
    13. B(O  12,C  11)                1.4098 -0.013518  0.0136    1.4234   
    14. B(H  13,C  11)                1.0961 -0.003077  0.0046    1.1006   
    15. B(N  14,C  11)                1.4529 -0.007205  0.0085    1.4614   
    16. B(C  15,N  14)                1.4624 -0.001094  0.0013    1.4638   
    17. B(C  16,C  15)                1.5324  0.003806 -0.0054    1.5270   
    18. B(H  17,C  15)                1.0966 -0.002011  0.0030    1.0996   
    19. B(H  18,C  15)                1.0967  0.001230 -0.0018    1.0949   
    20. B(C  19,C  16)                1.5292  0.001409 -0.0020    1.5272   
    21. B(H  20,C  16)                1.0976  0.003698 -0.0055    1.0921   
    22. B(H  21,C  16)                1.0963  0.002538 -0.0038    1.0926   
    23. B(H  22,N  14)                1.0208  0.003279 -0.0041    1.0167   
    24. B(H  23,O  12)                0.9722  0.003914 -0.0041    0.9680   
    25. B(C  24,C  19)                1.5208 -0.001804  0.0024    1.5232   
    26. B(H  25,C  19)                1.0961  0.001974 -0.0029    1.0932   
    27. B(H  26,C  19)                1.0962  0.002219 -0.0033    1.0929   
    28. B(H  27,C  24)                1.0947  0.004089 -0.0060    1.0887   
    29. B(H  28,C  24)                1.0944  0.003756 -0.0055    1.0889   
    30. B(H  29,C  24)                1.0948  0.004292 -0.0063    1.0885   
    31. A(C   1,C   0,C   5)          120.68  0.000490   -0.08    120.60   
    32. A(C   1,C   0,H   6)          119.05 -0.001615    0.26    119.31   
    33. A(C   5,C   0,H   6)          120.27  0.001125   -0.18    120.09   
    34. A(C   2,C   1,H   7)          119.88 -0.000942    0.14    120.01   
    35. A(C   0,C   1,H   7)          120.02  0.000496   -0.09    119.92   
    36. A(C   0,C   1,C   2)          120.11  0.000446   -0.04    120.07   
    37. A(C   1,C   2,H   8)          120.09 -0.000386    0.03    120.12   
    38. A(C   1,C   2,C   3)          119.94  0.001341   -0.15    119.80   
    39. A(C   3,C   2,H   8)          119.97 -0.000955    0.12    120.09   
    40. A(C   4,C   3,H   9)          119.86  0.000546   -0.10    119.77   
    41. A(C   2,C   3,H   9)          120.14 -0.000314    0.04    120.18   
    42. A(C   2,C   3,C   4)          120.00 -0.000231    0.06    120.05   
    43. A(C   3,C   4,H  10)          119.31 -0.002896    0.46    119.77   
    44. A(C   3,C   4,C   5)          120.84  0.001260   -0.19    120.65   
    45. A(C   5,C   4,H  10)          119.84  0.001636   -0.27    119.57   
    46. A(C   0,C   5,C   4)          118.42 -0.003309    0.41    118.83   
    47. A(C   4,C   5,C  11)          121.33  0.002979   -0.40    120.93   
    48. A(C   0,C   5,C  11)          120.20  0.000336   -0.02    120.18   
    49. A(H  13,C  11,N  14)          113.26  0.005044   -1.75    111.51   
    50. A(C   5,C  11,N  14)          112.13  0.002487   -0.54    111.59   
    51. A(O  12,C  11,H  13)          106.34 -0.000846    0.69    107.03   
    52. A(C   5,C  11,H  13)          108.98 -0.001643   -0.48    108.50   
    53. A(O  12,C  11,N  14)          105.74 -0.008507    2.23    107.97   
    54. A(C   5,C  11,O  12)          110.18  0.003225    0.01    110.20   
    55. A(C  11,O  12,H  23)          101.49 -0.014293    2.26    103.75   
    56. A(C  11,N  14,C  15)          113.17 -0.009346    1.92    115.10   
    57. A(C  11,N  14,H  22)          107.53  0.000379    0.95    108.48   
    58. A(C  15,N  14,H  22)          108.78  0.002724    0.36    109.14   
    59. A(H  17,C  15,H  18)          106.51 -0.001156    0.61    107.12   
    60. A(C  16,C  15,H  18)          108.36 -0.000711    0.13    108.49   
    61. A(N  14,C  15,H  18)          107.64  0.000432   -0.05    107.59   
    62. A(C  16,C  15,H  17)          111.25  0.002317   -0.64    110.62   
    63. A(N  14,C  15,H  17)          111.33 -0.001879    0.31    111.64   
    64. A(N  14,C  15,C  16)          111.50  0.000861   -0.30    111.20   
    65. A(H  20,C  16,H  21)          106.95 -0.000963    0.31    107.26   
    66. A(C  19,C  16,H  21)          109.14  0.000406    0.04    109.18   
    67. A(C  15,C  16,H  21)          110.48  0.000917   -0.23    110.25   
    68. A(C  19,C  16,H  20)          109.28 -0.000372    0.16    109.44   
    69. A(C  15,C  16,H  20)          109.55  0.001905   -0.51    109.04   
    70. A(C  15,C  16,C  19)          111.33 -0.001868    0.25    111.58   
    71. A(H  25,C  19,H  26)          107.28 -0.000518    0.10    107.38   
    72. A(C  24,C  19,H  26)          109.09 -0.000179    0.15    109.24   
    73. A(C  16,C  19,H  26)          109.86  0.001203   -0.30    109.56   
    74. A(C  24,C  19,H  25)          109.21  0.000023    0.09    109.30   
    75. A(C  16,C  19,H  25)          109.90  0.001063   -0.28    109.62   
    76. A(C  16,C  19,C  24)          111.40 -0.001565    0.25    111.65   
    77. A(H  28,C  24,H  29)          108.07 -0.000129    0.07    108.14   
    78. A(H  27,C  24,H  29)          108.28 -0.000250   -0.06    108.22   
    79. A(C  19,C  24,H  29)          111.01  0.000749   -0.16    110.85   
    80. A(H  27,C  24,H  28)          108.09 -0.000021    0.06    108.15   
    81. A(C  19,C  24,H  28)          110.30 -0.000834    0.19    110.49   
    82. A(C  19,C  24,H  27)          110.99  0.000463   -0.10    110.89   
    83. D(C   2,C   1,C   0,H   6)    179.88 -0.000212    0.39    180.26   
    84. D(C   2,C   1,C   0,C   5)     -0.43 -0.000284    0.51      0.08   
    85. D(H   7,C   1,C   0,C   5)    179.45 -0.000171    0.30    179.76   
    86. D(H   7,C   1,C   0,H   6)     -0.24 -0.000100    0.18     -0.06   
    87. D(C   3,C   2,C   1,H   7)   -179.97 -0.000049    0.07   -179.90   
    88. D(C   3,C   2,C   1,C   0)     -0.09  0.000065   -0.14     -0.22   
    89. D(H   8,C   2,C   1,C   0)    179.79  0.000104   -0.19    179.60   
    90. D(H   8,C   2,C   1,H   7)     -0.09 -0.000010    0.02     -0.07   
    91. D(H   9,C   3,C   2,C   1)    179.90 -0.000007    0.04    179.93   
    92. D(H   9,C   3,C   2,H   8)      0.02 -0.000046    0.09      0.11   
    93. D(C   4,C   3,C   2,H   8)   -179.75  0.000023   -0.05   -179.81   
    94. D(C   4,C   3,C   2,C   1)      0.13  0.000062   -0.11      0.02   
    95. D(C   5,C   4,C   3,H   9)   -179.42  0.000093   -0.17   -179.58   
    96. D(H  10,C   4,C   3,C   2)    179.80  0.000046   -0.04    179.76   
    97. D(C   5,C   4,C   3,C   2)      0.35  0.000023   -0.02      0.33   
    98. D(H  10,C   4,C   3,H   9)      0.03  0.000116   -0.18     -0.15   
    99. D(C  11,C   5,C   4,H  10)      2.12 -0.000372    0.77      2.89   
   100. D(C   0,C   5,C   4,H  10)    179.70 -0.000191    0.39    180.10   
   101. D(C   0,C   5,C   4,C   3)     -0.85 -0.000193    0.38     -0.47   
   102. D(C  11,C   5,C   0,H   6)     -1.80  0.000479   -0.88     -2.68   
   103. D(C  11,C   5,C   0,C   1)    178.50  0.000559   -1.01    177.50   
   104. D(C  11,C   5,C   4,C   3)   -178.44 -0.000373    0.76   -177.68   
   105. D(C   4,C   5,C   0,H   6)   -179.42  0.000233   -0.50   -179.92   
   106. D(C   4,C   5,C   0,C   1)      0.89  0.000314   -0.62      0.26   
   107. D(N  14,C  11,C   5,C   4)     82.61 -0.004372    0.73     83.34   
   108. D(N  14,C  11,C   5,C   0)    -94.94 -0.004470    1.10    -93.84   
   109. D(H  13,C  11,C   5,C   4)   -151.19  0.002742   -2.29   -153.48   
   110. D(O  12,C  11,C   5,C   0)    147.58  0.002494   -1.36    146.22   
   111. D(O  12,C  11,C   5,C   4)    -34.87  0.002592   -1.73    -36.61   
   112. D(H  13,C  11,C   5,C   0)     31.26  0.002644   -1.92     29.34   
   113. D(H  23,O  12,C  11,C   5)    137.86  0.000220    0.10    137.96   
   114. D(H  23,O  12,C  11,N  14)     16.49  0.000570   -0.61     15.89   
   115. D(H  23,O  12,C  11,H  13)   -104.18 -0.000517   -0.07   -104.25   
   116. D(H  22,N  14,C  11,O  12)    110.41  0.002374   -1.58    108.83   
   117. D(H  22,N  14,C  11,C   5)     -9.69  0.002442   -2.71    -12.40   
   118. D(C  15,N  14,C  11,H  13)    -13.37 -0.003327    1.99    -11.38   
   119. D(C  15,N  14,C  11,O  12)   -129.43  0.000295    0.70   -128.73   
   120. D(H  22,N  14,C  11,H  13)   -133.53 -0.001248   -0.29   -133.82   
   121. D(C  15,N  14,C  11,C   5)    110.47  0.000363   -0.43    110.04   
   122. D(H  18,C  15,N  14,H  22)    -44.58 -0.001142    1.15    -43.43   
   123. D(H  18,C  15,N  14,C  11)   -164.02  0.002427   -1.51   -165.54   
   124. D(H  17,C  15,N  14,H  22)     71.80 -0.003310    2.03     73.83   
   125. D(H  17,C  15,N  14,C  11)    -47.64  0.000258   -0.64    -48.28   
   126. D(C  16,C  15,N  14,H  22)   -163.30 -0.001041    1.20   -162.11   
   127. D(C  16,C  15,N  14,C  11)     77.25  0.002528   -1.47     75.79   
   128. D(H  21,C  16,C  15,H  18)    178.91 -0.000626    0.39    179.30   
   129. D(H  21,C  16,C  15,H  17)     62.13 -0.000109   -0.06     62.07   
   130. D(H  21,C  16,C  15,N  14)    -62.80 -0.000035    0.24    -62.56   
   131. D(H  20,C  16,C  15,H  18)    -63.52 -0.000101    0.32    -63.20   
   132. D(H  20,C  16,C  15,H  17)    179.71  0.000416   -0.14    179.57   
   133. D(H  20,C  16,C  15,N  14)     54.78  0.000490    0.16     54.94   
   134. D(C  19,C  16,C  15,H  18)     57.47 -0.000506    0.34     57.81   
   135. D(C  19,C  16,C  15,H  17)    -59.31  0.000010   -0.12    -59.42   
   136. D(C  19,C  16,C  15,N  14)    175.76  0.000084    0.18    175.94   
   137. D(H  26,C  19,C  16,H  20)     62.24  0.000311   -0.20     62.04   
   138. D(H  26,C  19,C  16,C  15)    -58.91 -0.000621    0.18    -58.73   
   139. D(H  25,C  19,C  16,H  21)    -63.30 -0.000098    0.05    -63.25   
   140. D(H  25,C  19,C  16,H  20)   -179.94  0.001038   -0.43   -180.37   
   141. D(H  25,C  19,C  16,C  15)     58.91  0.000106   -0.05     58.86   
   142. D(C  24,C  19,C  16,H  21)     57.88 -0.000383    0.13     58.01   
   143. D(C  24,C  19,C  16,H  20)    -58.76  0.000754   -0.35    -59.11   
   144. D(H  26,C  19,C  16,H  21)    178.88 -0.000825    0.28    179.16   
   145. D(C  24,C  19,C  16,C  15)   -179.91 -0.000179    0.03   -179.88   
   146. D(H  29,C  24,C  19,H  26)    -61.66 -0.000132    0.04    -61.62   
   147. D(H  29,C  24,C  19,C  16)     59.80  0.000245   -0.08     59.71   
   148. D(H  28,C  24,C  19,H  26)     58.10 -0.000356    0.15     58.25   
   149. D(H  28,C  24,C  19,H  25)    -58.87  0.000354   -0.10    -58.97   
   150. D(H  28,C  24,C  19,C  16)    179.55  0.000021    0.03    179.58   
   151. D(H  27,C  24,C  19,H  26)    177.87 -0.000629    0.28    178.15   
   152. D(H  29,C  24,C  19,H  25)   -178.62  0.000578   -0.21   -178.84   
   153. D(H  27,C  24,C  19,H  25)     60.90  0.000081    0.03     60.93   
   154. D(H  27,C  24,C  19,C  16)    -60.68 -0.000252    0.16    -60.52   
    ----------------------------------------------------------------------------

         *************************************************************
         *                GEOMETRY OPTIMIZATION CYCLE   2            *
         *************************************************************
      -----------------------------------------------------------      
     |                   =====================                   |     
     |                           x T B                           |     
     |                   =====================                   |     
     |                         S. Grimme                         |     
     |          Mulliken Center for Theoretical Chemistry        |     
     |                    University of Bonn                     |     
      -----------------------------------------------------------      

   * xtb version 6.3.0 (49875a8) compiled by 'schneider@apollo14' on 2020-05-23

   xtb is free software: you can redistribute it and/or modify it under
   the terms of the GNU Lesser General Public License as published by
   the Free Software Foundation, either version 3 of the License, or
   (at your option) any later version.
   
   xtb is distributed in the hope that it will be useful,
   but WITHOUT ANY WARRANTY; without even the implied warranty of
   MERCHANTABILITY or FITNESS FOR A PARTICULAR PURPOSE.  See the
   GNU Lesser General Public License for more details.
   
   Cite this work as:
   * S. Grimme, C. Bannwarth, P. Shushkov, J. Chem. Theory Comput., 2017,
     13, 1989-2009. DOI: 10.1021/acs.jctc.7b00118
   * C. Bannwarth, S. Ehlert and S. Grimme., J. Chem. Theory Comput., 2019,
     15, 1652-1671. DOI: 10.1021/acs.jctc.8b01176
   * P. Pracht, E. Caldeweyher, S. Ehlert, S. Grimme, ChemRxiv, 2019, preprint.
     DOI: 10.26434/chemrxiv.8326202.v1
   
   for GFN-FF:
   * S. Spicher and S. Grimme, Angew. Chem. Int. Ed., 2020,
     DOI: 10.1002/anie.202004239
   
   for DFT-D4:
   * E. Caldeweyher, C. Bannwarth and S. Grimme, J. Chem. Phys., 2017,
     147, 034112. DOI: 10.1063/1.4993215
   * E. Caldeweyher, S. Ehlert, A. Hansen, H. Neugebauer, S. Spicher,
     C. Bannwarth and S. Grimme, J. Chem. Phys., 2019, 150, 154122.
     DOI: 10.1063/1.5090222
   
   for sTDA-xTB:
   * S. Grimme and C. Bannwarth, J. Chem. Phys., 2016, 145, 054103.
     DOI: 10.1063/1.4959605
   
   in the mass-spec context:
   * V. Asgeirsson, C. Bauer and S. Grimme, Chem. Sci., 2017, 8, 4879.
     DOI: 10.1039/c7sc00601b
   * J. Koopman and S. Grimme, ACS Omega 2019, 4, 12, 15120-15133.
     DOI: 10.1021/acsomega.9b02011
   
   for metadynamics refer to:
   * S. Grimme, J. Chem. Theory Comput., 2019, 155, 2847-2862
     DOI: 10.1021/acs.jctc.9b00143
   
   with help from (in alphabetical order)
   C. Bannwarth, F. Bohle, G. Brandenburg, E. Caldeweyher, M. Checinski,
   S. Dohm, S. Ehlert, S. Ehrlich, F. März, H. Neugebauer, J. Pisarek,
   P. Pracht, P. Shushkov, and S. Spicher.
   
 * started run on 2020/06/18 at 22:00:49.147     

           -------------------------------------------------
          |                Calculation Setup                |
           -------------------------------------------------

          program call               : /opt/orca/otool_xtb optts+freq_reactant_XTB.xyz --grad -c 0 -u 0 -P 12 --namespace optts+freq_reactant --gbsa CH2Cl2
          calculation namespace      : optts+freq_reactant
          coordinate file            : optts+freq_reactant_XTB.xyz
          number of atoms            :                    30
          number of electrons        :                    72
          charge                     :                     0
          spin                       :                   0.0
          first test random number   :      0.00070736085261

   ID    Z sym.   atoms
    1    6 C      1-6, 12, 16, 17, 20, 25
    2    1 H      7-11, 14, 18, 19, 21-24, 26-30
    3    8 O      13
    4    7 N      15
########################################################################
[WARNING] Please study the warnings concerning your input carefully
-1- prog_main_parseArguments: Process number higher than OMP_NUM_THREADS, I hope you know what you are doing.
########################################################################
 Solvent             : CH2Cl2
 Using internal parameter file: .param_gbsa2_CH2Cl2
 Gsolv ref. state (COSMO-RS): gsolv [1 M gas/solution]
 temperature (mdtemp)       :    298.14999999999998     
 dielectric constant        :    8.9299999999999997     
 rho                        :    1.3300000000000003     
 mass                       :    84.930000000000007     
 surface tension            :    15.568945408385856     
 probe radius               :   0.71987590000000001     
 Gshift (Eh)                :    4.4408291734517593E-003
 c1                         :    1.4917377599999999     
 soset                      :    0.0000000000000000     
 HB correction              :  F

           -------------------------------------------------
          |                 G F N 2 - x T B                 |
           -------------------------------------------------

        Reference                      10.1021/acs.jctc.8b01176
      * Hamiltonian:
        H0-scaling (s, p, d)           1.850000    2.230000    2.230000
        zeta-weighting                 0.500000
      * Dispersion:
        s8                             2.700000
        a1                             0.520000
        a2                             5.000000
        s9                             5.000000
      * Repulsion:
        kExp                           1.500000    1.000000
        rExp                           1.000000
      * Coulomb:
        alpha                          2.000000
        third order                    shell-resolved
        anisotropic                    true
        a3                             3.000000
        a5                             4.000000
        cn-shift                       1.200000
        cn-exp                         4.000000
        max-rad                        5.000000


          ...................................................
          :                      SETUP                      :
          :.................................................:
          :  # basis functions                  69          :
          :  # atomic orbitals                  69          :
          :  # shells                           43          :
          :  # electrons                        72          :
          :  max. iterations                   250          :
          :  Hamiltonian                  GFN2-xTB          :
          :  restarted?                      false          :
          :  GBSA solvation                   true          :
          :  PC potential                    false          :
          :  electronic temp.          300.0000000     K    :
          :  accuracy                    1.0000000          :
          :  -> integral cutoff          0.2500000E+02      :
          :  -> integral neglect         0.1000000E-07      :
          :  -> SCF convergence          0.1000000E-05 Eh   :
          :  -> wf. convergence          0.1000000E-03 e    :
          :  Broyden damping             0.4000000          :
          ...................................................

 iter      E             dE          RMSdq      gap      omega  full diag
   1    -39.7269656 -0.397270E+02  0.383E+00    3.94       0.0  T
   2    -39.7689372 -0.419715E-01  0.221E+00    4.11       1.0  T
   3    -39.7684907  0.446476E-03  0.697E-01    4.05       1.0  T
   4    -39.7703673 -0.187655E-02  0.243E-01    4.06       1.0  T
   5    -39.7718309 -0.146366E-02  0.672E-02    4.05       1.0  T
   6    -39.7718490 -0.180599E-04  0.287E-02    4.06       1.0  T
   7    -39.7718500 -0.102409E-05  0.106E-02    4.06       1.7  T
   8    -39.7718512 -0.116020E-05  0.348E-03    4.06       5.2  T
   9    -39.7718513 -0.105406E-06  0.179E-03    4.06      10.2  T
  10    -39.7718513 -0.445925E-08  0.591E-04    4.06      30.9  T
  11    -39.7718513 -0.383726E-08  0.204E-04    4.06      89.6  T

   *** convergence criteria satisfied after 11 iterations ***

         #    Occupation            Energy/Eh            Energy/eV
      -------------------------------------------------------------
         1        2.0000           -0.6934063             -18.8685
       ...           ...                  ...                  ...
        30        2.0000           -0.4365314             -11.8786
        31        2.0000           -0.4278864             -11.6434
        32        2.0000           -0.4263227             -11.6008
        33        2.0000           -0.4179497             -11.3730
        34        2.0000           -0.4087287             -11.1221
        35        2.0000           -0.4046153             -11.0101
        36        2.0000           -0.3796757             -10.3315 (HOMO)
        37                         -0.2304909              -6.2720 (LUMO)
        38                         -0.2277231              -6.1967
        39                         -0.1018059              -2.7703
        40                          0.0064502               0.1755
        41                          0.0613487               1.6694
       ...                                ...                  ...
        69                          0.6550663              17.8253
      -------------------------------------------------------------
                  HL-Gap            0.1491848 Eh            4.0595 eV
             Fermi-level           -0.3050833 Eh           -8.3017 eV

 SCC (total)                   0 d,  0 h,  0 min,  0.054 sec
 SCC setup                      ...        0 min,  0.001 sec (  2.033%)
 Dispersion                     ...        0 min,  0.000 sec (  0.724%)
 classical contributions        ...        0 min,  0.000 sec (  0.231%)
 integral evaluation            ...        0 min,  0.010 sec ( 17.953%)
 iterations                     ...        0 min,  0.022 sec ( 41.461%)
 molecular gradient             ...        0 min,  0.019 sec ( 35.982%)
 printout                       ...        0 min,  0.001 sec (  1.578%)

         :::::::::::::::::::::::::::::::::::::::::::::::::::::
         ::                     SUMMARY                     ::
         :::::::::::::::::::::::::::::::::::::::::::::::::::::
         :: total energy             -39.210254999934 Eh    ::
         :: total w/o Gsasa/hb       -39.194854005258 Eh    ::
         :: gradient norm              0.016354330704 Eh/a0 ::
         :: HOMO-LUMO gap              4.059524982931 eV    ::
         ::.................................................::
         :: SCC energy               -39.787252270738 Eh    ::
         :: -> isotropic ES            0.040227633295 Eh    ::
         :: -> anisotropic ES          0.004658828276 Eh    ::
         :: -> anisotropic XC          0.022672053634 Eh    ::
         :: -> dispersion             -0.024047746983 Eh    ::
         :: -> Gsolv                  -0.018349942169 Eh    ::
         ::    -> Gborn               -0.002948947493 Eh    ::
         ::    -> Gsasa               -0.019841823849 Eh    ::
         ::    -> Ghb                  0.000000000000 Eh    ::
         ::    -> Gshift               0.004440829173 Eh    ::
         :: repulsion energy           0.577010909335 Eh    ::
         :: add. restraining           0.000000000000 Eh    ::
         :::::::::::::::::::::::::::::::::::::::::::::::::::::

           -------------------------------------------------
          |                Property Printout                |
           -------------------------------------------------

    * Orbital Energies and Occupations

         #    Occupation            Energy/Eh            Energy/eV
      -------------------------------------------------------------
         1        2.0000           -0.6934063             -18.8685
       ...           ...                  ...                  ...
        24        2.0000           -0.4802035             -13.0670
        25        2.0000           -0.4797806             -13.0555
        26        2.0000           -0.4667006             -12.6996
        27        2.0000           -0.4497124             -12.2373
        28        2.0000           -0.4436412             -12.0721
        29        2.0000           -0.4381366             -11.9223
        30        2.0000           -0.4365314             -11.8786
        31        2.0000           -0.4278864             -11.6434
        32        2.0000           -0.4263227             -11.6008
        33        2.0000           -0.4179497             -11.3730
        34        2.0000           -0.4087287             -11.1221
        35        2.0000           -0.4046153             -11.0101
        36        2.0000           -0.3796757             -10.3315 (HOMO)
        37                         -0.2304909              -6.2720 (LUMO)
        38                         -0.2277231              -6.1967
        39                         -0.1018059              -2.7703
        40                          0.0064502               0.1755
        41                          0.0613487               1.6694
        42                          0.0673754               1.8334
        43                          0.0881791               2.3995
        44                          0.0980205               2.6673
        45                          0.1069697               2.9108
        46                          0.1191820               3.2431
        47                          0.1286637               3.5011
       ...                                ...                  ...
        69                          0.6550663              17.8253
      -------------------------------------------------------------
                  HL-Gap            0.1491848 Eh            4.0595 eV
             Fermi-level           -0.3050833 Eh           -8.3017 eV

     #   Z        covCN         q      C6AA      α(0)
     1   6 C      2.923    -0.039    28.974     8.827
     2   6 C      2.918    -0.031    28.762     8.795
     3   6 C      2.919    -0.031    28.782     8.798
     4   6 C      2.918    -0.031    28.764     8.795
     5   6 C      2.923    -0.031    28.767     8.796
     6   6 C      2.968    -0.011    28.296     8.725
     7   1 H      0.925     0.028     2.612     2.528
     8   1 H      0.926     0.039     2.467     2.456
     9   1 H      0.926     0.039     2.468     2.457
    10   1 H      0.926     0.039     2.459     2.452
    11   1 H      0.926     0.043     2.404     2.425
    12   6 C      3.667     0.177    17.999     6.084
    13   8 O      1.654    -0.478    22.432     6.394
    14   1 H      0.923     0.019     2.749     2.593
    15   7 N      2.678    -0.294    27.570     7.798
    16   6 C      3.738     0.017    20.377     6.441
    17   6 C      3.803    -0.065    21.743     6.638
    18   1 H      0.923     0.011     2.869     2.649
    19   1 H      0.924     0.039     2.469     2.457
    20   6 C      3.801    -0.054    21.546     6.609
    21   1 H      0.924     0.045     2.382     2.414
    22   1 H      0.924     0.037     2.496     2.470
    23   1 H      0.860     0.148     1.416     1.864
    24   1 H      0.805     0.314     0.680     1.295
    25   6 C      3.752    -0.104    22.547     6.771
    26   1 H      0.924     0.031     2.574     2.509
    27   1 H      0.924     0.033     2.541     2.493
    28   1 H      0.925     0.036     2.504     2.474
    29   1 H      0.925     0.037     2.487     2.466
    30   1 H      0.925     0.038     2.479     2.462

 Mol. C6AA /au·bohr⁶  :       8218.399416
 Mol. C8AA /au·bohr⁸  :     185512.601141
 Mol. α(0) /au        :        139.934686


Wiberg/Mayer (AO) data.
largest (>0.10) Wiberg bond orders for each atom
          total WBO             WBO to atom ...
     1  C   3.992        C    2 1.445    C    6 1.412    H    7 0.969    C    4 0.111
     2  C   3.992        C    1 1.445    C    3 1.438    H    8 0.971    C    5 0.111
     3  C   3.992        C    4 1.439    C    2 1.438    H    9 0.971    C    6 0.109
     4  C   3.992        C    5 1.445    C    3 1.439    H   10 0.971    C    1 0.111
     5  C   3.991        C    4 1.445    C    6 1.413    H   11 0.968    C    2 0.111
     6  C   3.987        C    5 1.413    C    1 1.412    C   12 0.983    C    3 0.109
     7  H   0.999        C    1 0.969
     8  H   0.998        C    2 0.971
     9  H   0.998        C    3 0.971
    10  H   0.998        C    4 0.971
    11  H   0.998        C    5 0.968
    12  C   3.951        N   15 0.994    C    6 0.983    O   13 0.971    H   14 0.952
    13  O   1.937        C   12 0.971    H   24 0.879
    14  H   0.999        C   12 0.952
    15  N   3.079        C   16 1.001    C   12 0.994    H   23 0.953
    16  C   3.981        C   17 1.004    N   15 1.001    H   19 0.975    H   18 0.969
    17  C   3.995        C   20 1.007    C   16 1.004    H   21 0.976    H   22 0.974
    18  H   1.000        C   16 0.969
    19  H   0.998        C   16 0.975
    20  C   3.997        C   25 1.020    C   17 1.007    H   26 0.978    H   27 0.978
    21  H   0.998        C   17 0.976
    22  H   0.999        C   17 0.974
    23  H   0.978        N   15 0.953
    24  H   0.901        O   13 0.879
    25  C   3.996        C   20 1.020    H   28 0.988    H   30 0.988    H   29 0.987
    26  H   0.999        C   20 0.978
    27  H   0.999        C   20 0.978
    28  H   0.999        C   25 0.988
    29  H   0.998        C   25 0.987
    30  H   0.999        C   25 0.988
Topologies differ in total number of bonds
Writing topology from bond orders to xtbtopo.mol

molecular dipole:
                 x           y           z       tot (Debye)
 q only:       -0.372       0.005      -0.692
   full:       -0.648      -0.122      -0.816       2.665
molecular quadrupole (traceless):
                xx          xy          yy          xz          yz          zz
 q only:       -1.521      -0.270       5.693      -3.453      -2.476      -4.172
  q+dip:        0.034      -0.392       6.635      -6.171      -2.467      -6.669
   full:       -1.334      -0.340       5.921      -5.016      -1.826      -4.586


           -------------------------------------------------
          | TOTAL ENERGY              -39.210254999934 Eh   |
          | GRADIENT NORM               0.016354330704 Eh/α |
          | HOMO-LUMO GAP               4.059524982931 eV   |
           -------------------------------------------------

------------------------------------------------------------------------
 * finished run on 2020/06/18 at 22:00:49.238     
------------------------------------------------------------------------
 total:
 * wall-time:     0 d,  0 h,  0 min,  0.091 sec
 *  cpu-time:     0 d,  0 h,  0 min,  1.013 sec
 * ratio c/w:    11.073 speedup
 SCF:
 * wall-time:     0 d,  0 h,  0 min,  0.055 sec
 *  cpu-time:     0 d,  0 h,  0 min,  0.606 sec
 * ratio c/w:    11.038 speedup


-------------------------   --------------------
FINAL SINGLE POINT ENERGY       -39.210254999930
-------------------------   --------------------

------------------------------------------------------------------------------
                         ORCA GEOMETRY RELAXATION STEP
------------------------------------------------------------------------------

Reading the OPT-File                    .... done
Getting information on internals        .... done
Copying old internal coords+grads       .... done
Making the new internal coordinates     .... (new redundants).... done
Validating the new internal coordinates .... (new redundants).... done
Calculating the B-matrix                .... done
Calculating the G,G- and P matrices     .... done
Transforming gradient to internals      .... done
Projecting the internal gradient        .... done
Number of atoms                         ....  30
Number of internal coordinates          .... 154
Current Energy                          ....   -39.210255000 Eh
Current gradient norm                   ....     0.016354331 Eh/bohr
Maximum allowed component of the step   ....  0.300
Current trust radius                    ....  0.300
Updating the Hessian (BFGS)             .... done
Forming the augmented Hessian           .... done
Diagonalizing the augmented Hessian     .... done
Last element of RFO vector              ....  0.993441526
Lowest eigenvalues of augmented Hessian:
 -0.000865183  0.010959585  0.011207864  0.011507112  0.011882606
Length of the computed step             ....  0.115096159
The final length of the internal step   ....  0.115096159
Converting the step to cartesian space:
 Initial RMS(Int)=    0.0092747128
Transforming coordinates:
 Iter   0:  RMS(Cart)=    0.0244075250 RMS(Int)=    0.5058540968
 Iter   1:  RMS(Cart)=    0.0004111670 RMS(Int)=    0.0001565029
 Iter   2:  RMS(Cart)=    0.0000076284 RMS(Int)=    0.0000030647
 Iter   3:  RMS(Cart)=    0.0000001590 RMS(Int)=    0.0000001040
 Iter   4:  RMS(Cart)=    0.0000000051 RMS(Int)=    0.0000000021
done
Storing new coordinates                 .... done

                                .--------------------.
          ----------------------|Geometry convergence|-------------------------
          Item                value                   Tolerance       Converged
          ---------------------------------------------------------------------
          Energy change      -0.0033497583            0.0000050000      NO
          RMS gradient        0.0009599248            0.0001000000      NO
          MAX gradient        0.0070614080            0.0003000000      NO
          RMS step            0.0092747128            0.0020000000      NO
          MAX step            0.0415399586            0.0040000000      NO
          ........................................................
          Max(Bonds)      0.0037      Max(Angles)    1.64
          Max(Dihed)        2.38      Max(Improp)    0.00
          ---------------------------------------------------------------------

The optimization has not yet converged - more geometry cycles are needed


    ---------------------------------------------------------------------------
                         Redundant Internal Coordinates
                            (Angstroem and degrees)

        Definition                    Value    dE/dq     Step     New-Value
    ----------------------------------------------------------------------------
     1. B(C   1,C   0)                1.3854  0.001445 -0.0026    1.3828   
     2. B(C   2,C   1)                1.3853  0.000435 -0.0012    1.3840   
     3. B(C   3,C   2)                1.3855  0.000455 -0.0011    1.3844   
     4. B(C   4,C   3)                1.3849  0.001145 -0.0022    1.3827   
     5. B(C   5,C   4)                1.3904  0.001811 -0.0034    1.3870   
     6. B(C   5,C   0)                1.3915  0.001900 -0.0034    1.3881   
     7. B(H   6,C   0)                1.0813 -0.000061 -0.0005    1.0808   
     8. B(H   7,C   1)                1.0801 -0.000017 -0.0006    1.0795   
     9. B(H   8,C   2)                1.0805  0.000144 -0.0008    1.0796   
    10. B(H   9,C   3)                1.0799 -0.000072 -0.0005    1.0794   
    11. B(H  10,C   4)                1.0802  0.000117 -0.0010    1.0792   
    12. B(C  11,C   5)                1.5115  0.000040 -0.0004    1.5111   
    13. B(O  12,C  11)                1.4234  0.001034 -0.0001    1.4233   
    14. B(H  13,C  11)                1.1006 -0.000460  0.0013    1.1019   
    15. B(N  14,C  11)                1.4614  0.002951 -0.0037    1.4577   
    16. B(C  15,N  14)                1.4638  0.002304 -0.0035    1.4603   
    17. B(C  16,C  15)                1.5270 -0.000141 -0.0002    1.5268   
    18. B(H  17,C  15)                1.0996 -0.000734  0.0017    1.1013   
    19. B(H  18,C  15)                1.0949  0.000884 -0.0018    1.0931   
    20. B(C  19,C  16)                1.5272 -0.000118  0.0000    1.5272   
    21. B(H  20,C  16)                1.0921  0.000202 -0.0009    1.0912   
    22. B(H  21,C  16)                1.0926  0.000218 -0.0007    1.0918   
    23. B(H  22,N  14)                1.0167  0.001143 -0.0022    1.0144   
    24. B(H  23,O  12)                0.9680  0.001660 -0.0026    0.9654   
    25. B(C  24,C  19)                1.5232 -0.000585  0.0012    1.5244   
    26. B(H  25,C  19)                1.0932  0.000128 -0.0005    1.0927   
    27. B(H  26,C  19)                1.0929  0.000194 -0.0007    1.0923   
    28. B(H  27,C  24)                1.0887  0.000289 -0.0011    1.0876   
    29. B(H  28,C  24)                1.0889  0.000428 -0.0013    1.0876   
[...]
  26       -39.192529   -37.551651    0.001845  0.000416
  27       -39.192455   -37.505093    0.001644  0.000427
  28       -39.192378   -37.457253    0.001885  0.000436
  29       -39.192300   -37.408368    0.001723  0.000448
  30       -39.192220   -37.358129    0.001932  0.000458
  31       -39.192139   -37.306863    0.001852  0.000470
  32       -39.192055   -37.254171    0.001999  0.000480
  33       -39.191969   -37.200436    0.001967  0.000493
  34       -39.191881   -37.145237    0.002078  0.000502
  35       -39.191792   -37.088986    0.002074  0.000516
  36       -39.191699   -37.031232    0.002164  0.000525
  37       -39.191606   -36.972407    0.002177  0.000539
  38       -39.191510   -36.912038    0.002255  0.000549
  39       -39.191412   -36.850624    0.002278  0.000563
  40       -39.191311   -36.787613    0.002350  0.000573
  41       -39.191209   -36.723515    0.002380  0.000588
  42       -39.191104   -36.657778    0.002447  0.000598
  43       -39.190998   -36.590923    0.002484  0.000613
  44       -39.190889   -36.522409    0.002547  0.000623
  45       -39.190778   -36.452767    0.002589  0.000639
  46       -39.190664   -36.381375    0.002653  0.000649
  47       -39.190548   -36.308789    0.002699  0.000666
  48       -39.190430   -36.234364    0.002762  0.000677
  49       -39.190309   -36.158695    0.002812  0.000694
  50       -39.190185   -36.081116    0.002875  0.000706
  51       -39.190060   -36.002247    0.002928  0.000723
  52       -39.189931   -35.921396    0.002991  0.000736
  53       -39.189800   -35.839202    0.003047  0.000754
  54       -39.189666   -35.754960    0.003110  0.000766
  55       -39.189529   -35.669319    0.003170  0.000786
  56       -39.189389   -35.581556    0.003232  0.000799
  57       -39.189247   -35.492340    0.003296  0.000819
  58       -39.189101   -35.400905    0.003358  0.000832
  59       -39.188953   -35.307930    0.003429  0.000853
  60       -39.188801   -35.212619    0.003487  0.000868
  61       -39.188646   -35.114993    0.003561  0.000885
  62       -39.188487   -35.015227    0.003628  0.000904
  63       -39.188324   -34.913313    0.003702  0.000923
  64       -39.188158   -34.809208    0.003772  0.000943
  65       -39.187989   -34.702907    0.003844  0.000962
  66       -39.187816   -34.594356    0.003917  0.000983
  67       -39.187639   -34.483480    0.003994  0.001004
  68       -39.187459   -34.370214    0.004071  0.001026
  69       -39.187274   -34.254489    0.004151  0.001048
  70       -39.187086   -34.136244    0.004231  0.001071
  71       -39.186893   -34.015412    0.004315  0.001094
  72       -39.186697   -33.891918    0.004400  0.001119
  73       -39.186495   -33.765688    0.004488  0.001143
  74       -39.186290   -33.636639    0.004577  0.001169
  75       -39.186080   -33.504684    0.004670  0.001196
  76       -39.185864   -33.369721    0.004794  0.001223
  77       -39.185644   -33.231644    0.004940  0.001251
  78       -39.185419   -33.090341    0.005097  0.001281
  79       -39.185189   -32.945687    0.005267  0.001311
  80       -39.184953   -32.797552    0.005449  0.001343
  81       -39.184711   -32.645809    0.005647  0.001376
  82       -39.184463   -32.490298    0.005864  0.001411
  83       -39.184209   -32.330815    0.006100  0.001447
  84       -39.183948   -32.167140    0.006359  0.001486
  85       -39.183680   -31.999018    0.006641  0.001527
  86       -39.183405   -31.826157    0.006951  0.001571
  87       -39.183121   -31.648232    0.007288  0.001618
  88       -39.182829   -31.464881    0.007655  0.001668
  89       -39.182527   -31.275697    0.008053  0.001723
  90       -39.182216   -31.080220    0.008485  0.001781
  91       -39.181894   -30.877941    0.008949  0.001845
  92       -39.181559   -30.668310    0.009446  0.001913
  93       -39.181213   -30.450741    0.009978  0.001987
  94       -39.180852   -30.224598    0.010543  0.002067
  95       -39.180477   -29.989214    0.011140  0.002153
  96       -39.180086   -29.743907    0.011769  0.002244
  97       -39.179679   -29.487994    0.012430  0.002343
  98       -39.179253   -29.220797    0.013121  0.002447
  99       -39.178808   -28.941655    0.013847  0.002557
 100       -39.178343   -28.649946    0.014609  0.002672
 101       -39.177857   -28.345082    0.015415  0.002792
 102       -39.177350   -28.026512    0.016273  0.002917
 103       -39.176819   -27.693729    0.017194  0.003047
 104       -39.176265   -27.346271    0.018190  0.003180
 105       -39.175688   -26.983710    0.019278  0.003317
 106       -39.175085   -26.605603    0.020473  0.003459
 107       -39.174457   -26.211433    0.021789  0.003605
 108       -39.173802   -25.800693    0.023231  0.003756
 109       -39.173121   -25.372849    0.024803  0.003912
 110       -39.172411   -24.927321    0.026497  0.004073
 111       -39.171671   -24.463497    0.028297  0.004240
 112       -39.170902   -23.980788    0.030178  0.004411
 113       -39.170102   -23.478719    0.032104  0.004587
 114       -39.169271   -22.957026    0.034037  0.004763
 115       -39.168408   -22.415685    0.035938  0.004938
 116       -39.167515   -21.855066    0.037762  0.005108
 117       -39.166592   -21.275939    0.039474  0.005269
 118       -39.165641   -20.679477    0.041040  0.005417
 119       -39.164666   -20.067241    0.042434  0.005551
 120       -39.163668   -19.441113    0.043639  0.005666
 121       -39.162651   -18.803219    0.044639  0.005761
 122       -39.161620   -18.155877    0.045427  0.005835
 123       -39.160577   -17.501509    0.045997  0.005887
 124       -39.159527   -16.842526    0.046345  0.005918
 125       -39.158473   -16.181041    0.046469  0.005934
 126       -39.157416   -15.518146    0.046368  0.005950
 127       -39.156361   -14.856349    0.046110  0.005902
 128       -39.155311   -14.197189    0.045600  0.005930
 129       -39.154261   -13.538578    0.045031  0.005777
 130       -39.153234   -12.893541    0.044182  0.005814
 131       -39.152205   -12.248284    0.043320  0.005572
 132       -39.151213   -11.625926    0.042198  0.005627
 133       -39.150217   -11.000880    0.041085  0.005289
 134       -39.149276   -10.410303    0.039759  0.005353
 135       -39.148330   -9.816284    0.038447  0.004955
 136       -39.147447   -9.262753    0.036980  0.005038
 137       -39.146556   -8.703251    0.035525  0.004576
 138       -39.145742   -8.192689    0.033972  0.004663
 139       -39.144919   -7.676350    0.032432  0.004181
 140       -39.144179   -7.211545    0.030841  0.004260
 141       -39.143430   -6.741781    0.029266  0.003778
 142       -39.142764   -6.323786    0.027675  0.003843
 143       -39.142092   -5.902090    0.026130  0.003381
 144       -39.141499   -5.529979    0.024590  0.003430
 145       -39.140902   -5.155621    0.023130  0.003006
 146       -39.140378   -4.826657    0.021679  0.003037
 147       -39.139853   -4.496901    0.020344  0.002661
 148       -39.139391   -4.207119    0.019007  0.002675
 149       -39.138930   -3.917862    0.017814  0.002352
 150       -39.138523   -3.662732    0.016606  0.002352
 151       -39.138119   -3.409172    0.015559  0.002080
 152       -39.137761   -3.184151    0.014489  0.002069
 153       -39.137406   -2.961469    0.013584  0.001843
 154       -39.137088   -2.762333    0.012644  0.001825
 155       -39.136776   -2.566029    0.011864  0.001638
 156       -39.136494   -2.389154    0.011044  0.001615
 157       -39.136217   -2.215395    0.010369  0.001460
 158       -39.135966   -2.057778    0.009655  0.001434
 159       -39.135720   -1.903420    0.009069  0.001305
 160       -39.135495   -1.762607    0.008446  0.001277
 161       -39.135276   -1.625111    0.007934  0.001168
 162       -39.135075   -1.499138    0.007388  0.001139
 163       -39.134880   -1.376496    0.006936  0.001045
 164       -39.134700   -1.263797    0.006454  0.001016
 165       -39.134526   -1.154414    0.006049  0.000934
 166       -39.134366   -1.053743    0.005621  0.000905
 167       -39.134210   -0.956366    0.005256  0.000833
 168       -39.134068   -0.866706    0.004873  0.000804
 169       -39.133930   -0.780307    0.004541  0.000739
 170       -39.133803   -0.700851    0.004192  0.000710
 171       -39.133682   -0.624635    0.003886  0.000651
 172       -39.133570   -0.554732    0.003566  0.000623
 173       -39.133464   -0.488031    0.003280  0.000569
 174       -39.133367   -0.427085    0.002996  0.000542
 175       -39.133275   -0.369194    0.002737  0.000494
 176       -39.133192   -0.317008    0.002470  0.000473
 177       -39.133112   -0.267079    0.002232  0.000424
 178       -39.133043   -0.223680    0.001979  0.000425
 179       -39.133002   -0.198393    0.002066  0.000462
 180       -39.132950   -0.165760    0.002045  0.000445
 181       -39.132897   -0.132152    0.002503  0.000552
 182       -39.132686    0.000000    0.000475  0.000070 <= TS
 183       -39.132972   -0.179223    0.002138  0.000531
 184       -39.133028   -0.214556    0.001881  0.000462
 185       -39.133076   -0.244345    0.001819  0.000443
 186       -39.133128   -0.277131    0.001877  0.000435
 187       -39.133196   -0.320126    0.002026  0.000423
 188       -39.133276   -0.369845    0.002165  0.000472
 189       -39.133357   -0.421117    0.002290  0.000486
 190       -39.133448   -0.477926    0.002418  0.000531
 191       -39.133543   -0.537310    0.002561  0.000554
 192       -39.133645   -0.601863    0.002691  0.000600
 193       -39.133753   -0.669112    0.002827  0.000624
 194       -39.133868   -0.741706    0.002983  0.000673
 195       -39.133988   -0.816957    0.003148  0.000697
 196       -39.134117   -0.897852    0.003319  0.000749
 197       -39.134250   -0.981344    0.003490  0.000771
 198       -39.134393   -1.070828    0.003664  0.000827
 199       -39.134539   -1.162815    0.003836  0.000848
 200       -39.134696   -1.261167    0.004010  0.000907
 201       -39.134857   -1.361902    0.004186  0.000928
 202       -39.135028   -1.469446    0.004363  0.000991
 203       -39.135203   -1.579236    0.004545  0.001010
 204       -39.135390   -1.696339    0.004726  0.001078
 205       -39.135580   -1.815524    0.004913  0.001095
 206       -39.135782   -1.942549    0.005097  0.001168
 207       -39.135987   -2.071483    0.005289  0.001184
 208       -39.136206   -2.208822    0.005476  0.001262
 209       -39.136428   -2.347882    0.005674  0.001275
 210       -39.136664   -2.495970    0.005865  0.001359
 211       -39.136902   -2.645558    0.006069  0.001371
 212       -39.137156   -2.804829    0.006261  0.001460
 213       -39.137412   -2.965353    0.006471  0.001469
 214       -39.137684   -3.136275    0.006666  0.001565
 215       -39.137958   -3.308175    0.006880  0.001572
 216       -39.138250   -3.491252    0.007078  0.001675
 217       -39.138543   -3.674993    0.007299  0.001679
 218       -39.138855   -3.870705    0.007498  0.001789
 219       -39.139167   -4.066736    0.007723  0.001789
 220       -39.139500   -4.275594    0.007923  0.001907
 221       -39.139833   -4.484377    0.008153  0.001903
 222       -39.140187   -4.706883    0.008354  0.002029
 223       -39.140541   -4.928890    0.008589  0.002021
 224       -39.140918   -5.165564    0.008790  0.002156
 225       -39.141294   -5.401277    0.009029  0.002143
 226       -39.141694   -5.652634    0.009231  0.002287
 227       -39.142093   -5.902535    0.009475  0.002269
 228       -39.142517   -6.169103    0.009676  0.002422
 229       -39.142939   -6.433673    0.009924  0.002399
 230       -39.143389   -6.715960    0.010124  0.002561
 231       -39.143835   -6.995665    0.010376  0.002532
 232       -39.144310   -7.294140    0.010574  0.002704
 233       -39.144781   -7.589421    0.010830  0.002669
 234       -39.145283   -7.904542    0.011024  0.002850
 235       -39.145779   -8.215842    0.011283  0.002809
 236       -39.146308   -8.548014    0.011473  0.003000
 237       -39.146831   -8.875734    0.011734  0.002952
 238       -39.147388   -9.225297    0.011918  0.003151
 239       -39.147937   -9.569770    0.012182  0.003097
 240       -39.148522   -9.936995    0.012358  0.003305
 241       -39.149098   -10.298483    0.012624  0.003244
 242       -39.149712   -10.683505    0.012791  0.003459
 243       -39.150315   -11.062165    0.013059  0.003392
 244       -39.150957   -11.464891    0.013211  0.003612
 245       -39.151588   -11.860679    0.013479  0.003543
 246       -39.152251   -12.276923    0.013628  0.003738
 247       -39.152907   -12.688384    0.013888  0.003687
 248       -39.153596   -13.121272    0.014024  0.003883
 249       -39.154278   -13.549021    0.014280  0.003830
 250       -39.154990   -13.995883    0.014408  0.004010
 251       -39.155696   -14.438699    0.014653  0.003967
 252       -39.156432   -14.900655    0.014769  0.004142
 253       -39.157162   -15.358461    0.015004  0.004100
 254       -39.157919   -15.833776    0.015114  0.004264
 255       -39.158671   -16.305783    0.015337  0.004229
 256       -39.159453   -16.796202    0.015441  0.004396
 257       -39.160229   -17.282985    0.015652  0.004360
 258       -39.161034   -17.788135    0.015759  0.004528
 259       -39.161833   -18.289892    0.015958  0.004495
 260       -39.162664   -18.811041    0.016068  0.004670
 261       -39.163488   -19.328585    0.016257  0.004636
 262       -39.164343   -19.864576    0.016392  0.004806
 263       -39.165192   -20.397650    0.016639  0.004775
 264       -39.166070   -20.948477    0.017051  0.004939
 265       -39.166943   -21.496613    0.017289  0.004910
 266       -39.167841   -22.059577    0.017665  0.005052
 267       -39.168735   -22.620827    0.017878  0.005028
 268       -39.169649   -23.194447    0.018210  0.005147
 269       -39.170561   -23.766738    0.018383  0.005126
 270       -39.171486   -24.347270    0.018650  0.005211
 271       -39.172411   -24.927410    0.018775  0.005197
 272       -39.173343   -25.512488    0.018974  0.005251
 273       -39.174275   -26.097539    0.019043  0.005240
 274       -39.175210   -26.683717    0.019149  0.005258
 275       -39.176144   -27.270210    0.019165  0.005253
 276       -39.177078   -27.856239    0.019158  0.005248
 277       -39.178011   -28.441448    0.019123  0.005237
 278       -39.178941   -29.025100    0.019056  0.005220
 279       -39.179867   -29.606335    0.018957  0.005194
 280       -39.180788   -30.184257    0.018822  0.005160
 281       -39.181702   -30.757971    0.018653  0.005119
 282       -39.182609   -31.326589    0.018448  0.005069
 283       -39.183505   -31.889252    0.018209  0.005012
 284       -39.184391   -32.445136    0.018073  0.004948
 285       -39.185265   -32.993463    0.018063  0.004877
 286       -39.186125   -33.533509    0.018035  0.004799
 287       -39.186972   -34.064605    0.017991  0.004716
 288       -39.187803   -34.586162    0.017928  0.004629
 289       -39.188618   -35.097668    0.017847  0.004536
 290       -39.189417   -35.598694    0.017749  0.004441
 291       -39.190198   -36.088899    0.017632  0.004343
 292       -39.190961   -36.568019    0.017497  0.004242
 293       -39.191707   -37.035874    0.017343  0.004141
 294       -39.192434   -37.492357    0.017172  0.004039
 295       -39.193144   -37.937425    0.016984  0.003937
 296       -39.193835   -38.371098    0.016780  0.003835
 297       -39.194508   -38.793439    0.016559  0.003733
 298       -39.195163   -39.204552    0.016324  0.003633
 299       -39.195800   -39.604561    0.016073  0.003535
 300       -39.196420   -39.993595    0.015809  0.003437
 301       -39.197023   -40.371795    0.015531  0.003340
 302       -39.197609   -40.739307    0.015240  0.003245
 303       -39.198178   -41.096275    0.014938  0.003151
 304       -39.198730   -41.442841    0.014628  0.003059
 305       -39.199266   -41.779153    0.014309  0.002968
 306       -39.199786   -42.105354    0.013982  0.002878
 307       -39.200290   -42.421572    0.013648  0.002789
 308       -39.200778   -42.727931    0.013307  0.002701
 309       -39.201250   -43.024556    0.012960  0.002614
 310       -39.201708   -43.311573    0.012609  0.002529
 311       -39.202150   -43.589118    0.012255  0.002445
 312       -39.202578   -43.857334    0.011898  0.002362
 313       -39.202990   -44.116370    0.011540  0.002280
 314       -39.203389   -44.366385    0.011180  0.002200
 315       -39.203773   -44.607538    0.010820  0.002121
 316       -39.204144   -44.840011    0.010460  0.002045
 317       -39.204501   -45.063994    0.010102  0.001969
 318       -39.204844   -45.279676    0.009745  0.001896
 319       -39.205175   -45.487260    0.009390  0.001824
 320       -39.205493   -45.686962    0.009039  0.001755
 321       -39.205799   -45.879011    0.008692  0.001687
 322       -39.206094   -46.063638    0.008350  0.001622
 323       -39.206376   -46.241074    0.008013  0.001558
 324       -39.206648   -46.411555    0.007680  0.001497
 325       -39.206909   -46.575319    0.007354  0.001438
 326       -39.207160   -46.732606    0.007033  0.001381
 327       -39.207400   -46.883676    0.006719  0.001326
 328       -39.207632   -47.028758    0.006411  0.001274
 329       -39.207854   -47.168072    0.006110  0.001223
 330       -39.208067   -47.301833    0.005817  0.001174
 331       -39.208271   -47.430249    0.005531  0.001127
 332       -39.208468   -47.553508    0.005253  0.001082
 333       -39.208656   -47.671800    0.004983  0.001038
 334       -39.208837   -47.785314    0.004723  0.000996
 335       -39.209011   -47.894222    0.004471  0.000956
 336       -39.209177   -47.998681    0.004226  0.000916
 337       -39.209337   -48.098840    0.003989  0.000879
 338       -39.209490   -48.194834    0.003760  0.000842
 339       -39.209636   -48.286794    0.003539  0.000806
 340       -39.209777   -48.374846    0.003323  0.000772
 341       -39.209911   -48.459101    0.003115  0.000738
 342       -39.210039   -48.539670    0.002912  0.000706
 343       -39.210162   -48.616666    0.002718  0.000674
 344       -39.210279   -48.690199    0.002528  0.000644
 345       -39.210391   -48.760368    0.002349  0.000614
 346       -39.210498   -48.827252    0.002167  0.000586
 347       -39.210599   -48.890711    0.002010  0.000566
 348       -39.210694   -48.950281    0.001837  0.000533
 349       -39.210785   -49.007742    0.001689  0.000513
 350       -39.210871   -49.061758    0.001529  0.000482
 351       -39.210954   -49.113743    0.001403  0.000463
 352       -39.211032   -49.162610    0.001341  0.000435
 353       -39.211107   -49.209556    0.001292  0.000418
 354       -39.211177   -49.253713    0.001221  0.000393
 355       -39.211245   -49.296046    0.001183  0.000376
 356       -39.211308   -49.335907    0.001127  0.000354
 357       -39.211369   -49.374052    0.001115  0.000338
 358       -39.211426   -49.410078    0.001054  0.000320
 359       -39.211481   -49.444515    0.001054  0.000305
 360       -39.211533   -49.477159    0.000989  0.000289
 361       -39.211583   -49.508381    0.001003  0.000276
 362       -39.211630   -49.538075    0.000928  0.000263
 363       -39.211676   -49.566552    0.000963  0.000252
 364       -39.211719   -49.593750    0.000873  0.000241
 365       -39.211761   -49.619916    0.000917  0.000232
 366       -39.211801   -49.645057    0.000856  0.000224
 367       -39.211840   -49.669344    0.000854  0.000216
 368       -39.211877   -49.692870    0.000832  0.000209
 369       -39.211914   -49.715718    0.000833  0.000204
 370       -39.211949   -49.737974    0.000810  0.000199

Timings for individual modules:

Sum of individual times         ...      383.912 sec (=   6.399 min)
Geometry relaxation             ...       15.145 sec (=   0.252 min)   3.9 %
XTB module                      ...      167.805 sec (=   2.797 min)  43.7 %
                             ****ORCA TERMINATED NORMALLY****
TOTAL RUN TIME: 0 days 0 hours 39 minutes 42 seconds 714 msec
