
                                 *****************
                                 * O   R   C   A *
                                 *****************

           --- An Ab Initio, DFT and Semiempirical electronic structure package ---

                  #######################################################
                  #                        -***-                        #
                  #          Department of theory and spectroscopy      #
                  #               Directorship: Frank Neese             #
                  #        Max Planck Institute fuer Kohlenforschung    #
                  #                Kaiser Wilhelm Platz 1               #
                  #                 D-45470 Muelheim/Ruhr               #
                  #                      Germany                        #
                  #                                                     #
                  #                  All rights reserved                #
                  #                        -***-                        #
                  #######################################################


                         Program Version 4.2.1 -  RELEASE  -


 With contributions from (in alphabetic order):
   Daniel Aravena         : Magnetic Suceptibility
   Michael Atanasov       : Ab Initio Ligand Field Theory (pilot matlab implementation)
   Alexander A. Auer      : GIAO ZORA, VPT2
   Ute Becker             : Parallelization
   Giovanni Bistoni       : ED, misc. LED, open-shell LED, HFLD
   Martin Brehm           : Molecular dynamics
   Dmytro Bykov           : SCF Hessian
   Vijay G. Chilkuri      : MRCI spin determinant printing, contributions to CSF-ICE
   Dipayan Datta          : RHF DLPNO-CCSD density
   Achintya Kumar Dutta   : EOM-CC, STEOM-CC
   Dmitry Ganyushin       : Spin-Orbit,Spin-Spin,Magnetic field MRCI
   Miquel Garcia          : C-PCM Hessian, Gaussian charge scheme
   Yang Guo               : DLPNO-NEVPT2, CIM, IAO-localization
   Andreas Hansen         : Spin unrestricted coupled pair/coupled cluster methods
   Benjamin Helmich-Paris : CASSCF linear response (MC-RPA)
   Lee Huntington         : MR-EOM, pCC
   Robert Izsak           : Overlap fitted RIJCOSX, COSX-SCS-MP3, EOM
   Christian Kollmar      : KDIIS, OOCD, Brueckner-CCSD(T), CCSD density
   Simone Kossmann        : Meta GGA functionals, TD-DFT gradient, OOMP2, MP2 Hessian
   Martin Krupicka        : AUTO-CI
   Lucas Lang             : DCDCAS
   Dagmar Lenk            : GEPOL surface, SMD
   Dimitrios Liakos       : Extrapolation schemes; Compound Job, initial MDCI parallelization
   Dimitrios Manganas     : Further ROCIS development; embedding schemes
   Dimitrios Pantazis     : SARC Basis sets
   Taras Petrenko         : DFT Hessian,TD-DFT gradient, ASA, ECA, R-Raman, ABS, FL, XAS/XES, NRVS
   Peter Pinski           : DLPNO-MP2, DLPNO-MP2 Gradient
   Christoph Reimann      : Effective Core Potentials
   Marius Retegan         : Local ZFS, SOC
   Christoph Riplinger    : Optimizer, TS searches, QM/MM, DLPNO-CCSD(T), (RO)-DLPNO pert. Triples
   Tobias Risthaus        : Range-separated hybrids, TD-DFT gradient, RPA, STAB
   Michael Roemelt        : Original ROCIS implementation
   Masaaki Saitow         : Open-shell DLPNO-CCSD energy and density
   Barbara Sandhoefer     : DKH picture change effects
   Avijit Sen             : IP-ROCIS
   Kantharuban Sivalingam : CASSCF convergence, NEVPT2, FIC-MRCI
   Bernardo de Souza      : ESD, SOC TD-DFT
   Georgi Stoychev        : AutoAux, RI-MP2 NMR
   Willem Van den Heuvel  : Paramagnetic NMR
   Boris Wezisla          : Elementary symmetry handling
   Frank Wennmohs         : Technical directorship


 We gratefully acknowledge several colleagues who have allowed us to
 interface, adapt or use parts of their codes:
   Stefan Grimme, W. Hujo, H. Kruse,             : VdW corrections, initial TS optimization,
                  C. Bannwarth                     DFT functionals, gCP, sTDA/sTD-DF
   Ed Valeev, F. Pavosevic, A. Kumar             : LibInt (2-el integral package), F12 methods
   Garnet Chan, S. Sharma, J. Yang, R. Olivares  : DMRG
   Ulf Ekstrom                                   : XCFun DFT Library
   Mihaly Kallay                                 : mrcc  (arbitrary order and MRCC methods)
   Andreas Klamt, Michael Diedenhofen            : otool_cosmo (COSMO solvation model)
   Jiri Pittner, Ondrej Demel                    : Mk-CCSD
   Frank Weinhold                                : gennbo (NPA and NBO analysis)
   Christopher J. Cramer and Donald G. Truhlar   : smd solvation model
   Lars Goerigk                                  : TD-DFT with DH, B97 family of functionals
   V. Asgeirsson, H. Jonsson                     : NEB implementation
   FAccTs GmbH                                   : IRC, NEB, NEB-TS, Multilevel, MM, QM/MM, CI optimization
   S Lehtola, MJT Oliveira, MAL Marques          : LibXC Library


 Your calculation uses the libint2 library for the computation of 2-el integrals
 For citations please refer to: http://libint.valeyev.net

 Your ORCA version has been built with support for libXC version: 4.2.3
 For citations please refer to: https://tddft.org/programs/libxc/

 This ORCA versions uses:
   CBLAS   interface :  Fast vector & matrix operations
   LAPACKE interface :  Fast linear algebra routines
   SCALAPACK package :  Parallel linear algebra routines


Your calculation utilizes the atom-pairwise dispersion correction
with the Becke-Johnson damping scheme (D3BJ)
Cite in your paper:
S.Grimme, S.Ehrlich, L.Goerigk, J Comput Chem, (2011), 32, 1456–1465 
S.Grimme, J.Antony, S.Ehrlich and H.Krieg, J.Chem.Phys., 132, (2010), 154104 
   

Your calculation employs the composite approach B97-3c by Grimme and coworkers.
For the correct reference, please check the publication list of the Grimme group:
http://www.thch.uni-bonn.de/tc/index.php?section=publikationen&subsection=grimme#2017
   

XCFun DFT library Copyright 2009-2010 Ulf Ekstrom and contributors.
See http://admol.org/xcfun for more information. This is free soft-
ware; see the source code for copying conditions. There is ABSOLUTELY
NO WARRANTY; not even for MERCHANTABILITY or FITNESS FOR A PARTICULAR
PURPOSE. For details see the documentation. Scientific users of this 
library should cite U. Ekstrom, L. Visscher, R. Bast, A. J. Thorvald-
sen and K. Ruud; J.Chem.Theor.Comp. 2010, DOI: 10.1021/ct100117s
XCFun Version 0.99 
----- Orbital basis set information -----
Your calculation utilizes the basis: def2-mTZVP
----- AuxJ basis set information -----
Your calculation utilizes the basis: def2-mTZVP/J
================================================================================
                                        WARNINGS
                       Please study these warnings very carefully!
================================================================================


WARNING: Geometry Optimization
  ===> : Switching off AutoStart
         For restart on a previous wavefunction, please use MOREAD

INFO   : the flag for use of LIBINT has been found!

================================================================================
                                       INPUT FILE
================================================================================
NAME = 1,3-dichlorobenzene.inp
|  1> ! B97-3c Opt Freq TightOpt TightSCF
|  2> 
|  3> %pal
|  4>  nprocs 4
|  5> end
|  6> 
|  7> *xyz 0 1
|  8> C       -4.2688961647      1.0405524827      0.0000000000                 
|  9> C       -4.7129214845     -0.2824448812      0.0000000000                 
| 10> C       -3.7860036793     -1.3258280230     -0.0000000000                 
| 11> C       -2.4197490731     -1.0409186525      0.0000000000                 
| 12> C       -1.9873334873      0.2859186663      0.0000000000                 
| 13> C       -2.9067371244      1.3325497379      0.0000000000                 
| 14> Cl      -5.4162341731      2.3232409694      0.0000000000                 
| 15> H       -5.7769613790     -0.5057604586     -0.0000000000                 
| 16> Cl      -0.3014380975      0.6315065627      0.0000000000                 
| 17> H       -2.5657017350      2.3636373983      0.0000000000                 
| 18> H       -4.1274662901     -2.3582073460     -0.0000000000                 
| 19> H       -1.6987164144     -1.8546524230      0.0000000000                 
| 20> *
| 21> 
| 22>                          ****END OF INPUT****
================================================================================

                       *****************************
                       * Geometry Optimization Run *
                       *****************************

Geometry optimization settings:
Update method            Update   .... BFGS
Choice of coordinates    CoordSys .... Z-matrix Internals
Initial Hessian          InHess   .... Almoef's Model

Convergence Tolerances:
Energy Change            TolE     ....  1.0000e-06 Eh
Max. Gradient            TolMAXG  ....  1.0000e-04 Eh/bohr
RMS Gradient             TolRMSG  ....  3.0000e-05 Eh/bohr
Max. Displacement        TolMAXD  ....  1.0000e-03 bohr
RMS Displacement         TolRMSD  ....  6.0000e-04 bohr
Strict Convergence                ....  False
------------------------------------------------------------------------------
                        ORCA OPTIMIZATION COORDINATE SETUP
------------------------------------------------------------------------------

The optimization will be done in new redundant internal coordinates
Making redundant internal coordinates   ...  (new redundants) done
Evaluating the initial hessian          ...  (Almloef) done
Evaluating the coordinates              ...  done
Calculating the B-matrix                .... done
Calculating the G-matrix                .... done
Diagonalizing the G-matrix              .... done
The first mode is                       ....   24
The number of degrees of freedom        ....   30

    -----------------------------------------------------------------
                    Redundant Internal Coordinates


    -----------------------------------------------------------------
         Definition                    Initial Value    Approx d2E/dq
    -----------------------------------------------------------------
      1. B(C   1,C   0)                  1.3955         0.612251   
      2. B(C   2,C   1)                  1.3956         0.611973   
      3. B(C   3,C   2)                  1.3956         0.611973   
      4. B(C   4,C   3)                  1.3955         0.612251   
      5. B(C   5,C   4)                  1.3931         0.617712   
      6. B(C   5,C   0)                  1.3931         0.617712   
      7. B(Cl  6,C   0)                  1.7210         0.415645   
      8. B(H   7,C   1)                  1.0872         0.363794   
      9. B(Cl  8,C   4)                  1.7210         0.415645   
     10. B(H   9,C   5)                  1.0860         0.365399   
     11. B(H  10,C   2)                  1.0874         0.363577   
     12. B(H  11,C   3)                  1.0872         0.363794   
     13. A(C   5,C   0,Cl  6)          119.7129         0.422110   
     14. A(C   1,C   0,C   5)          120.6518         0.432797   
     15. A(C   1,C   0,Cl  6)          119.6352         0.421441   
     16. A(C   0,C   1,C   2)          119.8300         0.432072   
     17. A(C   2,C   1,H   7)          119.7642         0.352740   
     18. A(C   0,C   1,H   7)          120.4057         0.352767   
     19. A(C   1,C   2,H  10)          120.0811         0.352705   
     20. A(C   1,C   2,C   3)          119.8379         0.432036   
     21. A(C   3,C   2,H  10)          120.0811         0.352705   
     22. A(C   2,C   3,C   4)          119.8300         0.432072   
     23. A(C   4,C   3,H  11)          120.4057         0.352767   
     24. A(C   2,C   3,H  11)          119.7642         0.352740   
     25. A(C   5,C   4,Cl  8)          119.7129         0.422110   
     26. A(C   3,C   4,Cl  8)          119.6352         0.421441   
     27. A(C   3,C   4,C   5)          120.6518         0.432797   
     28. A(C   4,C   5,H   9)          120.4008         0.353561   
     29. A(C   0,C   5,H   9)          120.4008         0.353561   
     30. A(C   0,C   5,C   4)          119.1984         0.433489   
     31. D(H   7,C   1,C   0,C   5)    180.0000         0.025900   
     32. D(H   7,C   1,C   0,Cl  6)      0.0000         0.025900   
     33. D(C   2,C   1,C   0,Cl  6)    180.0000         0.025900   
     34. D(C   2,C   1,C   0,C   5)      0.0000         0.025900   
     35. D(H  10,C   2,C   1,C   0)    180.0000         0.025875   
     36. D(C   3,C   2,C   1,C   0)      0.0000         0.025875   
     37. D(C   3,C   2,C   1,H   7)    180.0000         0.025875   
     38. D(H  10,C   2,C   1,H   7)      0.0000         0.025875   
     39. D(H  11,C   3,C   2,H  10)      0.0000         0.025875   
     40. D(H  11,C   3,C   2,C   1)    180.0000         0.025875   
     41. D(C   4,C   3,C   2,H  10)    180.0000         0.025875   
     42. D(C   4,C   3,C   2,C   1)      0.0000         0.025875   
     43. D(Cl  8,C   4,C   3,C   2)    180.0000         0.025900   
     44. D(C   5,C   4,C   3,H  11)    180.0000         0.025900   
     45. D(C   5,C   4,C   3,C   2)      0.0000         0.025900   
     46. D(Cl  8,C   4,C   3,H  11)      0.0000         0.025900   
     47. D(H   9,C   5,C   4,Cl  8)      0.0000         0.026392   
     48. D(C   0,C   5,C   4,Cl  8)    180.0000         0.026392   
     49. D(C   0,C   5,C   4,C   3)      0.0000         0.026392   
     50. D(H   9,C   5,C   0,Cl  6)      0.0000         0.026392   
     51. D(H   9,C   5,C   0,C   1)    180.0000         0.026392   
     52. D(H   9,C   5,C   4,C   3)    180.0000         0.026392   
     53. D(C   4,C   5,C   0,Cl  6)    180.0000         0.026392   
     54. D(C   4,C   5,C   0,C   1)      0.0000         0.026392   
    -----------------------------------------------------------------

Number of atoms                         .... 12
Number of degrees of freedom            .... 54

         *************************************************************
         *                GEOMETRY OPTIMIZATION CYCLE   1            *
         *************************************************************
---------------------------------
CARTESIAN COORDINATES (ANGSTROEM)
---------------------------------
  C     -4.268896    1.040552    0.000000
  C     -4.712921   -0.282445    0.000000
  C     -3.786004   -1.325828   -0.000000
  C     -2.419749   -1.040919    0.000000
  C     -1.987333    0.285919    0.000000
  C     -2.906737    1.332550    0.000000
  Cl    -5.416234    2.323241    0.000000
  H     -5.776961   -0.505760   -0.000000
  Cl    -0.301438    0.631507    0.000000
  H     -2.565702    2.363637    0.000000
  H     -4.127466   -2.358207   -0.000000
  H     -1.698716   -1.854652    0.000000

----------------------------
CARTESIAN COORDINATES (A.U.)
----------------------------
  NO LB      ZA    FRAG     MASS         X           Y           Z
   0 C     6.0000    0    12.011   -8.067045    1.966359    0.000000
   1 C     6.0000    0    12.011   -8.906131   -0.533743    0.000000
   2 C     6.0000    0    12.011   -7.154510   -2.505452   -0.000000
   3 C     6.0000    0    12.011   -4.572663   -1.967051    0.000000
   4 C     6.0000    0    12.011   -3.755516    0.540308    0.000000
   5 C     6.0000    0    12.011   -5.492937    2.518154    0.000000
   6 Cl   17.0000    0    35.453  -10.235199    4.390289    0.000000
   7 H     1.0000    0     1.008  -10.916875   -0.955749   -0.000000
   8 Cl   17.0000    0    35.453   -0.569635    1.193374    0.000000
   9 H     1.0000    0     1.008   -4.848474    4.466627    0.000000
  10 H     1.0000    0     1.008   -7.799781   -4.456366   -0.000000
  11 H     1.0000    0     1.008   -3.210109   -3.504785    0.000000

--------------------------------
INTERNAL COORDINATES (ANGSTROEM)
--------------------------------
 C      0   0   0     0.000000000000     0.00000000     0.00000000
 C      1   0   0     1.395521590485     0.00000000     0.00000000
 C      2   1   0     1.395645011523   119.83002261     0.00000000
 C      3   2   1     1.395645011585   119.83789743     0.00000000
 C      4   3   2     1.395521590447   119.83002260     0.00000000
 C      5   4   3     1.393104320556   120.65184049     0.00000000
 Cl     1   2   3     1.720951556387   119.63521439   180.00000000
 H      2   1   3     1.087221570885   120.40574933   180.00000085
 Cl     5   4   3     1.720951556403   119.63521439   180.00000000
 H      6   5   4     1.086023434486   120.40081181   180.00000000
 H      3   2   1     1.087383916164   120.08105128   180.00000000
 H      4   3   2     1.087221570870   119.76422806   180.00000000

---------------------------
INTERNAL COORDINATES (A.U.)
---------------------------
 C      0   0   0     0.000000000000     0.00000000     0.00000000
 C      1   0   0     2.637153619991     0.00000000     0.00000000
 C      2   1   0     2.637386851952   119.83002261     0.00000000
 C      3   2   1     2.637386852069   119.83789743     0.00000000
 C      4   3   2     2.637153619919   119.83002260     0.00000000
 C      5   4   3     2.632585641833   120.65184049     0.00000000
 Cl     1   2   3     3.252127131318   119.63521439   180.00000000
 H      2   1   3     2.054551015864   120.40574933   180.00000085
 Cl     5   4   3     3.252127131348   119.63521439   180.00000000
 H      6   5   4     2.052286866199   120.40081181   180.00000000
 H      3   2   1     2.054857803981   120.08105128   180.00000000
 H      4   3   2     2.054551015835   119.76422806   180.00000000

---------------------
BASIS SET INFORMATION
---------------------
There are 3 groups of distinct atoms

 Group   1 Type C   : 11s6p1d contracted to 5s3p1d pattern {62111/411/1}
 Group   2 Type Cl  : 14s9p1d contracted to 5s4p1d pattern {73211/6111/1}
 Group   3 Type H   : 5s contracted to 3s pattern {311}

Atom   0C    basis set group =>   1
Atom   1C    basis set group =>   1
Atom   2C    basis set group =>   1
Atom   3C    basis set group =>   1
Atom   4C    basis set group =>   1
Atom   5C    basis set group =>   1
Atom   6Cl   basis set group =>   2
Atom   7H    basis set group =>   3
Atom   8Cl   basis set group =>   2
Atom   9H    basis set group =>   3
Atom  10H    basis set group =>   3
Atom  11H    basis set group =>   3
---------------------------------
AUXILIARY/J BASIS SET INFORMATION
---------------------------------
There are 3 groups of distinct atoms

 Group   1 Type C   : 8s3p3d contracted to 6s3p3d pattern {311111/111/111}
 Group   2 Type Cl  : 14s5p5d2f1g contracted to 8s4p3d1f1g pattern {71111111/2111/311/2/1}
 Group   3 Type H   : 5s2p contracted to 3s1p pattern {311/2}

Atom   0C    basis set group =>   1
Atom   1C    basis set group =>   1
Atom   2C    basis set group =>   1
Atom   3C    basis set group =>   1
Atom   4C    basis set group =>   1
Atom   5C    basis set group =>   1
Atom   6Cl   basis set group =>   2
Atom   7H    basis set group =>   3
Atom   8Cl   basis set group =>   2
Atom   9H    basis set group =>   3
Atom  10H    basis set group =>   3
Atom  11H    basis set group =>   3


           ************************************************************
           *        Program running with 4 parallel MPI-processes     *
           *              working on a common directory               *
           ************************************************************
------------------------------------------------------------------------------
                           ORCA GTO INTEGRAL CALCULATION
                           -- RI-GTO INTEGRALS CHOSEN --
------------------------------------------------------------------------------

                         BASIS SET STATISTICS AND STARTUP INFO

Gaussian basis set:
 # of primitive gaussian shells          ...  176
 # of primitive gaussian functions       ...  316
 # of contracted shells                  ...   86
 # of contracted basis functions         ...  170
 Highest angular momentum                ...    2
 Maximum contraction depth               ...    7
Auxiliary gaussian basis set:
 # of primitive gaussian shells          ...  166
 # of primitive gaussian functions       ...  390
 # of contracted shells                  ...  122
 # of contracted aux-basis functions     ...  306
 Highest angular momentum                ...    4
 Maximum contraction depth               ...    7
Ratio of auxiliary to basis functions    ...  1.80
Integral package used                  ... LIBINT
 One Electron integrals                  ... done
 Ordering auxiliary basis shells         ... done
 Integral threshhold             Thresh  ...  2.500e-11
 Primitive cut-off               TCut    ...  2.500e-12
 Pre-screening matrix                    ... done
 Shell pair data                         ... 
 Ordering of the shell pairs             ... done (   0.001 sec) 3395 of 3741 pairs
 Determination of significant pairs      ... done (   0.000 sec)
 Creation of shell pair data             ... done (   0.000 sec)
 Storage of shell pair data              ... done (   0.019 sec)
 Shell pair data done in (   0.020 sec)
 Computing two index integrals           ... done
 Cholesky decomposition of the V-matrix  ... done


Timings:
 Total evaluation time                   ...   0.142 sec (  0.002 min)
 One electron matrix time                ...   0.018 sec (  0.000 min) = 13.0%
 Schwartz matrix evaluation time         ...   0.082 sec (  0.001 min) = 57.4%
 Two index repulsion integral time       ...   0.002 sec (  0.000 min) =  1.5%
 Cholesky decomposition of V             ...   0.003 sec (  0.000 min) =  1.9%
 Three index repulsion integral time     ...   0.000 sec (  0.000 min) =  0.0%



           ************************************************************
           *        Program running with 4 parallel MPI-processes     *
           *              working on a common directory               *
           ************************************************************
-------------------------------------------------------------------------------
                                 ORCA SCF
-------------------------------------------------------------------------------

------------
SCF SETTINGS
------------
Hamiltonian:
 Density Functional     Method          .... DFT(GTOs)
 Exchange Functional    Exchange        .... B973C
 Correlation Functional Correlation     .... B973C
 Gradients option       PostSCFGGA      .... off
   Density functional embedding theory  .... OFF
 RI-approximation to the Coulomb term is turned on
   Number of auxiliary basis functions  .... 306


General Settings:
 Integral files         IntName         .... 1,3-dichlorobenzene
 Hartree-Fock type      HFTyp           .... RHF
 Total Charge           Charge          ....    0
 Multiplicity           Mult            ....    1
 Number of Electrons    NEL             ....   74
 Basis Dimension        Dim             ....  170
 Nuclear Repulsion      ENuc            ....    453.5613386716 Eh

Convergence Acceleration:
 DIIS                   CNVDIIS         .... on
   Start iteration      DIISMaxIt       ....    12
   Startup error        DIISStart       ....  0.200000
   # of expansion vecs  DIISMaxEq       ....     5
   Bias factor          DIISBfac        ....   1.050
   Max. coefficient     DIISMaxC        ....  10.000
 Newton-Raphson         CNVNR           .... off
 SOSCF                  CNVSOSCF        .... on
   Start iteration      SOSCFMaxIt      ....   150
   Startup grad/error   SOSCFStart      ....  0.003300
 Level Shifting         CNVShift        .... on
   Level shift para.    LevelShift      ....    0.2500
   Turn off err/grad.   ShiftErr        ....    0.0010
 Zerner damping         CNVZerner       .... off
 Static damping         CNVDamp         .... on
   Fraction old density DampFac         ....    0.7000
   Max. Damping (<1)    DampMax         ....    0.9800
   Min. Damping (>=0)   DampMin         ....    0.0000
   Turn off err/grad.   DampErr         ....    0.1000
 Fernandez-Rico         CNVRico         .... off

SCF Procedure:
 Maximum # iterations   MaxIter         ....   125
 SCF integral mode      SCFMode         .... Direct
   Integral package                     .... LIBINT
 Reset frequency        DirectResetFreq ....    20
 Integral Threshold     Thresh          ....  2.500e-11 Eh
 Primitive CutOff       TCut            ....  2.500e-12 Eh

Convergence Tolerance:
 Convergence Check Mode ConvCheckMode   .... Total+1el-Energy
 Convergence forced     ConvForced      .... 0
 Energy Change          TolE            ....  1.000e-08 Eh
 1-El. energy change                    ....  1.000e-05 Eh
 Orbital Gradient       TolG            ....  1.000e-05
 Orbital Rotation angle TolX            ....  1.000e-05
 DIIS Error             TolErr          ....  5.000e-07


Diagonalization of the overlap matrix:
Smallest eigenvalue                        ... 1.261e-05
Time for diagonalization                   ...    0.008 sec
Threshold for overlap eigenvalues          ... 1.000e-08
Number of eigenvalues below threshold      ... 0
Time for construction of square roots      ...    0.005 sec
Total time needed                          ...    0.013 sec

--------------------------------
INITIAL GUESS: MINIMAL BASIS EHT
--------------------------------
The minimal basis has 52 functions
EHT matrix was diagonalized
Basis set overlap was calculated now projecting the orbitals
Using GuessMode=FMatrix for the initial guess
C*T matrix was formed
Effective Fockian was calculated
Effective Fockian was diagonalized
Initial density was built
                      ------------------
                      INITIAL GUESS DONE
                      ------------------
-------------------
DFT GRID GENERATION
-------------------

General Integration Accuracy     IntAcc      ...  4.340
Radial Grid Type                 RadialGrid  ... Gauss-Chebyshev
Angular Grid (max. acc.)         AngularGrid ... Lebedev-194
Angular grid pruning method      GridPruning ... 3 (G Style)
Weight generation scheme         WeightScheme... Becke
Basis function cutoff            BFCut       ...    1.0000e-11
Integration weight cutoff        WCut        ...    1.0000e-14
Grids for H and He will be reduced by one unit

# of grid points (after initial pruning)     ...  33124 (   0.0 sec)
# of grid points (after weights+screening)   ...  30980 (   0.0 sec)
nearest neighbour list constructed           ...    0.0 sec
Grid point re-assignment to atoms done       ...    0.0 sec
Grid point division into batches done        ...    0.1 sec
Reduced shell lists constructed in    0.1 sec

Total number of grid points                  ...    30980
Total number of batches                      ...      492
Average number of points per batch           ...       62
Average number of grid points per atom       ...     2582
Average number of shells per batch           ...    65.35 (75.99%)
Average number of basis functions per batch  ...   139.42 (82.01%)
Average number of large shells per batch     ...    55.24 (84.53%)
Average number of large basis fcns per batch ...   116.35 (83.46%)
Maximum spatial batch extension              ...   3.62,  4.20, 22.17 au
Average spatial batch extension              ...   0.40,  0.43,  0.74 au

Time for grid setup =    0.154 sec

--------------
SCF ITERATIONS
--------------
ITER       Energy         Delta-E        Max-DP      RMS-DP      [F,P]     Damp
               ***  Starting incremental Fock matrix formation  ***
  0  -1149.8034236634   0.000000000000 0.32251972  0.01146353  1.0641702 0.7000
  1  -1150.2295209326  -0.426097269227 0.23013469  0.00812891  0.7277803 0.7000
  2  -1150.5048219636  -0.275301030914 0.16578409  0.00611352  0.4992420 0.7000
  3  -1150.6974552285  -0.192633264979 0.16917486  0.00478324  0.3462472 0.7000
  4  -1150.8331774157  -0.135722187203 0.13898674  0.00359791  0.2408107 0.7000
                               ***Turning on DIIS***
  5  -1150.9280582205  -0.094880804771 0.09933463  0.00257608  0.1675801 0.7000
  6  -1150.9944267035  -0.066368482942 0.06254268  0.00179368  0.1166840 0.7000
  7  -1151.0408930625  -0.046466359029 0.14131079  0.00421692  0.0815972 0.0000
                      *** Initiating the SOSCF procedure ***
                           *** Shutting down DIIS ***
                      *** Re-Reading the Fockian *** 
                      *** Removing any level shift *** 
ITER      Energy       Delta-E        Grad      Rot      Max-DP    RMS-DP
  8  -1151.14938048  -0.1084874139  0.000158  0.000158  0.001178  0.000049
               *** Restarting incremental Fock matrix formation ***
  9  -1151.14938030   0.0000001762  0.000259  0.001439  0.002914  0.000071
 10  -1151.14937497   0.0000053332  0.000680  0.001121  0.001156  0.000038
 11  -1151.14938149  -0.0000065194  0.000070  0.000229  0.001412  0.000028
 12  -1151.14938117   0.0000003148  0.000156  0.000156  0.000933  0.000018
 13  -1151.14938158  -0.0000004062  0.000003  0.000014  0.000049  0.000001
 14  -1151.14938158  -0.0000000046  0.000006  0.000009  0.000019  0.000000
                  ***Gradient check signals convergence***
              ***Rediagonalizing the Fockian in SOSCF/NRSCF***

               *****************************************************
               *                     SUCCESS                       *
               *           SCF CONVERGED AFTER  15 CYCLES          *
               *****************************************************

Setting up the final grid:

General Integration Accuracy     IntAcc      ...  4.670
Radial Grid Type                 RadialGrid  ... Gauss-Chebyshev
Angular Grid (max. acc.)         AngularGrid ... Lebedev-302
Angular grid pruning method      GridPruning ... 3 (G Style)
Weight generation scheme         WeightScheme... Becke
Basis function cutoff            BFCut       ...    1.0000e-11
Integration weight cutoff        WCut        ...    1.0000e-14
Grids for H and He will be reduced by one unit

# of grid points (after initial pruning)     ...  64324 (   0.0 sec)
# of grid points (after weights+screening)   ...  59740 (   0.0 sec)
nearest neighbour list constructed           ...    0.0 sec
Grid point re-assignment to atoms done       ...    0.0 sec
Grid point division into batches done        ...    0.3 sec
Reduced shell lists constructed in    0.4 sec

Total number of grid points                  ...    59740
Total number of batches                      ...      938
Average number of points per batch           ...       63
Average number of grid points per atom       ...     4978
Average number of shells per batch           ...    63.92 (74.32%)
Average number of basis functions per batch  ...   136.21 (80.12%)
Average number of large shells per batch     ...    53.74 (84.08%)
Average number of large basis fcns per batch ...   112.94 (82.91%)
Maximum spatial batch extension              ...   3.97,  4.00, 23.12 au
Average spatial batch extension              ...   0.35,  0.35,  0.53 au

Final grid set up in    0.4 sec
Final integration                            ... done (   0.3 sec)
Change in XC energy                          ...    -0.000467501
Integrated number of electrons               ...    73.999948172
Previous integrated no of electrons          ...    73.999938391

----------------
TOTAL SCF ENERGY
----------------

Total Energy       :        -1151.14984907 Eh          -31324.37989 eV

Components:
Nuclear Repulsion  :          453.56133867 Eh           12342.03148 eV
Electronic Energy  :        -1604.71118774 Eh          -43666.41138 eV
One Electron Energy:        -2483.10189216 Eh          -67568.63761 eV
Two Electron Energy:          878.39070442 Eh           23902.22623 eV

Virial components:
Potential Energy   :        -2299.85731755 Eh          -62582.29923 eV
Kinetic Energy     :         1148.70746848 Eh           31257.91934 eV
Virial Ratio       :            2.00212620


DFT components:
N(Alpha)           :       36.999974086049 electrons
N(Beta)            :       36.999974086049 electrons
N(Total)           :       73.999948172098 electrons
E(XC)              :      -90.236745077591 Eh       
DFET-embed. en.    :        0.000000000000 Eh       

---------------
SCF CONVERGENCE
---------------

  Last Energy change         ...    1.3190e-08  Tolerance :   1.0000e-08
  Last MAX-Density change    ...    4.8554e-05  Tolerance :   1.0000e-07
  Last RMS-Density change    ...    1.2769e-06  Tolerance :   5.0000e-09
  Last Orbital Gradient      ...    1.0957e-06  Tolerance :   1.0000e-05
  Last Orbital Rotation      ...    1.7350e-06  Tolerance :   1.0000e-05

             **** THE GBW FILE WAS UPDATED (1,3-dichlorobenzene.gbw) ****
             **** DENSITY FILE WAS UPDATED (1,3-dichlorobenzene.scfp) ****
             **** ENERGY FILE WAS UPDATED (1,3-dichlorobenzene.en.tmp) ****
             **** THE GBW FILE WAS UPDATED (1,3-dichlorobenzene.gbw) ****
             **** DENSITY FILE WAS UPDATED (1,3-dichlorobenzene.scfp) ****
----------------
ORBITAL ENERGIES
----------------

  NO   OCC          E(Eh)            E(eV) 
   0   2.0000    -100.651148     -2738.8570 
   1   2.0000    -100.651139     -2738.8567 
   2   2.0000      -9.972739      -271.3720 
   3   2.0000      -9.972732      -271.3718 
   4   2.0000      -9.923119      -270.0218 
   5   2.0000      -9.922079      -269.9935 
   6   2.0000      -9.918665      -269.9006 
   7   2.0000      -9.918639      -269.8999 
   8   2.0000      -9.238278      -251.3863 
   9   2.0000      -9.238268      -251.3861 
  10   2.0000      -7.074520      -192.5075 
  11   2.0000      -7.074514      -192.5073 
  12   2.0000      -7.061696      -192.1585 
  13   2.0000      -7.061678      -192.1580 
  14   2.0000      -7.061041      -192.1407 
  15   2.0000      -7.061024      -192.1402 
  16   2.0000      -0.844399       -22.9773 
  17   2.0000      -0.816122       -22.2078 
  18   2.0000      -0.765834       -20.8394 
  19   2.0000      -0.696248       -18.9459 
  20   2.0000      -0.676122       -18.3982 
  21   2.0000      -0.574104       -15.6222 
  22   2.0000      -0.555612       -15.1190 
  23   2.0000      -0.486075       -13.2268 
  24   2.0000      -0.447296       -12.1715 
  25   2.0000      -0.436986       -11.8910 
  26   2.0000      -0.406993       -11.0749 
  27   2.0000      -0.405043       -11.0218 
  28   2.0000      -0.378387       -10.2964 
  29   2.0000      -0.345492        -9.4013 
  30   2.0000      -0.344572        -9.3763 
  31   2.0000      -0.334056        -9.0901 
  32   2.0000      -0.292998        -7.9729 
  33   2.0000      -0.287788        -7.8311 
  34   2.0000      -0.280752        -7.6396 
  35   2.0000      -0.239428        -6.5152 
  36   2.0000      -0.225807        -6.1445 
  37   0.0000      -0.059273        -1.6129 
  38   0.0000      -0.057312        -1.5595 
  39   0.0000      -0.019575        -0.5327 
  40   0.0000       0.024764         0.6739 
  41   0.0000       0.050061         1.3622 
  42   0.0000       0.071580         1.9478 
  43   0.0000       0.079430         2.1614 
  44   0.0000       0.079582         2.1655 
  45   0.0000       0.101001         2.7484 
  46   0.0000       0.116898         3.1810 
  47   0.0000       0.122510         3.3337 
  48   0.0000       0.173710         4.7269 
  49   0.0000       0.184640         5.0243 
  50   0.0000       0.187790         5.1100 
  51   0.0000       0.192748         5.2449 
  52   0.0000       0.199055         5.4166 
  53   0.0000       0.210838         5.7372 
  54   0.0000       0.228242         6.2108 
  55   0.0000       0.235640         6.4121 
  56   0.0000       0.243461         6.6249 
  57   0.0000       0.251752         6.8505 
  58   0.0000       0.259815         7.0699 
  59   0.0000       0.292818         7.9680 
  60   0.0000       0.295916         8.0523 
  61   0.0000       0.297464         8.0944 
  62   0.0000       0.316358         8.6085 
  63   0.0000       0.320678         8.7261 
  64   0.0000       0.322123         8.7654 
  65   0.0000       0.340298         9.2600 
  66   0.0000       0.344414         9.3720 
  67   0.0000       0.359523         9.7831 
  68   0.0000       0.379759        10.3338 
  69   0.0000       0.381773        10.3886 
  70   0.0000       0.399653        10.8751 
  71   0.0000       0.410917        11.1816 
  72   0.0000       0.417684        11.3658 
  73   0.0000       0.426384        11.6025 
  74   0.0000       0.433509        11.7964 
  75   0.0000       0.452141        12.3034 
  76   0.0000       0.461248        12.5512 
  77   0.0000       0.531199        14.4547 
  78   0.0000       0.532740        14.4966 
  79   0.0000       0.541232        14.7277 
  80   0.0000       0.589171        16.0322 
  81   0.0000       0.608651        16.5622 
  82   0.0000       0.623080        16.9549 
  83   0.0000       0.624387        16.9904 
  84   0.0000       0.624409        16.9910 
  85   0.0000       0.640999        17.4425 
  86   0.0000       0.663072        18.0431 
  87   0.0000       0.669182        18.2094 
  88   0.0000       0.680431        18.5155 
  89   0.0000       0.701054        19.0767 
  90   0.0000       0.736547        20.0425 
  91   0.0000       0.789145        21.4737 
  92   0.0000       0.861809        23.4510 
  93   0.0000       0.866951        23.5909 
  94   0.0000       0.881040        23.9743 
  95   0.0000       0.907177        24.6855 
  96   0.0000       0.977635        26.6028 
  97   0.0000       1.093945        29.7678 
  98   0.0000       1.150714        31.3125 
  99   0.0000       1.153730        31.3946 
 100   0.0000       1.214493        33.0480 
 101   0.0000       1.268619        34.5209 
 102   0.0000       1.310748        35.6673 
 103   0.0000       1.315774        35.8040 
 104   0.0000       1.316063        35.8119 
 105   0.0000       1.321929        35.9715 
 106   0.0000       1.330341        36.2004 
 107   0.0000       1.332918        36.2706 
 108   0.0000       1.344067        36.5739 
 109   0.0000       1.353858        36.8403 
 110   0.0000       1.374103        37.3912 
 111   0.0000       1.388429        37.7811 
 112   0.0000       1.451487        39.4970 
 113   0.0000       1.454909        39.5901 
 114   0.0000       1.457133        39.6506 
 115   0.0000       1.462716        39.8025 
 116   0.0000       1.472468        40.0679 
 117   0.0000       1.498200        40.7681 
 118   0.0000       1.500660        40.8350 
 119   0.0000       1.561246        42.4837 
 120   0.0000       1.567925        42.6654 
 121   0.0000       1.568045        42.6687 
 122   0.0000       1.630854        44.3778 
 123   0.0000       1.674394        45.5626 
 124   0.0000       1.691035        46.0154 
 125   0.0000       1.707124        46.4532 
 126   0.0000       1.726482        46.9800 
 127   0.0000       1.756938        47.8087 
 128   0.0000       1.768335        48.1188 
 129   0.0000       1.798938        48.9516 
 130   0.0000       1.974327        53.7242 
 131   0.0000       2.016498        54.8717 
 132   0.0000       2.101237        57.1776 
 133   0.0000       2.110498        57.4296 
 134   0.0000       2.128217        57.9117 
 135   0.0000       2.128651        57.9235 
 136   0.0000       2.151435        58.5435 
 137   0.0000       2.197074        59.7854 
 138   0.0000       2.205994        60.0281 
 139   0.0000       2.215246        60.2799 
 140   0.0000       2.225236        60.5517 
 141   0.0000       2.227601        60.6161 
 142   0.0000       2.251674        61.2712 
 143   0.0000       2.257073        61.4181 
 144   0.0000       2.295214        62.4560 
 145   0.0000       2.332928        63.4822 
 146   0.0000       2.336823        63.5882 
 147   0.0000       2.342672        63.7474 
 148   0.0000       2.498085        67.9764 
 149   0.0000       2.533041        68.9276 
 150   0.0000       2.574749        70.0625 
 151   0.0000       2.694649        73.3251 
 152   0.0000       2.710997        73.7700 
 153   0.0000       2.777108        75.5689 
 154   0.0000       2.790846        75.9428 
 155   0.0000       2.958309        80.4997 
 156   0.0000       2.996697        81.5443 
 157   0.0000       3.037511        82.6549 
 158   0.0000       3.054923        83.1287 
 159   0.0000       3.094240        84.1985 
 160   0.0000       3.406653        92.6997 
 161   0.0000       3.412408        92.8563 
 162   0.0000      20.933517       569.6300 
 163   0.0000      21.478405       584.4571 
 164   0.0000      21.513056       585.4000 
 165   0.0000      21.822195       593.8121 
 166   0.0000      21.825885       593.9125 
 167   0.0000      22.014345       599.0408 
 168   0.0000      24.946236       678.8216 
 169   0.0000      24.987207       679.9365 

                    ********************************
                    * MULLIKEN POPULATION ANALYSIS *
                    ********************************

-----------------------
MULLIKEN ATOMIC CHARGES
-----------------------
   0 C :    0.013476
   1 C :   -0.161038
   2 C :   -0.099686
   3 C :   -0.167445
   4 C :    0.014950
   5 C :   -0.114045
   6 Cl:   -0.115758
   7 H :    0.183932
   8 Cl:   -0.115345
   9 H :    0.202339
  10 H :    0.172298
  11 H :    0.186323
Sum of atomic charges:   -0.0000000

--------------------------------
MULLIKEN REDUCED ORBITAL CHARGES
--------------------------------
  0 C s       :     3.255371  s :     3.255371
      pz      :     1.035509  p :     2.676739
      px      :     0.834506
      py      :     0.806724
      dz2     :     0.003697  d :     0.054414
      dxz     :     0.007885
      dyz     :     0.007727
      dx2y2   :     0.017384
      dxy     :     0.017721
  1 C s       :     3.100217  s :     3.100217
      pz      :     1.005566  p :     3.021017
      px      :     1.085705
      py      :     0.929746
      dz2     :     0.004010  d :     0.039804
      dxz     :     0.002318
      dyz     :     0.006121
      dx2y2   :     0.015532
      dxy     :     0.011823
  2 C s       :     3.103605  s :     3.103605
      pz      :     0.981898  p :     2.954986
      px      :     0.949650
      py      :     1.023439
      dz2     :     0.003950  d :     0.041095
      dxz     :     0.006532
      dyz     :     0.002517
      dx2y2   :     0.014597
      dxy     :     0.013499
  3 C s       :     3.105557  s :     3.105557
      pz      :     1.006266  p :     3.022094
      px      :     1.072211
      py      :     0.943617
      dz2     :     0.004007  d :     0.039794
      dxz     :     0.004414
      dyz     :     0.004028
      dx2y2   :     0.011918
      dxy     :     0.015427
  4 C s       :     3.253123  s :     3.253123
      pz      :     1.035245  p :     2.677500
      px      :     0.712731
      py      :     0.929525
      dz2     :     0.003697  d :     0.054427
      dxz     :     0.008095
      dyz     :     0.007522
      dx2y2   :     0.017607
      dxy     :     0.017506
  5 C s       :     3.029750  s :     3.029750
      pz      :     1.011758  p :     3.045111
      px      :     0.985993
      py      :     1.047360
      dz2     :     0.004096  d :     0.039184
      dxz     :     0.006076
      dyz     :     0.002716
      dx2y2   :     0.013428
      dxy     :     0.012868
  6 Cls       :     5.944551  s :     5.944551
      pz      :     3.915615  p :    11.123703
      px      :     3.640004
      py      :     3.568084
      dz2     :     0.006475  d :     0.047504
      dxz     :     0.005933
      dyz     :     0.007362
      dx2y2   :     0.008249
      dxy     :     0.019485
  7 H s       :     0.816068  s :     0.816068
  8 Cls       :     5.944477  s :     5.944477
      pz      :     3.915597  p :    11.123365
      px      :     3.287162
      py      :     3.920607
      dz2     :     0.006473  d :     0.047502
      dxz     :     0.012586
      dyz     :     0.000714
      dx2y2   :     0.017843
      dxy     :     0.009886
  9 H s       :     0.797661  s :     0.797661
 10 H s       :     0.827702  s :     0.827702
 11 H s       :     0.813677  s :     0.813677


                     *******************************
                     * LOEWDIN POPULATION ANALYSIS *
                     *******************************

----------------------
LOEWDIN ATOMIC CHARGES
----------------------
   0 C :   -0.209074
   1 C :   -0.185738
   2 C :   -0.144814
   3 C :   -0.186115
   4 C :   -0.209110
   5 C :   -0.203227
   6 Cl:    0.215572
   7 H :    0.175376
   8 Cl:    0.215644
   9 H :    0.182708
  10 H :    0.173238
  11 H :    0.175539

-------------------------------
LOEWDIN REDUCED ORBITAL CHARGES
-------------------------------
  0 C s       :     2.912499  s :     2.912499
      pz      :     1.028687  p :     3.181513
      px      :     1.082219
      py      :     1.070608
      dz2     :     0.007932  d :     0.115061
      dxz     :     0.013923
      dyz     :     0.013487
      dx2y2   :     0.039258
      dxy     :     0.040462
  1 C s       :     2.911541  s :     2.911541
      pz      :     1.007688  p :     3.195477
      px      :     1.102161
      py      :     1.085628
      dz2     :     0.006590  d :     0.078719
      dxz     :     0.003372
      dyz     :     0.011473
      dx2y2   :     0.031277
      dxy     :     0.026007
  2 C s       :     2.907877  s :     2.907877
      pz      :     0.973336  p :     3.156701
      px      :     1.093152
      py      :     1.090213
      dz2     :     0.006209  d :     0.080236
      dxz     :     0.012088
      dyz     :     0.003892
      dx2y2   :     0.029589
      dxy     :     0.028458
  3 C s       :     2.911557  s :     2.911557
      pz      :     1.007915  p :     3.195838
      px      :     1.108065
      py      :     1.079858
      dz2     :     0.006590  d :     0.078720
      dxz     :     0.007670
      dyz     :     0.007175
      dx2y2   :     0.026631
      dxy     :     0.030654
  4 C s       :     2.912522  s :     2.912522
      pz      :     1.028649  p :     3.181529
      px      :     1.013484
      py      :     1.139395
      dz2     :     0.007931  d :     0.115059
      dxz     :     0.014006
      dyz     :     0.013404
      dx2y2   :     0.040150
      dxy     :     0.039567
  5 C s       :     2.914867  s :     2.914867
      pz      :     1.019723  p :     3.209888
      px      :     1.089577
      py      :     1.100588
      dz2     :     0.007007  d :     0.078471
      dxz     :     0.011425
      dyz     :     0.004218
      dx2y2   :     0.028119
      dxy     :     0.027702
  6 Cls       :     5.647142  s :     5.647142
      pz      :     3.894875  p :    11.083892
      px      :     3.627756
      py      :     3.561262
      dz2     :     0.007684  d :     0.053394
      dxz     :     0.006267
      dyz     :     0.007792
      dx2y2   :     0.008601
      dxy     :     0.023050
  7 H s       :     0.824624  s :     0.824624
  8 Cls       :     5.647133  s :     5.647133
      pz      :     3.894872  p :    11.083831
      px      :     3.302182
      py      :     3.886777
      dz2     :     0.007683  d :     0.053391
      dxz     :     0.013328
      dyz     :     0.000733
      dx2y2   :     0.020919
      dxy     :     0.010728
  9 H s       :     0.817292  s :     0.817292
 10 H s       :     0.826762  s :     0.826762
 11 H s       :     0.824461  s :     0.824461


                      *****************************
                      * MAYER POPULATION ANALYSIS *
                      *****************************

  NA   - Mulliken gross atomic population
  ZA   - Total nuclear charge
  QA   - Mulliken gross atomic charge
  VA   - Mayer's total valence
  BVA  - Mayer's bonded valence
  FA   - Mayer's free valence

  ATOM       NA         ZA         QA         VA         BVA        FA
  0 C      5.9865     6.0000     0.0135     3.7761     3.7761    -0.0000
  1 C      6.1610     6.0000    -0.1610     3.8707     3.8707    -0.0000
  2 C      6.0997     6.0000    -0.0997     4.0108     4.0108    -0.0000
  3 C      6.1674     6.0000    -0.1674     3.8681     3.8681    -0.0000
  4 C      5.9851     6.0000     0.0149     3.7786     3.7786    -0.0000
  5 C      6.1140     6.0000    -0.1140     3.6834     3.6834    -0.0000
  6 Cl    17.1158    17.0000    -0.1158     1.1632     1.1632    -0.0000
  7 H      0.8161     1.0000     0.1839     0.9345     0.9345    -0.0000
  8 Cl    17.1153    17.0000    -0.1153     1.1640     1.1640    -0.0000
  9 H      0.7977     1.0000     0.2023     0.9242     0.9242     0.0000
 10 H      0.8277     1.0000     0.1723     0.9358     0.9358    -0.0000
 11 H      0.8137     1.0000     0.1863     0.9332     0.9332     0.0000

  Mayer bond orders larger than 0.100000
B(  0-C ,  1-C ) :   1.3370 B(  0-C ,  5-C ) :   1.3303 B(  0-C ,  6-Cl) :   1.0272 
B(  1-C ,  2-C ) :   1.5050 B(  1-C ,  7-H ) :   0.9020 B(  2-C ,  3-C ) :   1.5023 
B(  2-C , 10-H ) :   0.9123 B(  3-C ,  4-C ) :   1.3357 B(  3-C , 11-H ) :   0.9036 
B(  4-C ,  5-C ) :   1.3327 B(  4-C ,  8-Cl) :   1.0282 B(  5-C ,  9-H ) :   0.8977 


-------
TIMINGS
-------

Total SCF time: 0 days 0 hours 0 min 5 sec 

Total time                  ....       5.050 sec
Sum of individual times     ....       4.912 sec  ( 97.3%)

Fock matrix formation       ....       4.109 sec  ( 81.4%)
  Split-RI-J                ....       1.973 sec  ( 48.0% of F)
  XC integration            ....       2.100 sec  ( 51.1% of F)
    Basis function eval.    ....       0.450 sec  ( 21.4% of XC)
    Density eval.           ....       0.574 sec  ( 27.3% of XC)
    XC-Functional eval.     ....       0.318 sec  ( 15.2% of XC)
    XC-Potential eval.      ....       0.504 sec  ( 24.0% of XC)
Diagonalization             ....       0.076 sec  (  1.5%)
Density matrix formation    ....       0.027 sec  (  0.5%)
Population analysis         ....       0.007 sec  (  0.1%)
Initial guess               ....       0.019 sec  (  0.4%)
Orbital Transformation      ....       0.000 sec  (  0.0%)
Orbital Orthonormalization  ....       0.000 sec  (  0.0%)
DIIS solution               ....       0.026 sec  (  0.5%)
SOSCF solution              ....       0.049 sec  (  1.0%)
Grid generation             ....       0.599 sec  ( 11.9%)


-------------------------------------------------------------------------------
                          DFT DISPERSION CORRECTION                            
                                                                               
                              DFTD3 V3.1  Rev 1                                
                          USING Becke-Johnson damping                          
-------------------------------------------------------------------------------
The B97-3c composite method is recognized
Using three-body term ABC
Active option DFTDOPT                   ...         4   

molecular C6(AA) [au] = 3138.778148 


            DFT-D V3
 parameters
 s6 scaling factor         :     1.0000 
 a1 scaling factor         :     0.3700 
 s8 scaling factor         :     1.5000 
 a2 scaling factor         :     4.1000 
 Damping factor alpha9(ATM):    16.0000 
 ad hoc parameters k1-k3   :    16.0000     1.3333    -4.0000 

 Edisp/kcal,au: -22.018973627969  -0.035089464286 
 E6   /kcal   : -10.310992505 
 E8   /kcal   : -11.716398249 
 E6(ABC)      :   0.008417126 
 % E8         :  53.210464971 
 % E6(ABC)    :  -0.038226697 

-------------------------   ----------------
Dispersion correction           -0.035089464
-------------------------   ----------------

------------------   -----------------
SRB correction            -0.038640053
------------------   -----------------

-------------------------   --------------------
FINAL SINGLE POINT ENERGY     -1151.223578587059
-------------------------   --------------------



           ************************************************************
           *        Program running with 4 parallel MPI-processes     *
           *              working on a common directory               *
           ************************************************************
------------------------------------------------------------------------------
                         ORCA SCF GRADIENT CALCULATION
------------------------------------------------------------------------------

Gradient of the Kohn-Sham DFT energy:
Kohn-Sham wavefunction type      ... RKS
Hartree-Fock exchange scaling    ...    0.000
Number of operators              ...    1
Number of atoms                  ...   12
Basis set dimensions             ...  170
Integral neglect threshold       ... 2.5e-11
Integral primitive cutoff        ... 2.5e-12

Nuclear repulsion gradient       ... done
One Electron Gradient            ... done
Pre-screening matrix             ... done
RI-J gradient                    ... done
Exchange-correlation gradient    ... done
Dispersion correction            ... done
SRB correction                   ... done

------------------
CARTESIAN GRADIENT
------------------

   1   C   :   -0.012373561    0.018262734   -0.000000000
   2   C   :    0.001577255    0.004360796   -0.000000000
   3   C   :   -0.003755937   -0.011427957    0.000000001
   4   C   :    0.001366504    0.004361657    0.000000000
   5   C   :    0.020838300    0.007220137    0.000000000
   6   C   :   -0.000885080   -0.002532939    0.000000000
   7   Cl  :    0.007773148   -0.009627086   -0.000000001
   8   H   :   -0.004193655   -0.002682176   -0.000000000
   9   Cl  :   -0.012019601   -0.003074164    0.000000000
  10   H   :    0.001422191    0.004255261    0.000000000
  11   H   :   -0.001490355   -0.004506791    0.000000000
  12   H   :    0.001740792   -0.004609473   -0.000000000

Difference to translation invariance:
           :   -0.0000000000    0.0000000001   -0.0000000000

Norm of the cartesian gradient     ...    0.0395732510
RMS gradient                       ...    0.0065955418
MAX gradient                       ...    0.0208382995

-------
TIMINGS
-------

Total SCF gradient time            ...        1.736 sec

One electron gradient       ....       0.038 sec  (  2.2%)
Prescreening matrices       ....       0.044 sec  (  2.5%)
RI-J Coulomb gradient       ....       0.313 sec  ( 18.0%)
XC gradient                 ....       1.160 sec  ( 66.8%)
------------------------------------------------------------------------------
                         ORCA GEOMETRY RELAXATION STEP
------------------------------------------------------------------------------

Reading the OPT-File                    .... done
Getting information on internals        .... done
Copying old internal coords+grads       .... done
Making the new internal coordinates     .... (new redundants).... done
Validating the new internal coordinates .... (new redundants).... done
Calculating the B-matrix                .... done
Calculating the G,G- and P matrices     .... done
Transforming gradient to internals      .... done
Projecting the internal gradient        .... done
Number of atoms                         ....  12
Number of internal coordinates          ....  54
Current Energy                          .... -1151.223578587 Eh
Current gradient norm                   ....     0.039573251 Eh/bohr
Maximum allowed component of the step   ....  0.300
Current trust radius                    ....  0.300
Evaluating the initial hessian          ....  (Almloef) done
Projecting the Hessian                  .... done
Forming the augmented Hessian           .... done
Diagonalizing the augmented Hessian     .... done
Last element of RFO vector              ....  0.998138124
Lowest eigenvalues of augmented Hessian:
 -0.001674589  0.025875030  0.025881539  0.025887456  0.025889526
Length of the computed step             ....  0.061107920
The final length of the internal step   ....  0.061107920
Converting the step to cartesian space:
 Initial RMS(Int)=    0.0083157346
Transforming coordinates:
 Iter   0:  RMS(Cart)=    0.0101464597 RMS(Int)=    2.2622205569
 Iter   1:  RMS(Cart)=    0.0000324755 RMS(Int)=    0.0000187731
 Iter   2:  RMS(Cart)=    0.0000002125 RMS(Int)=    0.0000000985
 Iter   3:  RMS(Cart)=    0.0000000011 RMS(Int)=    0.0000000006
done
Storing new coordinates                 .... done

                                .--------------------.
          ----------------------|Geometry convergence|-------------------------
          Item                value                   Tolerance       Converged
          ---------------------------------------------------------------------
          RMS gradient        0.0038021393            0.0000300000      NO
          MAX gradient        0.0123921155            0.0001000000      NO
          RMS step            0.0083157346            0.0006000000      NO
          MAX step            0.0296945549            0.0010000000      NO
          ........................................................
          Max(Bonds)      0.0157      Max(Angles)    0.63
          Max(Dihed)        0.00      Max(Improp)    0.00
          ---------------------------------------------------------------------

The optimization has not yet converged - more geometry cycles are needed


    ---------------------------------------------------------------------------
                         Redundant Internal Coordinates
                            (Angstroem and degrees)

        Definition                    Value    dE/dq     Step     New-Value
    ----------------------------------------------------------------------------
     1. B(C   1,C   0)                1.3955  0.007628 -0.0066    1.3889   
     2. B(C   2,C   1)                1.3956  0.008071 -0.0070    1.3886   
     3. B(C   3,C   2)                1.3956  0.008032 -0.0070    1.3886   
     4. B(C   4,C   3)                1.3955  0.007623 -0.0066    1.3890   
     5. B(C   5,C   4)                1.3931  0.005353 -0.0045    1.3886   
     6. B(C   5,C   0)                1.3931  0.005304 -0.0045    1.3887   
     7. B(Cl  6,C   0)                1.7210 -0.012358  0.0157    1.7366   
     8. B(H   7,C   1)                1.0872  0.004655 -0.0067    1.0805   
     9. B(Cl  8,C   4)                1.7210 -0.012392  0.0157    1.7367   
    10. B(H   9,C   5)                1.0860  0.004487 -0.0065    1.0796   
    11. B(H  10,C   2)                1.0874  0.004747 -0.0069    1.0805   
    12. B(H  11,C   3)                1.0872  0.004604 -0.0067    1.0806   
    13. A(C   5,C   0,Cl  6)          119.71  0.001744   -0.24    119.47   
    14. A(C   1,C   0,C   5)          120.65 -0.001464    0.21    120.86   
    15. A(C   1,C   0,Cl  6)          119.64 -0.000280    0.03    119.67   
    16. A(C   0,C   1,C   2)          119.83  0.003014   -0.43    119.40   
    17. A(C   2,C   1,H   7)          119.76 -0.003317    0.51    120.27   
    18. A(C   0,C   1,H   7)          120.41  0.000303   -0.08    120.33   
    19. A(C   1,C   2,H  10)          120.08  0.002322   -0.32    119.77   
    20. A(C   1,C   2,C   3)          119.84 -0.004647    0.63    120.47   
    21. A(C   3,C   2,H  10)          120.08  0.002325   -0.32    119.77   
    22. A(C   2,C   3,C   4)          119.83  0.002970   -0.43    119.40   
    23. A(C   4,C   3,H  11)          120.41  0.000319   -0.08    120.33   
    24. A(C   2,C   3,H  11)          119.76 -0.003289    0.51    120.27   
    25. A(C   5,C   4,Cl  8)          119.71  0.001685   -0.23    119.48   
    26. A(C   3,C   4,Cl  8)          119.64 -0.000266    0.03    119.66   
    27. A(C   3,C   4,C   5)          120.65 -0.001420    0.21    120.86   
    28. A(C   4,C   5,H   9)          120.40 -0.000789    0.10    120.50   
    29. A(C   0,C   5,H   9)          120.40 -0.000757    0.09    120.49   
    30. A(C   0,C   5,C   4)          119.20  0.001547   -0.19    119.01   
    31. D(H   7,C   1,C   0,C   5)    180.00 -0.000000    0.00    180.00   
    32. D(H   7,C   1,C   0,Cl  6)      0.00 -0.000000    0.00      0.00   
    33. D(C   2,C   1,C   0,Cl  6)    180.00 -0.000000    0.00    180.00   
    34. D(C   2,C   1,C   0,C   5)      0.00 -0.000000    0.00      0.00   
    35. D(H  10,C   2,C   1,C   0)    180.00  0.000000   -0.00    180.00   
    36. D(C   3,C   2,C   1,C   0)      0.00 -0.000000    0.00      0.00   
    37. D(C   3,C   2,C   1,H   7)    180.00 -0.000000    0.00    180.00   
    38. D(H  10,C   2,C   1,H   7)      0.00  0.000000   -0.00     -0.00   
    39. D(H  11,C   3,C   2,H  10)      0.00  0.000000   -0.00     -0.00   
    40. D(H  11,C   3,C   2,C   1)    180.00  0.000000   -0.00    180.00   
    41. D(C   4,C   3,C   2,H  10)    180.00 -0.000000    0.00    180.00   
    42. D(C   4,C   3,C   2,C   1)      0.00  0.000000   -0.00     -0.00   
    43. D(Cl  8,C   4,C   3,C   2)    180.00  0.000000   -0.00    180.00   
    44. D(C   5,C   4,C   3,H  11)    180.00 -0.000000    0.00    180.00   
    45. D(C   5,C   4,C   3,C   2)      0.00 -0.000000    0.00      0.00   
    46. D(Cl  8,C   4,C   3,H  11)      0.00 -0.000000    0.00      0.00   
    47. D(H   9,C   5,C   4,Cl  8)      0.00 -0.000000    0.00      0.00   
    48. D(C   0,C   5,C   4,Cl  8)    180.00 -0.000000    0.00    180.00   
    49. D(C   0,C   5,C   4,C   3)      0.00 -0.000000    0.00      0.00   
    50. D(H   9,C   5,C   0,Cl  6)      0.00  0.000000   -0.00     -0.00   
    51. D(H   9,C   5,C   0,C   1)    180.00  0.000000   -0.00    180.00   
    52. D(H   9,C   5,C   4,C   3)    180.00 -0.000000    0.00    180.00   
    53. D(C   4,C   5,C   0,Cl  6)    180.00  0.000000   -0.00    180.00   
    54. D(C   4,C   5,C   0,C   1)      0.00  0.000000   -0.00     -0.00   
    ----------------------------------------------------------------------------

         *************************************************************
         *                GEOMETRY OPTIMIZATION CYCLE   2            *
         *************************************************************
---------------------------------
CARTESIAN COORDINATES (ANGSTROEM)
---------------------------------
  C     -4.266656    1.031356   -0.000000
  C     -4.711256   -0.284510   -0.000000
  C     -3.783282   -1.317511   -0.000000
  C     -2.422351   -1.041492   -0.000000
  C     -1.994573    0.279944   -0.000000
  C     -2.909335    1.324666   -0.000000
  Cl    -5.421104    2.328701    0.000000
  H     -5.769438   -0.502895    0.000000
  Cl    -0.294156    0.632914    0.000000
  H     -2.570403    2.349636   -0.000000
  H     -4.122555   -2.343371   -0.000000
  H     -1.703049   -1.847844    0.000000

----------------------------
CARTESIAN COORDINATES (A.U.)
----------------------------
  NO LB      ZA    FRAG     MASS         X           Y           Z
   0 C     6.0000    0    12.011   -8.062811    1.948981   -0.000000
   1 C     6.0000    0    12.011   -8.902984   -0.537646   -0.000000
   2 C     6.0000    0    12.011   -7.149367   -2.489736   -0.000000
   3 C     6.0000    0    12.011   -4.577580   -1.968135   -0.000000
   4 C     6.0000    0    12.011   -3.769197    0.529017   -0.000000
   5 C     6.0000    0    12.011   -5.497847    2.503255   -0.000000
   6 Cl   17.0000    0    35.453  -10.244402    4.400608    0.000000
   7 H     1.0000    0     1.008  -10.902657   -0.950333    0.000000
   8 Cl   17.0000    0    35.453   -0.555875    1.196035    0.000000
   9 H     1.0000    0     1.008   -4.857358    4.440169   -0.000000
  10 H     1.0000    0     1.008   -7.790500   -4.428330   -0.000000
  11 H     1.0000    0     1.008   -3.218296   -3.491919    0.000000

--------------------------------
INTERNAL COORDINATES (ANGSTROEM)
--------------------------------
 C      0   0   0     0.000000000000     0.00000000     0.00000000
 C      1   0   0     1.388946982847     0.00000000     0.00000000
 C      2   1   0     1.388606751348   119.39684661     0.00000000
 C      3   2   1     1.388639748512   120.46923706     0.00000000
 C      4   3   2     1.388951349160   119.40290393     0.00000000
 C      5   4   3     1.388608535517   120.85662201     0.00000000
 Cl     1   2   3     1.736621547307   119.66667140   180.00000085
 H      2   1   3     1.080481137820   120.32973902   179.99999915
 Cl     5   4   3     1.736665238072   119.66474813   179.99999915
 H      6   5   4     1.079555489996   120.49674803   180.00000000
 H      3   2   1     1.080506718181   119.76562631   180.00000000
 H      4   3   2     1.080554650948   120.26936912   179.99999879

---------------------------
INTERNAL COORDINATES (A.U.)
---------------------------
 C      0   0   0     0.000000000000     0.00000000     0.00000000
 C      1   0   0     2.624729412117     0.00000000     0.00000000
 C      2   1   0     2.624086467762   119.39684661     0.00000000
 C      3   2   1     2.624148823365   120.46923706     0.00000000
 C      4   3   2     2.624737663253   119.40290393     0.00000000
 C      5   4   3     2.624089839352   120.85662201     0.00000000
 Cl     1   2   3     3.281739122677   119.66667140   180.00000085
 H      2   1   3     2.041813443347   120.32973902   179.99999915
 Cl     5   4   3     3.281821686258   119.66474813   179.99999915
 H      6   5   4     2.040064222464   120.49674803   180.00000000
 H      3   2   1     2.041861783224   119.76562631   180.00000000
 H      4   3   2     2.041952363027   120.26936912   179.99999879



           ************************************************************
           *        Program running with 4 parallel MPI-processes     *
           *              working on a common directory               *
           ************************************************************
 One Electron integrals                  ... done
 Pre-screening matrix                    ... done


           ************************************************************
           *        Program running with 4 parallel MPI-processes     *
           *              working on a common directory               *
           ************************************************************

Diagonalization of the overlap matrix:
Smallest eigenvalue                        ... 1.196e-05
Time for diagonalization                   ...    0.008 sec
Threshold for overlap eigenvalues          ... 1.000e-08
Number of eigenvalues below threshold      ... 0
Time for construction of square roots      ...    0.006 sec
Total time needed                          ...    0.014 sec

-------------------
DFT GRID GENERATION
-------------------

General Integration Accuracy     IntAcc      ...  4.340
Radial Grid Type                 RadialGrid  ... Gauss-Chebyshev
Angular Grid (max. acc.)         AngularGrid ... Lebedev-194
Angular grid pruning method      GridPruning ... 3 (G Style)
Weight generation scheme         WeightScheme... Becke
Basis function cutoff            BFCut       ...    1.0000e-11
Integration weight cutoff        WCut        ...    1.0000e-14
Grids for H and He will be reduced by one unit

# of grid points (after initial pruning)     ...  33124 (   0.0 sec)
# of grid points (after weights+screening)   ...  30976 (   0.0 sec)
nearest neighbour list constructed           ...    0.0 sec
Grid point re-assignment to atoms done       ...    0.0 sec
Grid point division into batches done        ...    0.1 sec
Reduced shell lists constructed in    0.1 sec

Total number of grid points                  ...    30976
Total number of batches                      ...      492
Average number of points per batch           ...       62
Average number of grid points per atom       ...     2581
Average number of shells per batch           ...    65.38 (76.02%)
Average number of basis functions per batch  ...   139.36 (81.98%)
Average number of large shells per batch     ...    55.32 (84.62%)
Average number of large basis fcns per batch ...   116.42 (83.54%)
Maximum spatial batch extension              ...   3.63,  4.19, 22.17 au
Average spatial batch extension              ...   0.40,  0.42,  0.74 au

Time for grid setup =    0.149 sec

--------------
SCF ITERATIONS
--------------
ITER       Energy         Delta-E        Max-DP      RMS-DP      [F,P]     Damp
               ***  Starting incremental Fock matrix formation  ***
                      *** Initiating the SOSCF procedure ***
                      *** Re-Reading the Fockian *** 
                      *** Removing any level shift *** 
ITER      Energy       Delta-E        Grad      Rot      Max-DP    RMS-DP
  0  -1151.14967283 -1151.1496728275  0.001763  0.001763  0.016263  0.000530
               *** Restarting incremental Fock matrix formation ***
  1  -1151.14990207  -0.0002292412  0.001231  0.007205  0.002261  0.000143
  2  -1151.14984558   0.0000564877  0.002883  0.005613  0.003176  0.000123
  3  -1151.14993726  -0.0000916799  0.000441  0.002329  0.001437  0.000058
  4  -1151.14992908   0.0000081807  0.000974  0.001653  0.001586  0.000041
  5  -1151.14993977  -0.0000106895  0.000048  0.000197  0.001935  0.000038
  6  -1151.14993976   0.0000000116  0.000046  0.000109  0.000841  0.000017
  7  -1151.14993985  -0.0000000921  0.000009  0.000037  0.000285  0.000006
  8  -1151.14993984   0.0000000082  0.000015  0.000023  0.000171  0.000003
                  ***Gradient check signals convergence***
              ***Rediagonalizing the Fockian in SOSCF/NRSCF***

               *****************************************************
               *                     SUCCESS                       *
               *           SCF CONVERGED AFTER   9 CYCLES          *
               *****************************************************

Setting up the final grid:

General Integration Accuracy     IntAcc      ...  4.670
Radial Grid Type                 RadialGrid  ... Gauss-Chebyshev
Angular Grid (max. acc.)         AngularGrid ... Lebedev-302
Angular grid pruning method      GridPruning ... 3 (G Style)
Weight generation scheme         WeightScheme... Becke
Basis function cutoff            BFCut       ...    1.0000e-11
Integration weight cutoff        WCut        ...    1.0000e-14
Grids for H and He will be reduced by one unit

# of grid points (after initial pruning)     ...  64324 (   0.0 sec)
# of grid points (after weights+screening)   ...  59731 (   0.0 sec)
nearest neighbour list constructed           ...    0.0 sec
Grid point re-assignment to atoms done       ...    0.0 sec
Grid point division into batches done        ...    0.2 sec
Reduced shell lists constructed in    0.4 sec

Total number of grid points                  ...    59731
Total number of batches                      ...      939
Average number of points per batch           ...       63
Average number of grid points per atom       ...     4978
Average number of shells per batch           ...    63.96 (74.37%)
Average number of basis functions per batch  ...   136.32 (80.19%)
Average number of large shells per batch     ...    53.91 (84.29%)
Average number of large basis fcns per batch ...   113.25 (83.08%)
Maximum spatial batch extension              ...   3.78,  4.26, 23.20 au
Average spatial batch extension              ...   0.34,  0.35,  0.53 au

Final grid set up in    0.4 sec
Final integration                            ... done (   0.3 sec)
Change in XC energy                          ...    -0.000454658
Integrated number of electrons               ...    73.999944835
Previous integrated no of electrons          ...    73.999960066
Total Energy       :        -1151.15039451 Eh          -31324.39474 eV
  Last Energy change         ...   -1.0307e-08  Tolerance :   1.0000e-08
  Last MAX-Density change    ...    2.5269e-05  Tolerance :   1.0000e-07
             **** THE GBW FILE WAS UPDATED (1,3-dichlorobenzene.gbw) ****
             **** DENSITY FILE WAS UPDATED (1,3-dichlorobenzene.scfp) ****
             **** ENERGY FILE WAS UPDATED (1,3-dichlorobenzene.en.tmp) ****
             **** THE GBW FILE WAS UPDATED (1,3-dichlorobenzene.gbw) ****
             **** DENSITY FILE WAS UPDATED (1,3-dichlorobenzene.scfp) ****
Total SCF time: 0 days 0 hours 0 min 3 sec 


-------------------------------------------------------------------------------
                          DFT DISPERSION CORRECTION                            
                                                                               
                              DFTD3 V3.1  Rev 1                                
                          USING Becke-Johnson damping                          
-------------------------------------------------------------------------------
-------------------------   ----------------
Dispersion correction           -0.035119094
-------------------------   ----------------

------------------   -----------------
SRB correction            -0.039209618
------------------   -----------------

-------------------------   --------------------
FINAL SINGLE POINT ENERGY     -1151.224723221699
-------------------------   --------------------



           ************************************************************
           *        Program running with 4 parallel MPI-processes     *
           *              working on a common directory               *
           ************************************************************
------------------------------------------------------------------------------
                         ORCA SCF GRADIENT CALCULATION
------------------------------------------------------------------------------

Gradient of the Kohn-Sham DFT energy:
Kohn-Sham wavefunction type      ... RKS
Hartree-Fock exchange scaling    ...    0.000
Number of operators              ...    1
Number of atoms                  ...   12
Basis set dimensions             ...  170
Integral neglect threshold       ... 2.5e-11
Integral primitive cutoff        ... 2.5e-12

Nuclear repulsion gradient       ... done
One Electron Gradient            ... done
Pre-screening matrix             ... done
RI-J gradient                    ... done
Exchange-correlation gradient    ... done
Dispersion correction            ... done
SRB correction                   ... done

------------------
CARTESIAN GRADIENT
------------------

   1   C   :   -0.006500266    0.009032057    0.000000000
   2   C   :    0.001891858    0.001809042    0.000000001
   3   C   :   -0.002114942   -0.006408315   -0.000000002
   4   C   :   -0.000432999    0.002555991   -0.000000000
   5   C   :    0.010603726    0.003343280   -0.000000001
   6   C   :   -0.000857174   -0.002503199   -0.000000001
   7   Cl  :    0.003523749   -0.004605872    0.000000001
   8   H   :   -0.000146043   -0.001076239    0.000000000
   9   Cl  :   -0.005581768   -0.001582017    0.000000000
  10   H   :    0.000113860    0.000313118   -0.000000000
  11   H   :    0.000019859    0.000061437    0.000000000
  12   H   :   -0.000519859   -0.000939283    0.000000001

Difference to translation invariance:
           :   -0.0000000000    0.0000000000    0.0000000000

Norm of the cartesian gradient     ...    0.0195779896
RMS gradient                       ...    0.0032629983
MAX gradient                       ...    0.0106037256

-------
TIMINGS
-------

Total SCF gradient time            ...        1.909 sec

One electron gradient       ....       0.046 sec  (  2.4%)
Prescreening matrices       ....       0.058 sec  (  3.0%)
RI-J Coulomb gradient       ....       0.373 sec  ( 19.5%)
XC gradient                 ....       1.191 sec  ( 62.4%)
------------------------------------------------------------------------------
                         ORCA GEOMETRY RELAXATION STEP
------------------------------------------------------------------------------

Reading the OPT-File                    .... done
Getting information on internals        .... done
Copying old internal coords+grads       .... done
Making the new internal coordinates     .... (new redundants).... done
Validating the new internal coordinates .... (new redundants).... done
Calculating the B-matrix                .... done
Calculating the G,G- and P matrices     .... done
Transforming gradient to internals      .... done
Projecting the internal gradient        .... done
Number of atoms                         ....  12
Number of internal coordinates          ....  54
Current Energy                          .... -1151.224723222 Eh
Current gradient norm                   ....     0.019577990 Eh/bohr
Maximum allowed component of the step   ....  0.300
Current trust radius                    ....  0.300
Updating the Hessian (BFGS)             .... done
Forming the augmented Hessian           .... done
Diagonalizing the augmented Hessian     .... done
Last element of RFO vector              ....  0.998888398
Lowest eigenvalues of augmented Hessian:
 -0.000533133  0.025875030  0.025881539  0.025887456  0.025889526
Length of the computed step             ....  0.047190225
The final length of the internal step   ....  0.047190225
Converting the step to cartesian space:
 Initial RMS(Int)=    0.0064217762
Transforming coordinates:
 Iter   0:  RMS(Cart)=    0.0056573337 RMS(Int)=    2.5651076959
 Iter   1:  RMS(Cart)=    0.0000258461 RMS(Int)=    0.0000138478
 Iter   2:  RMS(Cart)=    0.0000001433 RMS(Int)=    0.0000000707
 Iter   3:  RMS(Cart)=    0.0000000009 RMS(Int)=    0.0000000004
done
Storing new coordinates                 .... done

                                .--------------------.
          ----------------------|Geometry convergence|-------------------------
          Item                value                   Tolerance       Converged
          ---------------------------------------------------------------------
          Energy change      -0.0011446346            0.0000010000      NO
          RMS gradient        0.0015484849            0.0000300000      NO
          MAX gradient        0.0057868340            0.0001000000      NO
          RMS step            0.0064217762            0.0006000000      NO
          MAX step            0.0249739031            0.0010000000      NO
          ........................................................
          Max(Bonds)      0.0132      Max(Angles)    0.55
          Max(Dihed)        0.00      Max(Improp)    0.00
          ---------------------------------------------------------------------

The optimization has not yet converged - more geometry cycles are needed


    ---------------------------------------------------------------------------
                         Redundant Internal Coordinates
                            (Angstroem and degrees)

        Definition                    Value    dE/dq     Step     New-Value
    ----------------------------------------------------------------------------
     1. B(C   1,C   0)                1.3889  0.002094 -0.0035    1.3854   
     2. B(C   2,C   1)                1.3886  0.001790 -0.0032    1.3854   
     3. B(C   3,C   2)                1.3886  0.001781 -0.0031    1.3855   
     4. B(C   4,C   3)                1.3890  0.002090 -0.0035    1.3854   
     5. B(C   5,C   4)                1.3886  0.001708 -0.0027    1.3859   
     6. B(C   5,C   0)                1.3887  0.001685 -0.0027    1.3859   
     7. B(Cl  6,C   0)                1.7366 -0.005783  0.0132    1.7498   
     8. B(H   7,C   1)                1.0805  0.000361 -0.0015    1.0790   
     9. B(Cl  8,C   4)                1.7367 -0.005787  0.0132    1.7499   
    10. B(H   9,C   5)                1.0796  0.000333 -0.0014    1.0782   
    11. B(H  10,C   2)                1.0805 -0.000065 -0.0005    1.0800   
    12. B(H  11,C   3)                1.0806  0.000355 -0.0015    1.0791   
    13. A(C   5,C   0,Cl  6)          119.47  0.001634   -0.38    119.09   
    14. A(C   1,C   0,C   5)          120.86 -0.001866    0.43    121.29   
    15. A(C   1,C   0,Cl  6)          119.67  0.000232   -0.05    119.62   
    16. A(C   0,C   1,C   2)          119.40  0.002073   -0.50    118.89   
    17. A(C   2,C   1,H   7)          120.27 -0.002081    0.55    120.82   
[...]
     11       0.000001  -0.149372  -0.224912  -0.000000  -0.069489   0.000000
     12       0.017113  -0.000000  -0.000000   0.167153   0.000000  -0.396321
     13      -0.202445  -0.000000  -0.000000  -0.078401  -0.000000  -0.066789
     14       0.000001   0.448811   0.278826   0.000000   0.054288  -0.000000
     15       0.156680  -0.000000   0.000000  -0.103352   0.000000  -0.320409
     16      -0.052225   0.000000   0.000000  -0.313046  -0.000000   0.105738
     17      -0.000002  -0.001222  -0.210877  -0.000000  -0.010541  -0.000000
     18      -0.176660  -0.000000   0.000000   0.034776  -0.000000   0.087926
     19       0.162324   0.000000   0.000000  -0.062165   0.000000  -0.079682
     20      -0.000000   0.032150  -0.005282   0.000000  -0.004670   0.000000
     21       0.356879   0.000000   0.000000  -0.107692  -0.000000   0.282359
     22      -0.015545  -0.000000   0.000000  -0.180112  -0.000000  -0.044820
     23       0.000001   0.522702  -0.424666  -0.000000   0.566477   0.000000
     24      -0.237961   0.000000   0.000000  -0.065155  -0.000000   0.117854
     25      -0.024738  -0.000000   0.000000  -0.029206  -0.000000   0.011446
     26      -0.000000  -0.032415  -0.005029   0.000000  -0.004653  -0.000000
     27       0.439570  -0.000000   0.000000  -0.104562   0.000000  -0.099708
     28      -0.145756   0.000000   0.000000  -0.315693  -0.000000   0.032763
     29      -0.000005  -0.001962  -0.527419  -0.000000   0.059256   0.000000
     30       0.035125  -0.000000  -0.000000   0.159440   0.000000  -0.407787
     31      -0.011732   0.000000  -0.000000   0.480571   0.000000   0.135590
     32      -0.000006  -0.002198  -0.031772  -0.000000   0.577002   0.000000
     33       0.295319   0.000000  -0.000000  -0.021419  -0.000000   0.253065
     34      -0.201183  -0.000000   0.000000  -0.208520  -0.000000  -0.132948
     35       0.000001  -0.530356  -0.417540  -0.000000   0.566250   0.000000
                 18         19         20         21         22         23    
      0      -0.000000  -0.000000  -0.000000  -0.056750   0.089597  -0.059713
      1       0.000000   0.000000  -0.000000   0.068604  -0.148188   0.115503
      2       0.029261  -0.030312  -0.020552  -0.000000  -0.000000  -0.000000
      3       0.000000   0.000000  -0.000000   0.385231   0.112969  -0.081284
      4      -0.000000   0.000000   0.000000   0.082725  -0.091500  -0.042549
      5       0.014433   0.115400  -0.046176   0.000000  -0.000000   0.000000
      6       0.000000   0.000000  -0.000000  -0.028403   0.076511   0.046207
      7      -0.000000   0.000000   0.000000  -0.085640   0.225027  -0.021026
      8       0.011514   0.000223   0.097766  -0.000000   0.000000  -0.000000
      9      -0.000000  -0.000000   0.000000  -0.259854  -0.148148  -0.033117
     10       0.000000  -0.000000   0.000000   0.296070   0.000715   0.082836
     11       0.013511  -0.115665  -0.045708   0.000000   0.000000   0.000000
     12       0.000000  -0.000000   0.000000   0.086497  -0.169211  -0.109377
     13      -0.000000  -0.000000  -0.000000   0.021056  -0.070004  -0.054052
     14       0.029279   0.029730  -0.020726  -0.000000  -0.000000   0.000000
     15      -0.000000  -0.000000  -0.000000  -0.124529   0.023717   0.083577
     16      -0.000000   0.000000  -0.000000  -0.375936   0.060069  -0.029330
     17      -0.144747   0.000829   0.035175   0.000000   0.000000   0.000000
     18       0.000000   0.000000  -0.000000   0.000515  -0.010592   0.006326
     19       0.000000  -0.000000   0.000000  -0.000304   0.017439  -0.010722
     20      -0.003937   0.002753  -0.000543  -0.000000   0.000000   0.000000
     21       0.000000   0.000000  -0.000000   0.400326   0.227635  -0.059175
     22       0.000000  -0.000000  -0.000000   0.083158  -0.581088  -0.199202
     23       0.010898  -0.696153   0.440370  -0.000000   0.000000   0.000000
     24      -0.000000   0.000000  -0.000000  -0.000554   0.019732   0.010580
     25      -0.000000   0.000000   0.000000   0.000065   0.008045   0.004489
     26      -0.003941  -0.002708  -0.000519  -0.000000   0.000000  -0.000000
     27       0.000000   0.000000  -0.000000  -0.129491   0.048207   0.739071
     28       0.000000  -0.000000  -0.000000  -0.389876   0.046954  -0.245958
     29       0.973755  -0.004416  -0.066700  -0.000000   0.000000   0.000000
     30      -0.000000  -0.000000  -0.000000  -0.024073   0.098895   0.460893
     31       0.000000   0.000000   0.000000  -0.072269   0.236801  -0.158582
     32      -0.167821  -0.001191  -0.771017   0.000000  -0.000000  -0.000000
     33      -0.000000   0.000000   0.000000  -0.271506  -0.522624   0.096144
     34       0.000000  -0.000000   0.000000   0.305416  -0.314429   0.210725
     35       0.017288   0.697736   0.437365   0.000000  -0.000000  -0.000000
                 24         25         26         27         28         29    
      0       0.163190  -0.001434   0.088126  -0.135095   0.204717   0.035289
      1      -0.155121   0.005067   0.114402  -0.105609   0.088104  -0.107260
      2       0.000000   0.000000   0.000000   0.000000   0.000000   0.000000
      3      -0.022666  -0.006412  -0.024843  -0.057881  -0.090607   0.060046
      4       0.069492   0.039689  -0.011974   0.252967   0.079463   0.099048
      5      -0.000000  -0.000000   0.000000  -0.000000  -0.000000  -0.000000
      6       0.014886   0.066309  -0.047494   0.177840  -0.032769  -0.157994
      7       0.044755  -0.021980   0.015722  -0.058739  -0.099372   0.052296
      8       0.000000   0.000000   0.000000  -0.000000   0.000000   0.000000
      9       0.059566  -0.028846  -0.012809  -0.197627   0.119892  -0.010962
     10       0.042023  -0.028036   0.024323  -0.168520   0.009740  -0.115456
     11      -0.000000  -0.000000  -0.000000  -0.000000  -0.000000  -0.000000
     12      -0.223249  -0.004045   0.002577  -0.045109  -0.111851   0.092291
     13      -0.027035  -0.003183  -0.144449   0.165063   0.192817   0.065213
     14       0.000000   0.000000   0.000000   0.000000   0.000000  -0.000000
     15      -0.036141  -0.034475  -0.011210   0.256480  -0.045547  -0.136273
     16      -0.109179   0.011445   0.003785  -0.084705  -0.138252   0.045052
     17      -0.000000  -0.000000  -0.000000  -0.000000  -0.000000  -0.000000
     18      -0.016692   0.000838  -0.000081  -0.001639  -0.006281  -0.001095
     19       0.015226  -0.000930  -0.002898  -0.002188  -0.000893   0.003850
     20      -0.000000   0.000000  -0.000000  -0.000000  -0.000000   0.000000
     21      -0.129272  -0.095802   0.043940   0.084598   0.041669   0.164270
     22       0.639679   0.484804  -0.369633  -0.453803  -0.629379  -0.324335
     23      -0.000000   0.000000   0.000000   0.000000   0.000000  -0.000000
     24       0.022402   0.001215   0.001656  -0.000027   0.004505  -0.003164
     25       0.002240   0.000247   0.002386   0.002727  -0.004464  -0.002441
     26      -0.000000  -0.000000  -0.000000   0.000000  -0.000000   0.000000
     27      -0.043175  -0.157386  -0.677158  -0.477824  -0.054175   0.464104
     28      -0.128157   0.052094   0.223966   0.158072  -0.162437  -0.153421
     29      -0.000000   0.000000   0.000000   0.000000  -0.000000   0.000000
     30       0.016158   0.653599   0.389103   0.129793  -0.039239   0.597583
     31       0.047719  -0.216153  -0.128637  -0.042863  -0.119018  -0.197521
     32       0.000000  -0.000000  -0.000000   0.000000  -0.000000   0.000000
     33       0.484710  -0.366522   0.256068   0.338616  -0.408132   0.325151
     34       0.435820  -0.332504   0.270767   0.314211  -0.479560   0.162275
     35       0.000000   0.000000   0.000000  -0.000000  -0.000000   0.000000
                 30         31         32         33         34         35    
      0       0.147619  -0.205414  -0.000361  -0.000108  -0.000762  -0.003475
      1       0.252070  -0.009054   0.000291  -0.002259  -0.002918   0.000511
      2      -0.000000  -0.000000   0.000000  -0.000000   0.000000   0.000000
      3      -0.001166   0.176840  -0.019954   0.055663   0.061278  -0.010048
      4      -0.347560  -0.137577  -0.006240   0.012139   0.011207  -0.002498
      5       0.000000  -0.000000  -0.000000   0.000000   0.000000  -0.000000
      6       0.063077  -0.358254   0.025058  -0.004812   0.010237  -0.001781
      7       0.169425   0.121617   0.075899  -0.002054   0.032006  -0.005462
      8       0.000000   0.000000   0.000000  -0.000000   0.000000   0.000000
      9      -0.214072   0.217090   0.012993   0.043663  -0.035866   0.006110
     10      -0.279524  -0.004251  -0.017702  -0.049523   0.037978  -0.007473
     11      -0.000000  -0.000000  -0.000000  -0.000000   0.000000  -0.000000
     12       0.037346  -0.158315   0.000491   0.001462  -0.000913   0.003087
     13       0.285693   0.139363   0.000054   0.002286  -0.002455  -0.001687
     14      -0.000000   0.000000   0.000000   0.000000   0.000000   0.000000
     15      -0.049460   0.316319  -0.000101  -0.001148   0.004503   0.027081
     16      -0.131354  -0.107138  -0.000277  -0.000353   0.013876   0.081917
     17      -0.000000   0.000000  -0.000000   0.000000  -0.000000  -0.000000
     18      -0.002152   0.000167   0.000014  -0.000068  -0.000044   0.000109
     19      -0.001784   0.002824   0.000010   0.000090   0.000088  -0.000106
     20      -0.000000  -0.000000  -0.000000  -0.000000  -0.000000  -0.000000
     21      -0.171948   0.121255   0.250664  -0.638317  -0.686834   0.112332
     22       0.450705   0.221658   0.053474  -0.129372  -0.136499   0.022740
     23      -0.000000   0.000000   0.000000  -0.000000  -0.000000   0.000000
     24       0.000730  -0.001535  -0.000006  -0.000123   0.000068  -0.000149
     25      -0.002621  -0.002463   0.000017  -0.000039   0.000037  -0.000021
     26      -0.000000   0.000000  -0.000000   0.000000  -0.000000  -0.000000
     27      -0.041423  -0.399494   0.000731   0.003281  -0.052730  -0.308244
     28      -0.147728   0.129235   0.002190   0.007435  -0.159697  -0.932326
     29      -0.000000   0.000000  -0.000000  -0.000000   0.000000   0.000000
     30       0.054866   0.487411  -0.290226   0.016523  -0.113015   0.018671
     31       0.195319  -0.157577  -0.877907   0.034309  -0.343127   0.056565
     32       0.000000  -0.000000  -0.000000  -0.000000  -0.000000  -0.000000
     33       0.406974  -0.021271  -0.177446  -0.503433   0.393260  -0.071271
     34       0.267335  -0.241283   0.201387   0.559650  -0.433837   0.079294
     35       0.000000   0.000000   0.000000   0.000000  -0.000000   0.000000


-----------
IR SPECTRUM
-----------

 Mode    freq (cm**-1)   T**2         TX         TY         TZ
-------------------------------------------------------------------
   6:       160.24    0.176818  (  0.000000   0.000002  -0.420497)
   7:       195.51    0.000011  ( -0.000004   0.000002   0.003301)
   8:       195.92    0.332324  (  0.180461   0.547501  -0.000000)
   9:       367.58    0.652104  (  0.767346  -0.251564   0.000000)
  10:       393.88    4.087708  ( -0.640895  -1.917540  -0.000000)
  11:       426.90    4.175587  (  0.000003  -0.000013   2.043425)
  12:       428.44    7.108317  (  2.531440  -0.836736  -0.000011)
  13:       527.55    0.000925  (  0.000012   0.000000  -0.030409)
  14:       609.33    8.504439  (  0.000003   0.000018  -2.916237)
  15:       674.37    2.197415  (  0.473938   1.404563  -0.000002)
  16:       752.21   51.647631  ( -0.000002   0.000006   7.186629)
  17:       779.24   97.147036  ( -9.357580   3.095599   0.000001)
  18:       835.81    9.636701  (  0.000001   0.000002   3.104304)
  19:       855.01    0.000051  ( -0.000004   0.000004  -0.007134)
  20:       903.45    0.019136  (  0.000001   0.000001   0.138333)
  21:      1014.95    2.945637  (  0.536079   1.630416  -0.000000)
  22:      1089.57   28.142994  ( -1.813441  -4.985421   0.000001)
  23:      1091.16   26.232408  ( -4.807629   1.766101  -0.000000)
  24:      1121.33   16.372609  ( -1.259706  -3.845224   0.000000)
  25:      1187.36    0.733486  (  0.813927  -0.266476   0.000000)
  26:      1293.04    2.155600  ( -1.393274   0.463021   0.000000)
  27:      1342.72    0.699407  ( -0.793207   0.265007   0.000000)
  28:      1431.97   10.061964  ( -0.995044  -3.011951   0.000000)
  29:      1486.11   75.398541  (  8.245957  -2.720795   0.000000)
  30:      1598.61   31.344859  (  1.910655   5.262533  -0.000000)
  31:      1599.14   88.350268  ( -8.894709   3.038818   0.000000)
  32:      3142.34    8.192757  (  0.917027   2.711424   0.000000)
  33:      3162.36    3.389389  (  1.671801  -0.771020  -0.000000)
  34:      3167.28    5.092211  (  0.849368   2.090642   0.000000)
  35:      3174.48    0.082992  ( -0.097848  -0.270958   0.000000)

The first frequency considered to be a vibration is 6
The total number of vibrations considered is 30


--------------------------
THERMOCHEMISTRY AT 298.15K
--------------------------

Temperature         ... 298.15 K
Pressure            ... 1.00 atm
Total Mass          ... 147.00 AMU

Throughout the following assumptions are being made:
  (1) The electronic state is orbitally nondegenerate
  (2) There are no thermally accessible electronically excited states
  (3) Hindered rotations indicated by low frequency modes are not
      treated as such but are treated as vibrations and this may
      cause some error
  (4) All equations used are the standard statistical mechanics
      equations for an ideal gas
  (5) All vibrations are strictly harmonic

freq.     160.24  E(vib)   ...       0.39 
freq.     195.51  E(vib)   ...       0.36 
freq.     195.92  E(vib)   ...       0.36 
freq.     367.58  E(vib)   ...       0.21 
freq.     393.88  E(vib)   ...       0.20 
freq.     426.90  E(vib)   ...       0.18 
freq.     428.44  E(vib)   ...       0.18 
freq.     527.55  E(vib)   ...       0.13 
freq.     609.33  E(vib)   ...       0.10 
freq.     674.37  E(vib)   ...       0.08 
freq.     752.21  E(vib)   ...       0.06 
freq.     779.24  E(vib)   ...       0.05 
freq.     835.81  E(vib)   ...       0.04 
freq.     855.01  E(vib)   ...       0.04 
freq.     903.45  E(vib)   ...       0.03 
freq.    1014.95  E(vib)   ...       0.02 
freq.    1089.57  E(vib)   ...       0.02 
freq.    1091.16  E(vib)   ...       0.02 
freq.    1121.33  E(vib)   ...       0.01 
freq.    1187.36  E(vib)   ...       0.01 
freq.    1293.04  E(vib)   ...       0.01 
freq.    1342.72  E(vib)   ...       0.01 
freq.    1431.97  E(vib)   ...       0.00 
freq.    1486.11  E(vib)   ...       0.00 
freq.    1598.61  E(vib)   ...       0.00 
freq.    1599.14  E(vib)   ...       0.00 
freq.    3142.34  E(vib)   ...       0.00 
freq.    3162.36  E(vib)   ...       0.00 
freq.    3167.28  E(vib)   ...       0.00 
freq.    3174.48  E(vib)   ...       0.00 

------------
INNER ENERGY
------------

The inner energy is: U= E(el) + E(ZPE) + E(vib) + E(rot) + E(trans)
    E(el)   - is the total energy from the electronic structure calculation
              = E(kin-el) + E(nuc-el) + E(el-el) + E(nuc-nuc)
    E(ZPE)  - the the zero temperature vibrational energy from the frequency calculation
    E(vib)  - the the finite temperature correction to E(ZPE) due to population
              of excited vibrational states
    E(rot)  - is the rotational thermal energy
    E(trans)- is the translational thermal energy

Summary of contributions to the inner energy U:
Electronic energy                ...  -1151.22506627 Eh
Zero point energy                ...      0.07975370 Eh      50.05 kcal/mol
Thermal vibrational correction   ...      0.00399829 Eh       2.51 kcal/mol
Thermal rotational correction    ...      0.00141627 Eh       0.89 kcal/mol
Thermal translational correction ...      0.00141627 Eh       0.89 kcal/mol
-----------------------------------------------------------------------
Total thermal energy                  -1151.13848173 Eh


Summary of corrections to the electronic energy:
(perhaps to be used in another calculation)
Total thermal correction                  0.00683084 Eh       4.29 kcal/mol
Non-thermal (ZPE) correction              0.07975370 Eh      50.05 kcal/mol
-----------------------------------------------------------------------
Total correction                          0.08658454 Eh      54.33 kcal/mol


--------
ENTHALPY
--------

The enthalpy is H = U + kB*T
                kB is Boltzmann's constant
Total free energy                 ...  -1151.13848173 Eh 
Thermal Enthalpy correction       ...      0.00094421 Eh       0.59 kcal/mol
-----------------------------------------------------------------------
Total Enthalpy                    ...  -1151.13753752 Eh


Note: Rotational entropy computed according to Herzberg 
Infrared and Raman Spectra, Chapter V,1, Van Nostrand Reinhold, 1945 
Point Group:  Cs, Symmetry Number:   1  
Rotational constants in cm-1:     0.094165     0.028251     0.021732 

Vibrational entropy computed according to the QRRHO of S. Grimme
Chem.Eur.J. 2012 18 9955


-------
ENTROPY
-------

The entropy contributions are T*S = T*(S(el)+S(vib)+S(rot)+S(trans))
     S(el)   - electronic entropy
     S(vib)  - vibrational entropy
     S(rot)  - rotational entropy
     S(trans)- translational entropy
The entropies will be listed as mutliplied by the temperature to get
units of energy

Electronic entropy                ...      0.00000000 Eh      0.00 kcal/mol
Vibrational entropy               ...      0.00638082 Eh      4.00 kcal/mol
Rotational entropy                ...      0.01411761 Eh      8.86 kcal/mol
Translational entropy             ...      0.01941692 Eh     12.18 kcal/mol
-----------------------------------------------------------------------
Final entropy term                ...      0.03991535 Eh     25.05 kcal/mol

In case the symmetry of your molecule has not been determined correctly
or in case you have a reason to use a different symmetry number we print 
out the resulting rotational entropy values for sn=1,12 :
 --------------------------------------------------------
|  sn= 1 | S(rot)=       0.01411761 Eh      8.86 kcal/mol|
|  sn= 2 | S(rot)=       0.01346316 Eh      8.45 kcal/mol|
|  sn= 3 | S(rot)=       0.01308033 Eh      8.21 kcal/mol|
|  sn= 4 | S(rot)=       0.01280870 Eh      8.04 kcal/mol|
|  sn= 5 | S(rot)=       0.01259801 Eh      7.91 kcal/mol|
|  sn= 6 | S(rot)=       0.01242587 Eh      7.80 kcal/mol|
|  sn= 7 | S(rot)=       0.01228032 Eh      7.71 kcal/mol|
|  sn= 8 | S(rot)=       0.01215425 Eh      7.63 kcal/mol|
|  sn= 9 | S(rot)=       0.01204304 Eh      7.56 kcal/mol|
|  sn=10 | S(rot)=       0.01194356 Eh      7.49 kcal/mol|
|  sn=11 | S(rot)=       0.01185357 Eh      7.44 kcal/mol|
|  sn=12 | S(rot)=       0.01177141 Eh      7.39 kcal/mol|
 --------------------------------------------------------


-------------------
GIBBS FREE ENERGY
-------------------

The Gibbs free energy is G = H - T*S

Total enthalpy                    ...  -1151.13753752 Eh 
Total entropy correction          ...     -0.03991535 Eh    -25.05 kcal/mol
-----------------------------------------------------------------------
Final Gibbs free energy         ...  -1151.17745287 Eh

For completeness - the Gibbs free energy minus the electronic energy
G-E(el)                           ...      0.04761339 Eh     29.88 kcal/mol


Timings for individual modules:

Sum of individual times         ...      102.708 sec (=   1.712 min)
GTO integral calculation        ...        2.693 sec (=   0.045 min)   2.6 %
SCF iterations                  ...       24.369 sec (=   0.406 min)  23.7 %
SCF Gradient evaluation         ...       11.847 sec (=   0.197 min)  11.5 %
Geometry relaxation             ...        0.421 sec (=   0.007 min)   0.4 %
Analytical frequency calculation...       63.378 sec (=   1.056 min)  61.7 %
                             ****ORCA TERMINATED NORMALLY****
TOTAL RUN TIME: 0 days 0 hours 1 minutes 44 seconds 64 msec
