
                                 *****************
                                 * O   R   C   A *
                                 *****************

           --- An Ab Initio, DFT and Semiempirical electronic structure package ---

                  #######################################################
                  #                        -***-                        #
                  #          Department of theory and spectroscopy      #
                  #               Directorship: Frank Neese             #
                  #        Max Planck Institute fuer Kohlenforschung    #
                  #                Kaiser Wilhelm Platz 1               #
                  #                 D-45470 Muelheim/Ruhr               #
                  #                      Germany                        #
                  #                                                     #
                  #                  All rights reserved                #
                  #                        -***-                        #
                  #######################################################


                         Program Version 4.2.1 -  RELEASE  -


 With contributions from (in alphabetic order):
   Daniel Aravena         : Magnetic Suceptibility
   Michael Atanasov       : Ab Initio Ligand Field Theory (pilot matlab implementation)
   Alexander A. Auer      : GIAO ZORA, VPT2
   Ute Becker             : Parallelization
   Giovanni Bistoni       : ED, misc. LED, open-shell LED, HFLD
   Martin Brehm           : Molecular dynamics
   Dmytro Bykov           : SCF Hessian
   Vijay G. Chilkuri      : MRCI spin determinant printing, contributions to CSF-ICE
   Dipayan Datta          : RHF DLPNO-CCSD density
   Achintya Kumar Dutta   : EOM-CC, STEOM-CC
   Dmitry Ganyushin       : Spin-Orbit,Spin-Spin,Magnetic field MRCI
   Miquel Garcia          : C-PCM Hessian, Gaussian charge scheme
   Yang Guo               : DLPNO-NEVPT2, CIM, IAO-localization
   Andreas Hansen         : Spin unrestricted coupled pair/coupled cluster methods
   Benjamin Helmich-Paris : CASSCF linear response (MC-RPA)
   Lee Huntington         : MR-EOM, pCC
   Robert Izsak           : Overlap fitted RIJCOSX, COSX-SCS-MP3, EOM
   Christian Kollmar      : KDIIS, OOCD, Brueckner-CCSD(T), CCSD density
   Simone Kossmann        : Meta GGA functionals, TD-DFT gradient, OOMP2, MP2 Hessian
   Martin Krupicka        : AUTO-CI
   Lucas Lang             : DCDCAS
   Dagmar Lenk            : GEPOL surface, SMD
   Dimitrios Liakos       : Extrapolation schemes; Compound Job, initial MDCI parallelization
   Dimitrios Manganas     : Further ROCIS development; embedding schemes
   Dimitrios Pantazis     : SARC Basis sets
   Taras Petrenko         : DFT Hessian,TD-DFT gradient, ASA, ECA, R-Raman, ABS, FL, XAS/XES, NRVS
   Peter Pinski           : DLPNO-MP2, DLPNO-MP2 Gradient
   Christoph Reimann      : Effective Core Potentials
   Marius Retegan         : Local ZFS, SOC
   Christoph Riplinger    : Optimizer, TS searches, QM/MM, DLPNO-CCSD(T), (RO)-DLPNO pert. Triples
   Tobias Risthaus        : Range-separated hybrids, TD-DFT gradient, RPA, STAB
   Michael Roemelt        : Original ROCIS implementation
   Masaaki Saitow         : Open-shell DLPNO-CCSD energy and density
   Barbara Sandhoefer     : DKH picture change effects
   Avijit Sen             : IP-ROCIS
   Kantharuban Sivalingam : CASSCF convergence, NEVPT2, FIC-MRCI
   Bernardo de Souza      : ESD, SOC TD-DFT
   Georgi Stoychev        : AutoAux, RI-MP2 NMR
   Willem Van den Heuvel  : Paramagnetic NMR
   Boris Wezisla          : Elementary symmetry handling
   Frank Wennmohs         : Technical directorship


 We gratefully acknowledge several colleagues who have allowed us to
 interface, adapt or use parts of their codes:
   Stefan Grimme, W. Hujo, H. Kruse,             : VdW corrections, initial TS optimization,
                  C. Bannwarth                     DFT functionals, gCP, sTDA/sTD-DF
   Ed Valeev, F. Pavosevic, A. Kumar             : LibInt (2-el integral package), F12 methods
   Garnet Chan, S. Sharma, J. Yang, R. Olivares  : DMRG
   Ulf Ekstrom                                   : XCFun DFT Library
   Mihaly Kallay                                 : mrcc  (arbitrary order and MRCC methods)
   Andreas Klamt, Michael Diedenhofen            : otool_cosmo (COSMO solvation model)
   Jiri Pittner, Ondrej Demel                    : Mk-CCSD
   Frank Weinhold                                : gennbo (NPA and NBO analysis)
   Christopher J. Cramer and Donald G. Truhlar   : smd solvation model
   Lars Goerigk                                  : TD-DFT with DH, B97 family of functionals
   V. Asgeirsson, H. Jonsson                     : NEB implementation
   FAccTs GmbH                                   : IRC, NEB, NEB-TS, Multilevel, MM, QM/MM, CI optimization
   S Lehtola, MJT Oliveira, MAL Marques          : LibXC Library


 Your calculation uses the libint2 library for the computation of 2-el integrals
 For citations please refer to: http://libint.valeyev.net

 Your ORCA version has been built with support for libXC version: 4.2.3
 For citations please refer to: https://tddft.org/programs/libxc/

 This ORCA versions uses:
   CBLAS   interface :  Fast vector & matrix operations
   LAPACKE interface :  Fast linear algebra routines
   SCALAPACK package :  Parallel linear algebra routines


Your calculation utilizes the geometrical counterpoise correction gCP
Please cite in your paper:
H.Kruse, S. Grimme J.Chem.Phys., 136, (2012), 154101 
   

Your calculation utilizes the atom-pairwise dispersion correction
based on tight binding partial charges (D4)
Cite in your paper:
E.Caldeweyher, C.Bannwarth, S.Grimme, J.Chem.Phys., (2017), 147, 034112.
E.Caldeweyher, S.Ehlert, A.Hansen, H.Neugebauer, S.Grimme, J.Chem.Phys., (2018), in progress.
   

----- Orbital basis set information -----
Your calculation utilizes the basis: def2-SVP
   F. Weigend and R. Ahlrichs, Phys. Chem. Chem. Phys. 7, 3297 (2005).

----- AuxJ basis set information -----
Your calculation utilizes the auxiliary basis: def2/J
   F. Weigend, Phys. Chem. Chem. Phys. 8, 1057 (2006).

================================================================================
                                        WARNINGS
                       Please study these warnings very carefully!
================================================================================


WARNING: Geometry Optimization
  ===> : Switching off AutoStart
         For restart on a previous wavefunction, please use MOREAD

INFO   : the flag for use of LIBINT has been found!

================================================================================
                                       INPUT FILE
================================================================================
NAME = 1-bromo-2-chloroethene.inp
|  1> ! revPBE D4 gCP(DFT/SVP) def2-SVP Opt Freq TightOpt TightSCF Grid4 FinalGrid5 LargePrint
|  2> 
|  3> %pal
|  4>  nprocs 12
|  5> end
|  6> 
|  7> *xyz 0 1
|  8> C       -0.064500000      0.183137000      0.064500000
|  9> Br       1.266351000     -0.978697000     -1.266351000
| 10> Cl      -1.107529000     -0.817195000      1.107529000
| 11> H       -0.695256000      0.806377000     -0.600933000
| 12> H        0.600933000      0.806377000      0.695256000
| 13> *
| 14> 
| 15>                          ****END OF INPUT****
================================================================================

                       *****************************
                       * Geometry Optimization Run *
                       *****************************

Geometry optimization settings:
Update method            Update   .... BFGS
Choice of coordinates    CoordSys .... Z-matrix Internals
Initial Hessian          InHess   .... Almoef's Model

Convergence Tolerances:
Energy Change            TolE     ....  1.0000e-06 Eh
Max. Gradient            TolMAXG  ....  1.0000e-04 Eh/bohr
RMS Gradient             TolRMSG  ....  3.0000e-05 Eh/bohr
Max. Displacement        TolMAXD  ....  1.0000e-03 bohr
RMS Displacement         TolRMSD  ....  6.0000e-04 bohr
Strict Convergence                ....  False
------------------------------------------------------------------------------
                        ORCA OPTIMIZATION COORDINATE SETUP
------------------------------------------------------------------------------

The optimization will be done in new redundant internal coordinates
Making redundant internal coordinates   ...  (new redundants) done
Evaluating the initial hessian          ...  (Almloef) done
Evaluating the coordinates              ...  done
Calculating the B-matrix                .... done
Calculating the G-matrix                .... done
Diagonalizing the G-matrix              .... done
The first mode is                       ....    1
The number of degrees of freedom        ....    9

    -----------------------------------------------------------------
                    Redundant Internal Coordinates


    -----------------------------------------------------------------
         Definition                    Initial Value    Approx d2E/dq
    -----------------------------------------------------------------
      1. B(Br  1,C   0)                  2.2118         0.102579   
      2. B(Cl  2,C   0)                  1.7823         0.331814   
      3. B(H   3,C   0)                  1.1086         0.336267   
      4. B(H   4,C   0)                  1.1086         0.336267   
      5. A(Br  1,C   0,H   3)          106.0500         0.276626   
      6. A(Cl  2,C   0,H   3)          109.5015         0.327578   
      7. A(Br  1,C   0,H   4)          106.0500         0.276626   
      8. A(Cl  2,C   0,H   4)          109.5015         0.327578   
      9. A(H   3,C   0,H   4)          111.5282         0.284679   
     10. A(Br  1,C   0,Cl  2)          114.1692         0.317759   
    -----------------------------------------------------------------

Number of atoms                         .... 5
Number of degrees of freedom            .... 10

         *************************************************************
         *                GEOMETRY OPTIMIZATION CYCLE   1            *
         *************************************************************
---------------------------------
CARTESIAN COORDINATES (ANGSTROEM)
---------------------------------
  C     -0.064500    0.183137    0.064500
  Br     1.266351   -0.978697   -1.266351
  Cl    -1.107529   -0.817195    1.107529
  H     -0.695256    0.806377   -0.600933
  H      0.600933    0.806377    0.695256

----------------------------
CARTESIAN COORDINATES (A.U.)
----------------------------
  NO LB      ZA    FRAG     MASS         X           Y           Z
   0 C     6.0000    0    12.011   -0.121887    0.346079    0.121887
   1 Br   35.0000    0    79.900    2.393057   -1.849469   -2.393057
   2 Cl   17.0000    0    35.453   -2.092926   -1.544275    2.092926
   3 H     1.0000    0     1.008   -1.313843    1.523832   -1.135599
   4 H     1.0000    0     1.008    1.135599    1.523832    1.313843

--------------------------------
INTERNAL COORDINATES (ANGSTROEM)
--------------------------------
 C      0   0   0     0.000000000000     0.00000000     0.00000000
 Br     1   0   0     2.211828883969     0.00000000     0.00000000
 Cl     1   2   0     1.782269087401   114.16917969     0.00000000
 H      1   2   3     1.108639845317   106.04996237   239.34584501
 H      1   2   3     1.108639845317   106.04996237   120.65415499

---------------------------
INTERNAL COORDINATES (A.U.)
---------------------------
 C      0   0   0     0.000000000000     0.00000000     0.00000000
 Br     1   0   0     4.179750845797     0.00000000     0.00000000
 Cl     1   2   0     3.368000472142   114.16917969     0.00000000
 H      1   2   3     2.095025688802   106.04996237   239.34584501
 H      1   2   3     2.095025688802   106.04996237   120.65415499

---------------------
BASIS SET INFORMATION
---------------------
There are 4 groups of distinct atoms

 Group   1 Type C   : 7s4p1d contracted to 3s2p1d pattern {511/31/1}
 Group   2 Type Br  : 14s10p6d contracted to 5s4p3d pattern {63311/5311/411}
 Group   3 Type Cl  : 10s7p1d contracted to 4s3p1d pattern {5311/511/1}
 Group   4 Type H   : 4s1p contracted to 2s1p pattern {31/1}

Atom   0C    basis set group =>   1
Atom   1Br   basis set group =>   2
Atom   2Cl   basis set group =>   3
Atom   3H    basis set group =>   4
Atom   4H    basis set group =>   4

-------------------------
BASIS SET IN INPUT FORMAT
-------------------------

 # Basis set for element : H 
 NewGTO H 
 S 3 
   1      13.0107010000      0.0334854848
   2       1.9622572000      0.2347218709
   3       0.4445379600      0.8137702853
 S 1 
   1       0.1219496200      1.0000000000
 P 1 
   1       0.8000000000      1.0000000000
  end;

 # Basis set for element : C 
 NewGTO C 
 S 5 
   1    1238.4016938000      0.0055173650
   2     186.2900499200      0.0410888285
   3      42.2511763460      0.1822538213
   4      11.6765579320      0.4682845944
   5       3.5930506482      0.4457581734
 S 1 
   1       0.4024514736      1.0000000000
 S 1 
   1       0.1309018267      1.0000000000
 P 3 
   1       9.4680970621      0.0568883320
   2       2.0103545142      0.3129405934
   3       0.5477100471      0.7606501651
 P 1 
   1       0.1526861379      1.0000000000
 D 1 
   1       0.8000000000      1.0000000000
  end;

 # Basis set for element : Cl
 NewGTO Cl
 S 5 
   1   10449.8275660000      0.0054265952
   2    1571.7365221000      0.0406263782
   3     357.1206552300      0.1835974786
   4     100.2518593500      0.4743894876
   5      30.8127275540      0.4373518111
 S 3 
   1      51.9237894340     -0.0927541549
   2       5.7045760975      0.5638082555
   3       2.3508376809      0.5036704463
 S 1 
   1       0.4460512467      1.0000000000
 S 1 
   1       0.1684885619      1.0000000000
 P 5 
   1     307.6679056900     -0.0088797025
   2      72.1020155150     -0.0642840717
   3      22.5326802620     -0.2428873974
   4       7.8991765444     -0.4834083637
   5       2.8767268321     -0.3895256388
 P 1 
   1       0.7745936396      1.0000000000
 P 1 
   1       0.2103769970      1.0000000000
 D 1 
   1       0.6500000000      1.0000000000
  end;

 # Basis set for element : Br
 NewGTO Br
 S 6 
   1  113286.3877600000      0.0017059196
   2   17009.6263030000      0.0130788223
   3    3870.1842567000      0.0649986793
   4    1093.0357227000      0.2275020107
   5     356.3972179700      0.4660976331
   6     123.1253964300      0.3680375540
 S 3 
   1     236.7408400700     -0.1107326939
   2      28.4686610700      0.6388292533
   3      11.8834437220      0.4362572006
 S 3 
   1      21.2696333120     -0.2185898777
   2       3.6129226841      0.7126890487
   3       1.6626648969      0.4120671387
 S 1 
   1       0.3482379323      1.0000000000
 S 1 
   1       0.1301903139      1.0000000000
 P 5 
   1    1560.2801881000      0.0082285346
   2     368.4785920500      0.0625340018
   3     117.2297884900      0.2501185945
   4      42.6489092480      0.5082417418
   5      16.0872250960      0.3453094664
 P 3 
   1       8.6352810058      0.3243461531
   2       3.5613665502      0.5445484413
   3       1.5292626609      0.2304160339
 P 1 
   1       0.5306429485      1.0000000000
 P 1 
   1       0.1570275896      1.0000000000
 D 4 
   1     104.8551864200      0.0266922510
   2      30.2811436880      0.1585672386
   3      10.6513942670      0.4298361819
   4       3.8699456233      0.5779699329
 D 1 
   1       1.3240876762      1.0000000000
 D 1 
   1       0.3890000000      1.0000000000
  end;

---------------------------------
AUXILIARY/J BASIS SET INFORMATION
---------------------------------
There are 4 groups of distinct atoms

 Group   1 Type C   : 12s5p4d2f1g contracted to 6s4p3d1f1g pattern {711111/2111/211/2/1}
 Group   2 Type Br  : 19s5p5d3f1g contracted to 8s4p3d2f1g pattern {121111111/2111/311/21/1}
 Group   3 Type Cl  : 14s5p5d2f1g contracted to 8s4p3d1f1g pattern {71111111/2111/311/2/1}
 Group   4 Type H   : 5s2p1d contracted to 3s1p1d pattern {311/2/1}

Atom   0C    basis set group =>   1
Atom   1Br   basis set group =>   2
Atom   2Cl   basis set group =>   3
Atom   3H    basis set group =>   4
Atom   4H    basis set group =>   4

-------------------------------------
AUXILIARY/J BASIS SET IN INPUT FORMAT
-------------------------------------

 # Auxiliary/J basis set for element : H 
 NewAuxJGTO H 
 S 3 
   1      15.6752927000      0.1007184237
   2       3.6063578000      0.3404257499
   3       1.2080016000      0.6491996172
 S 1 
   1       0.4726794000      1.0000000000
 S 1 
   1       0.2018100000      1.0000000000
 P 2 
   1       2.0281365000      0.5596620919
   2       0.5358730000      0.5596620919
 D 1 
   1       2.2165124000      1.0000000000
  end;

 # Auxiliary/J basis set for element : C 
 NewAuxJGTO C 
 S 7 
   1    1861.0916331000      0.0134602335
   2     642.9939764000      0.0299160374
   3     235.1105725000      0.1008649584
   4      90.7028894000      0.2370970548
   5      36.7794552000      0.3924037254
   6      15.6046273000      0.3195862154
   7       6.8907294000      0.0530104441
 S 1 
   1       3.1478850000     -1.0000000000
 S 1 
   1       1.4777287000      1.0000000000
 S 1 
   1       0.7076466000      1.0000000000
 S 1 
   1       0.3430122000      1.0000000000
 S 1 
   1       0.1669453000      1.0000000000
 P 2 
   1      13.5472892000     -0.6769313712
   2       5.4669419000     -0.3779500978
 P 1 
   1       2.1751721000      1.0000000000
 P 1 
   1       0.8582194000      1.0000000000
 P 1 
   1       0.3376720000      1.0000000000
 D 2 
   1       5.9287253000     -0.3533329857
   2       1.9809209000     -0.7456525731
 D 1 
   1       0.8055417000     -1.0000000000
 D 1 
   1       0.3531244000     -1.0000000000
 F 2 
   1       1.6755626000      0.6311076882
   2       0.5997536000      0.4968166032
 G 1 
   1       1.0024600000     -1.0000000000
  end;

 # Auxiliary/J basis set for element : Cl
 NewAuxJGTO Cl
 S 7 
   1    8044.2766240000      0.0309054740
   2    2924.5123954000      0.0600734063
   3    1110.8168739000      0.1862207460
   4     439.9050761000      0.3715503251
   5     181.1987287000      0.4220785347
   6      77.4148302000      0.0994388367
   7      34.1977273000     -0.0596902748
 S 1 
   1      15.5648397000      1.0000000000
 S 1 
   1       7.2707873000      1.0000000000
 S 1 
   1       3.4711900000     -1.0000000000
 S 1 
   1       1.6860808000     -1.0000000000
 S 1 
   1       0.8293125000      1.0000000000
 S 1 
   1       0.4110124000      1.0000000000
 S 1 
   1       0.2042190000      1.0000000000
 P 2 
   1      12.2564993000      1.4910316311
   2       4.8922575000     -1.4908224419
 P 1 
   1       1.9265460000      1.0000000000
 P 1 
   1       0.7525989000     -1.0000000000
 P 1 
   1       0.2932189000     -1.0000000000
 D 3 
   1      28.4370504000     -1.0829567244
   2       7.2772298000      0.5502349187
   3       2.3111621000     -0.5567798939
 D 1 
   1       0.8580943000     -1.0000000000
 D 1 
   1       0.3376227000     -1.0000000000
 F 2 
   1       1.2035685000      0.5557691438
   2       0.4700000000      0.5557691438
 G 1 
   1       0.7521100000     -1.0000000000
  end;

 # Auxiliary/J basis set for element : Br
 NewAuxJGTO Br
 S 12 
   1  181929.6907400000      0.0098592173
   2   21782.5062350000      0.0318437281
   3    7843.2391724000      0.1122124522
   4    2608.0271777000      0.2508709127
   5    1564.9696465000      0.1250956596
   6     920.5703545000      0.2502284057
   7     552.3963380000      0.1652736279
   8     191.1405907000     -0.0323762454
   9     108.0484426000      0.0526271009
  10      64.8354183000      0.2625580338
  11      38.1384803000      0.1582655532
  12      22.4343995000     -0.0934263273
 S 1 
   1      13.1967052000     -1.0000000000
 S 1 
   1       7.9187991000      1.0000000000
 S 1 
   1       4.6581170000      1.0000000000
 S 1 
   1       2.6331523000      1.0000000000
 S 1 
   1       0.5577180000      1.0000000000
 S 1 
   1       0.3152683000      1.0000000000
 S 1 
   1       0.1854519000      1.0000000000
 P 2 
   1       8.4481854000      0.4423986813
   2       3.0812881000     -1.2802496903
 P 1 
   1       1.1536778000      1.0000000000
 P 1 
   1       0.4389478000     -1.0000000000
 P 1 
   1       0.1679158000      1.0000000000
 D 3 
   1       8.7933629000     -1.3793406808
   2       3.5598266000      1.4275368284
   3       1.4866514000     -1.1228999981
 D 1 
   1       0.6328484000     -1.0000000000
 D 1 
   1       0.2711415000     -1.0000000000
 F 2 
   1       3.4681858000     -0.2539003863
   2       0.8708007000      1.0653068211
 F 1 
   1       0.2186427000      1.0000000000
 G 1 
   1       1.1078575000     -1.0000000000
  end;



           ************************************************************
           *        Program running with 12 parallel MPI-processes    *
           *              working on a common directory               *
           ************************************************************
------------------------------------------------------------------------------
                           ORCA GTO INTEGRAL CALCULATION
                           -- RI-GTO INTEGRALS CHOSEN --
------------------------------------------------------------------------------

                         BASIS SET STATISTICS AND STARTUP INFO

Gaussian basis set:
 # of primitive gaussian shells          ...   70
 # of primitive gaussian functions       ...  148
 # of contracted shells                  ...   32
 # of contracted basis functions         ...   74
 Highest angular momentum                ...    2
 Maximum contraction depth               ...    6
Auxiliary gaussian basis set:
 # of primitive gaussian shells          ...  100
 # of primitive gaussian functions       ...  268
 # of contracted shells                  ...   60
 # of contracted aux-basis functions     ...  180
 Highest angular momentum                ...    4
 Maximum contraction depth               ...   12
Ratio of auxiliary to basis functions    ...  2.43
Integral package used                  ... LIBINT
 One Electron integrals                  ... done
 Ordering auxiliary basis shells         ... done
 Integral threshhold             Thresh  ...  2.500e-11
 Primitive cut-off               TCut    ...  2.500e-12
 Pre-screening matrix                    ... done
 Shell pair data                         ... 
 Ordering of the shell pairs             ... done (   0.000 sec) 499 of 528 pairs
 Determination of significant pairs      ... done (   0.000 sec)
 Creation of shell pair data             ... done (   0.000 sec)
 Storage of shell pair data              ... done (   0.000 sec)
 Shell pair data done in (   0.001 sec)
 Computing two index integrals           ... done
 Cholesky decomposition of the V-matrix  ... done


Timings:
 Total evaluation time                   ...   0.283 sec (  0.005 min)
 One electron matrix time                ...   0.021 sec (  0.000 min) =  7.4%
 Schwartz matrix evaluation time         ...   0.214 sec (  0.004 min) = 75.6%
 Two index repulsion integral time       ...   0.002 sec (  0.000 min) =  0.7%
 Cholesky decomposition of V             ...   0.019 sec (  0.000 min) =  6.7%
 Three index repulsion integral time     ...   0.000 sec (  0.000 min) =  0.0%



           ************************************************************
           *        Program running with 12 parallel MPI-processes    *
           *              working on a common directory               *
           ************************************************************
-------------------------------------------------------------------------------
                                 ORCA SCF
-------------------------------------------------------------------------------

------------
SCF SETTINGS
------------
Hamiltonian:
 Density Functional     Method          .... DFT(GTOs)
 Exchange Functional    Exchange        .... PBE
   PBE kappa parameter   XKappa         ....  1.245000
   PBE mue parameter    XMuePBE         ....  0.219520
 Correlation Functional Correlation     .... PBE
   PBE beta parameter  CBetaPBE         ....  0.066725
 LDA part of GGA corr.  LDAOpt          .... PW91-LDA
 Gradients option       PostSCFGGA      .... off
   Density functional embedding theory  .... OFF
   NL short-range parameter             ....  3.700000
 RI-approximation to the Coulomb term is turned on
   Number of auxiliary basis functions  .... 180


General Settings:
 Integral files         IntName         .... 1-bromo-2-chloroethene
 Hartree-Fock type      HFTyp           .... RHF
 Total Charge           Charge          ....    0
 Multiplicity           Mult            ....    1
 Number of Electrons    NEL             ....   60
 Basis Dimension        Dim             ....   74
 Nuclear Repulsion      ENuc            ....    201.2891212024 Eh

Convergence Acceleration:
 DIIS                   CNVDIIS         .... on
   Start iteration      DIISMaxIt       ....    12
   Startup error        DIISStart       ....  0.200000
   # of expansion vecs  DIISMaxEq       ....     5
   Bias factor          DIISBfac        ....   1.050
   Max. coefficient     DIISMaxC        ....  10.000
 Newton-Raphson         CNVNR           .... off
 SOSCF                  CNVSOSCF        .... on
   Start iteration      SOSCFMaxIt      ....   150
   Startup grad/error   SOSCFStart      ....  0.003300
 Level Shifting         CNVShift        .... on
   Level shift para.    LevelShift      ....    0.2500
   Turn off err/grad.   ShiftErr        ....    0.0010
 Zerner damping         CNVZerner       .... off
 Static damping         CNVDamp         .... on
   Fraction old density DampFac         ....    0.7000
   Max. Damping (<1)    DampMax         ....    0.9800
   Min. Damping (>=0)   DampMin         ....    0.0000
   Turn off err/grad.   DampErr         ....    0.1000
 Fernandez-Rico         CNVRico         .... off

SCF Procedure:
 Maximum # iterations   MaxIter         ....   125
 SCF integral mode      SCFMode         .... Direct
   Integral package                     .... LIBINT
 Reset frequency        DirectResetFreq ....    20
 Integral Threshold     Thresh          ....  2.500e-11 Eh
 Primitive CutOff       TCut            ....  2.500e-12 Eh

Convergence Tolerance:
 Convergence Check Mode ConvCheckMode   .... Total+1el-Energy
 Convergence forced     ConvForced      .... 0
 Energy Change          TolE            ....  1.000e-08 Eh
 1-El. energy change                    ....  1.000e-05 Eh
 Orbital Gradient       TolG            ....  1.000e-05
 Orbital Rotation angle TolX            ....  1.000e-05
 DIIS Error             TolErr          ....  5.000e-07


Diagonalization of the overlap matrix:
Smallest eigenvalue                        ... 1.133e-02
Time for diagonalization                   ...    0.021 sec
Threshold for overlap eigenvalues          ... 1.000e-08
Number of eigenvalues below threshold      ... 0
Time for construction of square roots      ...    0.002 sec
Total time needed                          ...    0.024 sec

-------------------
DFT GRID GENERATION
-------------------

General Integration Accuracy     IntAcc      ...  4.670
Radial Grid Type                 RadialGrid  ... Gauss-Chebyshev
Angular Grid (max. acc.)         AngularGrid ... Lebedev-302
Angular grid pruning method      GridPruning ... 3 (G Style)
Weight generation scheme         WeightScheme... Becke
Basis function cutoff            BFCut       ...    1.0000e-11
Integration weight cutoff        WCut        ...    1.0000e-14
Grids for H and He will be reduced by one unit

# of grid points (after initial pruning)     ...  29354 (   0.0 sec)
# of grid points (after weights+screening)   ...  28838 (   0.0 sec)
nearest neighbour list constructed           ...    0.0 sec
Grid point re-assignment to atoms done       ...    0.0 sec
Grid point division into batches done        ...    0.2 sec
Reduced shell lists constructed in    0.2 sec

Total number of grid points                  ...    28838
Total number of batches                      ...      452
Average number of points per batch           ...       63
Average number of grid points per atom       ...     5768
Average number of shells per batch           ...    25.23 (78.85%)
Average number of basis functions per batch  ...    59.79 (80.80%)
Average number of large shells per batch     ...    23.31 (92.38%)
Average number of large basis fcns per batch ...    54.38 (90.95%)
Maximum spatial batch extension              ...   2.10,  1.86,  2.10 au
Average spatial batch extension              ...   0.11,  0.10,  0.11 au

Time for grid setup =    0.318 sec

------------------------------
INITIAL GUESS: MODEL POTENTIAL
------------------------------
Loading Hartree-Fock densities                     ... done
Calculating cut-offs                               ... done
Setting up the integral package                    ... done
Initializing the effective Hamiltonian             ... done
Starting the Coulomb interaction                   ... done (   0.0 sec)
Reading the grid                                   ... done
Mapping shells                                     ... done
Starting the XC term evaluation                    ... done (   0.0 sec)
  promolecular density results
     # of electrons  =     59.998975509
     EX              =   -122.613379470
     EC              =     -2.627532661
     EX+EC           =   -125.240912131
Transforming the Hamiltonian                       ... done (   0.0 sec)
Diagonalizing the Hamiltonian                      ... done (   0.0 sec)
Back transforming the eigenvectors                 ... done (   0.0 sec)
Now organizing SCF variables                       ... done
                      ------------------
                      INITIAL GUESS DONE (   0.5 sec)
                      ------------------
----------------------
INITIAL GUESS ORBITALS
----------------------
                      0         1         2         3         4         5   
                 -480.92806 -100.68656 -61.75694 -55.67467 -55.67460 -55.67460
                   2.00000   2.00000   2.00000   2.00000   2.00000   2.00000
                  --------  --------  --------  --------  --------  --------
  0C   1s        -0.000005  0.000050  0.000014  0.000004  0.000006 -0.000000
  0C   2s         0.000105 -0.000519 -0.000271 -0.000243 -0.000077  0.000000
  0C   3s        -0.000388  0.003026  0.001006  0.001499  0.000286 -0.000000
  0C   1pz        0.000003 -0.000001 -0.000008 -0.000059 -0.000037 -0.000038
  0C   1px       -0.000003  0.000001  0.000008  0.000059  0.000037 -0.000038
  0C   1py       -0.000003  0.000070  0.000009 -0.000032  0.000041 -0.000000
  0C   2pz        0.000148  0.000869 -0.000393 -0.000482  0.000289  0.000331
  0C   2px       -0.000148 -0.000869  0.000393  0.000482 -0.000289  0.000331
  0C   2py        0.000161 -0.000894 -0.000427 -0.000490 -0.000336  0.000000
  0C   1dz2      -0.000002  0.000009  0.000005  0.000004 -0.000012 -0.000032
  0C   1dxz       0.000015  0.000110 -0.000035 -0.000031  0.000014 -0.000000
  0C   1dyz      -0.000012  0.000061  0.000027  0.000029  0.000006  0.000001
  0C   1dx2y2    -0.000004  0.000016  0.000009  0.000007 -0.000022  0.000018
  0C   1dxy       0.000012 -0.000061 -0.000027 -0.000029 -0.000006  0.000001
  1Br  1s        -0.995018  0.000002  0.347053 -0.000024 -0.000000  0.000000
  1Br  2s        -0.015582 -0.000005 -1.046820  0.000065  0.000000 -0.000000
  1Br  3s         0.003886  0.000031 -0.018960 -0.000121  0.000001  0.000000
  1Br  4s        -0.002237 -0.000042  0.006585  0.000776 -0.000012  0.000000
  1Br  5s         0.001419 -0.000180 -0.003958 -0.001452  0.000042 -0.000000
  1Br  1pz       -0.000004 -0.000005 -0.000017 -0.599039 -0.363230 -0.700570
  1Br  1px        0.000004  0.000005  0.000017  0.599039  0.363230 -0.700570
  1Br  1py       -0.000003  0.000001 -0.000014 -0.513675  0.847186 -0.000000
  1Br  2pz        0.000013  0.000019 -0.000036 -0.014387 -0.008698 -0.016776
  1Br  2px       -0.000013 -0.000019  0.000036  0.014387  0.008698 -0.016776
  1Br  2py        0.000011 -0.000004 -0.000031 -0.012337  0.020288 -0.000000
  1Br  3pz       -0.000063 -0.000054  0.000168  0.003816  0.002190  0.004222
  1Br  3px        0.000063  0.000054 -0.000168 -0.003816 -0.002190  0.004222
  1Br  3py       -0.000054  0.000020  0.000145  0.003272 -0.005112  0.000000
  1Br  4pz        0.000202 -0.000099 -0.000537 -0.002050 -0.000835 -0.001636
  1Br  4px       -0.000202  0.000099  0.000537  0.002050  0.000835 -0.001636
  1Br  4py        0.000174 -0.000055 -0.000462 -0.001758  0.002006 -0.000000
  1Br  1dz2       0.000001 -0.000005 -0.000002 -0.000003 -0.000006 -0.000011
  1Br  1dxz      -0.000009  0.000001  0.000022  0.000034  0.000006 -0.000000
  1Br  1dyz       0.000008 -0.000005 -0.000019 -0.000029  0.000006 -0.000006
  1Br  1dx2y2     0.000001 -0.000009 -0.000003 -0.000005 -0.000010  0.000006
  1Br  1dxy      -0.000008  0.000005  0.000019  0.000029 -0.000006 -0.000006
  1Br  2dz2      -0.000003  0.000021  0.000007  0.000010  0.000019  0.000034
  1Br  2dxz       0.000033 -0.000010 -0.000085 -0.000124 -0.000019  0.000000
  1Br  2dyz      -0.000029  0.000020  0.000073  0.000106 -0.000018  0.000017
  1Br  2dx2y2    -0.000005  0.000036  0.000012  0.000017  0.000032 -0.000019
  1Br  2dxy       0.000029 -0.000020 -0.000073 -0.000106  0.000018  0.000017
  1Br  3dz2       0.000006 -0.000056 -0.000017 -0.000023 -0.000040 -0.000072
  1Br  3dxz      -0.000078  0.000063  0.000205  0.000289  0.000039 -0.000000
  1Br  3dyz       0.000068 -0.000047 -0.000176 -0.000248  0.000041 -0.000037
  1Br  3dx2y2     0.000011 -0.000096 -0.000029 -0.000039 -0.000069  0.000042
  1Br  3dxy      -0.000068  0.000047  0.000176  0.000248 -0.000041 -0.000037
  2Cl  1s         0.000001 -0.994039 -0.000002 -0.000003 -0.000003  0.000000
  2Cl  2s        -0.000007 -0.022299  0.000019  0.000025  0.000021 -0.000000
  2Cl  3s         0.000025  0.010255 -0.000075 -0.000095 -0.000064  0.000000
  2Cl  4s         0.000010 -0.007396 -0.000010 -0.000043 -0.000221  0.000000
  2Cl  1pz       -0.000003 -0.000056  0.000008  0.000011  0.000009  0.000002
  2Cl  1px        0.000003  0.000056 -0.000008 -0.000011 -0.000009  0.000002
  2Cl  1py       -0.000002  0.000054  0.000004  0.000005  0.000009 -0.000000
  2Cl  2pz       -0.000012 -0.000291  0.000035  0.000051  0.000042  0.000016
  2Cl  2px        0.000012  0.000291 -0.000035 -0.000051 -0.000042  0.000016
  2Cl  2py       -0.000007  0.000277  0.000019  0.000022  0.000045 -0.000000
  2Cl  3pz       -0.000004  0.001086  0.000003  0.000002  0.000032 -0.000076
  2Cl  3px        0.000004 -0.001086 -0.000003 -0.000002 -0.000032 -0.000076
  2Cl  3py        0.000006 -0.001029 -0.000015 -0.000035 -0.000184  0.000000
  2Cl  1dz2       0.000006 -0.000005 -0.000015 -0.000016  0.000003  0.000027
  2Cl  1dxz      -0.000000  0.000144 -0.000001 -0.000005 -0.000006  0.000000
  2Cl  1dyz      -0.000002  0.000137  0.000004  0.000011  0.000023 -0.000022
  2Cl  1dx2y2     0.000010 -0.000009 -0.000027 -0.000027  0.000005 -0.000015
  2Cl  1dxy       0.000002 -0.000137 -0.000004 -0.000011 -0.000023 -0.000022
  3H   1s         0.000035 -0.000253 -0.000094 -0.000124  0.000047  0.000142
  3H   2s        -0.000043 -0.000069  0.000127  0.000070 -0.000074 -0.000021
  3H   1pz       -0.000014 -0.000014  0.000035  0.000017 -0.000012  0.000006
  3H   1px       -0.000007  0.000052  0.000019  0.000027  0.000029 -0.000046
  3H   1py        0.000004  0.000028 -0.000011 -0.000018  0.000052  0.000001
  4H   1s         0.000035 -0.000253 -0.000094 -0.000124  0.000047 -0.000142
  4H   2s        -0.000043 -0.000069  0.000127  0.000070 -0.000074  0.000021
  4H   1pz        0.000007 -0.000052 -0.000019 -0.000027 -0.000029 -0.000046
  4H   1px        0.000014  0.000014 -0.000035 -0.000017  0.000012  0.000006
  4H   1py        0.000004  0.000028 -0.000011 -0.000018  0.000052 -0.000001
                      6         7         8         9        10        11   
                 -10.05403  -9.23060  -8.42044  -7.04764  -7.04603  -7.04603
                   2.00000   2.00000   2.00000   2.00000   2.00000   2.00000
                  --------  --------  --------  --------  --------  --------
  0C   1s        -0.988228 -0.000272  0.000063  0.000136  0.000000  0.000019
  0C   2s        -0.049129  0.001406 -0.000568 -0.000679 -0.000000 -0.000152
  0C   3s         0.037699 -0.007428  0.002149  0.007469  0.000000  0.000223
  0C   1pz       -0.000024  0.000209  0.000010 -0.000006  0.000147  0.000136
  0C   1px        0.000024 -0.000209 -0.000010  0.000006  0.000147 -0.000136
  0C   1py       -0.002729 -0.000351  0.000063  0.000212  0.000000  0.000144
  0C   2pz       -0.000812 -0.002267 -0.001038  0.001748 -0.001470 -0.000945
  0C   2px        0.000812  0.002267  0.001038 -0.001748 -0.001470  0.000945
  0C   2py       -0.000055  0.002278 -0.001093 -0.001724 -0.000000 -0.001380
  0C   1dz2      -0.000028 -0.000007  0.000003  0.000004 -0.000023 -0.000010
  0C   1dxz      -0.002168 -0.000467  0.000017  0.000644  0.000000  0.000042
  0C   1dyz       0.000285 -0.000344 -0.000009  0.000470 -0.000048 -0.000003
  0C   1dx2y2    -0.000049 -0.000013  0.000004  0.000006  0.000013 -0.000017
  0C   1dxy      -0.000285  0.000344  0.000009 -0.000470 -0.000048  0.000003
  1Br  1s        -0.000008 -0.000005  0.136613  0.000004  0.000000  0.000007
  1Br  2s         0.000019  0.000010 -0.516795 -0.000011 -0.000000 -0.000017
  1Br  3s        -0.000133 -0.000088  1.091847  0.000055  0.000000  0.000097
  1Br  4s         0.001523  0.000255  0.035664  0.000028 -0.000000 -0.000209
  1Br  5s        -0.005979  0.000215 -0.014186 -0.000645 -0.000000 -0.000436
  1Br  1pz        0.000014  0.000016 -0.000095 -0.000008 -0.000002 -0.000014
  1Br  1px       -0.000014 -0.000016  0.000095  0.000008 -0.000002  0.000014
  1Br  1py        0.000001 -0.000004 -0.000080  0.000000  0.000000  0.000006
  1Br  2pz       -0.000045 -0.000054  0.000199  0.000027  0.000007  0.000048
  1Br  2px        0.000045  0.000054 -0.000199 -0.000027  0.000007 -0.000048
  1Br  2py        0.000002  0.000014  0.000168 -0.000001 -0.000000 -0.000021
  1Br  3pz        0.000145  0.000190  0.000494 -0.000078 -0.000054 -0.000200
  1Br  3px       -0.000145 -0.000190 -0.000494  0.000078 -0.000054  0.000200
  1Br  3py       -0.000085 -0.000066  0.000426  0.000022  0.000000  0.000120
  1Br  4pz       -0.002528  0.000096 -0.001398 -0.000336  0.000229 -0.000081
  1Br  4px        0.002528 -0.000096  0.001398  0.000336  0.000229  0.000081
  1Br  4py       -0.001639  0.000149 -0.001214 -0.000180 -0.000000 -0.000527
  1Br  1dz2      -0.000004  0.000007 -0.000001 -0.000006  0.000012  0.000003
  1Br  1dxz      -0.000018  0.000003  0.000012  0.000006 -0.000000 -0.000005
  1Br  1dyz       0.000035  0.000009 -0.000011 -0.000010  0.000009 -0.000013
  1Br  1dx2y2    -0.000008  0.000012 -0.000001 -0.000010 -0.000007  0.000005
  1Br  1dxy      -0.000035 -0.000009  0.000011  0.000010  0.000009  0.000013
  1Br  2dz2       0.000022 -0.000033  0.000015  0.000030 -0.000062 -0.000013
  1Br  2dxz       0.000061 -0.000007 -0.000195 -0.000034  0.000000  0.000020
  1Br  2dyz      -0.000143 -0.000042  0.000169  0.000050 -0.000044  0.000063
  1Br  2dx2y2     0.000038 -0.000058  0.000026  0.000052  0.000036 -0.000022
  1Br  2dxy       0.000143  0.000042 -0.000169 -0.000050 -0.000044 -0.000063
  1Br  3dz2      -0.000088  0.000109 -0.000035 -0.000099  0.000179  0.000019
  1Br  3dxz       0.000284 -0.000077  0.000457  0.000172  0.000000  0.000029
  1Br  3dyz      -0.000016  0.000111 -0.000397 -0.000145  0.000118 -0.000197
  1Br  3dx2y2    -0.000152  0.000189 -0.000061 -0.000171 -0.000104  0.000032
  1Br  3dxy       0.000016 -0.000111  0.000397  0.000145  0.000118  0.000197
  2Cl  1s         0.000031  0.311436 -0.000012  0.000629 -0.000000  0.000000
  2Cl  2s        -0.000340 -1.019750  0.000079 -0.002457  0.000000 -0.000002
  2Cl  3s         0.001351 -0.053834 -0.000329  0.003194 -0.000000 -0.000010
  2Cl  4s        -0.005559  0.024503  0.000249 -0.006516  0.000000  0.000129
  2Cl  1pz       -0.000124 -0.000810  0.000021  0.572497  0.693167  0.390544
  2Cl  1px        0.000124  0.000810 -0.000021 -0.572497  0.693167 -0.390544
  2Cl  1py        0.000090  0.000782  0.000010 -0.552143  0.000000  0.809883
  2Cl  2pz       -0.000383  0.000944  0.000130 -0.031259 -0.036959 -0.020823
  2Cl  2px        0.000383 -0.000944 -0.000130  0.031259 -0.036959  0.020823
  2Cl  2py        0.000174 -0.000899  0.000057  0.030140 -0.000000 -0.043186
  2Cl  3pz        0.001192 -0.002726 -0.000130  0.006825  0.005826  0.003232
  2Cl  3px       -0.001192  0.002726  0.000130 -0.006825  0.005826 -0.003232
  2Cl  3py       -0.000369  0.002591 -0.000038 -0.006544  0.000000  0.006844
  2Cl  1dz2      -0.000045  0.000007 -0.000031 -0.000004 -0.000020 -0.000008
  2Cl  1dxz      -0.000808 -0.000180 -0.000030  0.000028 -0.000000 -0.000000
  2Cl  1dyz      -0.000950 -0.000170  0.000013  0.000022  0.000008 -0.000013
  2Cl  1dx2y2    -0.000078  0.000012 -0.000053 -0.000008  0.000012 -0.000014
  2Cl  1dxy       0.000950  0.000170 -0.000013 -0.000022  0.000008  0.000013
  3H   1s         0.003628  0.000611 -0.000240 -0.000642 -0.000504  0.000172
  3H   2s        -0.008492 -0.000033  0.000556 -0.000529 -0.000234  0.000041
  3H   1pz        0.001896 -0.000003  0.000053 -0.000078  0.000174  0.000084
  3H   1px        0.001626 -0.000085  0.000070 -0.000018 -0.000066  0.000003
  3H   1py       -0.001502 -0.000017 -0.000055  0.000094 -0.000015  0.000192
  4H   1s         0.003628  0.000611 -0.000240 -0.000642  0.000504  0.000172
  4H   2s        -0.008492 -0.000033  0.000556 -0.000529  0.000234  0.000041
  4H   1pz       -0.001626  0.000085 -0.000070  0.000018 -0.000066 -0.000003
  4H   1px       -0.001896  0.000003 -0.000053  0.000078  0.000174 -0.000084
  4H   1py       -0.001502 -0.000017 -0.000055  0.000094  0.000015  0.000192
                     12        13        14        15        16        17   
                  -6.29074  -6.29020  -6.29020  -2.49196  -2.49168  -2.49167
                   2.00000   2.00000   2.00000   2.00000   2.00000   2.00000
                  --------  --------  --------  --------  --------  --------
  0C   1s        -0.000012 -0.000009 -0.000000  0.000300  0.000003  0.000000
  0C   2s         0.000269  0.000113  0.000000 -0.001382 -0.000226 -0.000000
  0C   3s        -0.001949 -0.000423 -0.000000  0.005315  0.000710  0.000000
  0C   1pz        0.000067  0.000053 -0.000054  0.000125 -0.000108  0.000164
  0C   1px       -0.000067 -0.000053 -0.000054 -0.000125  0.000108  0.000164
  0C   1py        0.000026 -0.000058 -0.000000  0.000161  0.000192 -0.000000
  0C   2pz        0.000662 -0.000419  0.000465 -0.001226  0.001059 -0.001419
  0C   2px       -0.000662  0.000419  0.000465  0.001226 -0.001059 -0.001419
  0C   2py        0.000665  0.000476  0.000000 -0.001355 -0.001530  0.000000
  0C   1dz2      -0.000001  0.000015 -0.000037  0.000019 -0.000058  0.000143
  0C   1dxz      -0.000005 -0.000019 -0.000000 -0.000124 -0.000007 -0.000000
  0C   1dyz      -0.000003 -0.000008 -0.000003  0.000106  0.000006 -0.000033
  0C   1dx2y2    -0.000001  0.000026  0.000021  0.000033 -0.000100 -0.000083
  0C   1dxy       0.000003  0.000008 -0.000003 -0.000106 -0.000006 -0.000033
  1Br  1s         0.000081 -0.000000 -0.000000  0.000021 -0.000001 -0.000000
  1Br  2s        -0.000283  0.000000  0.000000 -0.000078  0.000003 -0.000000
  1Br  3s         0.000772 -0.000002 -0.000000  0.000196 -0.000012 -0.000000
  1Br  4s        -0.001214  0.000022  0.000000  0.001211 -0.000019  0.000000
  1Br  5s         0.002018 -0.000068 -0.000000 -0.003707  0.000102 -0.000000
  1Br  1pz        0.266360  0.160391 -0.310944 -0.000109 -0.000037  0.000080
  1Br  1px       -0.266360 -0.160391 -0.310944  0.000109  0.000037  0.000080
  1Br  1py        0.226805 -0.376725 -0.000000 -0.000090  0.000099 -0.000000
  1Br  2pz       -0.651220 -0.392152  0.760251  0.000286  0.000099 -0.000213
  1Br  2px        0.651220  0.392151  0.760251 -0.000286 -0.000099 -0.000213
  1Br  2py       -0.554512  0.921083  0.000000  0.000235 -0.000264  0.000000
  1Br  3pz       -0.014541 -0.008551  0.016578  0.000154 -0.000021  0.000056
  1Br  3px        0.014541  0.008551  0.016578 -0.000154  0.000021  0.000056
  1Br  3py       -0.012385  0.020096  0.000000  0.000132  0.000055 -0.000000
  1Br  4pz        0.003299  0.001434 -0.002823 -0.001974 -0.000148  0.000356
  1Br  4px       -0.003299 -0.001434 -0.002823  0.001974  0.000148  0.000356
  1Br  4py        0.002818 -0.003464 -0.000000 -0.001659  0.000527 -0.000000
  1Br  1dz2      -0.000008 -0.000047  0.000091 -0.050519 -0.323953  0.621170
  1Br  1dxz       0.000091  0.000056  0.000000  0.547192  0.353706 -0.000000
  1Br  1dyz      -0.000075  0.000039  0.000045 -0.448353  0.288838  0.314064
  1Br  1dx2y2    -0.000013 -0.000082 -0.000052 -0.087501 -0.561103 -0.358633
  1Br  1dxy       0.000075 -0.000039  0.000045  0.448353 -0.288838  0.314064
  1Br  2dz2      -0.000016 -0.000053  0.000100 -0.016086 -0.103225  0.197938
  1Br  2dxz       0.000210  0.000058  0.000000  0.174230  0.112713 -0.000000
  1Br  2dyz      -0.000180  0.000049  0.000050 -0.142756  0.092036  0.100080
  1Br  2dx2y2    -0.000028 -0.000092 -0.000058 -0.027862 -0.178791 -0.114280
  1Br  2dxy       0.000180 -0.000049  0.000050  0.142756 -0.092036  0.100080
  1Br  3dz2       0.000025  0.000047 -0.000084 -0.001653 -0.010266  0.019667
  1Br  3dxz      -0.000318 -0.000044 -0.000000  0.017971  0.011178 -0.000000
  1Br  3dyz       0.000274 -0.000050 -0.000044 -0.014749  0.009166  0.009934
  1Br  3dx2y2     0.000043  0.000082  0.000049 -0.002862 -0.017781 -0.011355
  1Br  3dxy      -0.000274  0.000050 -0.000044  0.014749 -0.009166  0.009934
  2Cl  1s         0.000005  0.000004  0.000000 -0.000001 -0.000002  0.000000
  2Cl  2s        -0.000039 -0.000032 -0.000000  0.000005  0.000004 -0.000000
  2Cl  3s         0.000162  0.000106  0.000000  0.000201  0.000266  0.000000
  2Cl  4s        -0.000010  0.000292  0.000000 -0.000977 -0.001599  0.000000
  2Cl  1pz       -0.000019 -0.000015  0.000003  0.000000  0.000006 -0.000010
  2Cl  1px        0.000019  0.000015  0.000003 -0.000000 -0.000006 -0.000010
  2Cl  1py       -0.000008 -0.000014 -0.000000  0.000000  0.000014 -0.000000
  2Cl  2pz       -0.000075 -0.000060  0.000019 -0.000038 -0.000002 -0.000073
  2Cl  2px        0.000075  0.000060  0.000019  0.000038  0.000002 -0.000073
  2Cl  2py       -0.000029 -0.000062 -0.000000  0.000003  0.000091 -0.000000
  2Cl  3pz        0.000032 -0.000034 -0.000103  0.000492  0.000518  0.000324
  2Cl  3px       -0.000032  0.000034 -0.000103 -0.000492 -0.000518  0.000324
  2Cl  3py        0.000050  0.000269  0.000000 -0.000057 -0.000583  0.000000
  2Cl  1dz2       0.000017 -0.000005  0.000033 -0.000062 -0.000018 -0.000103
  2Cl  1dxz       0.000011  0.000010  0.000000  0.000111  0.000092  0.000000
  2Cl  1dyz      -0.000016 -0.000032 -0.000029  0.000023  0.000059  0.000049
  2Cl  1dx2y2     0.000030 -0.000008 -0.000019 -0.000107 -0.000032  0.000060
  2Cl  1dxy       0.000016  0.000032 -0.000029 -0.000023 -0.000059  0.000049
  3H   1s         0.000165 -0.000066  0.000196 -0.000348  0.000179 -0.000473
  3H   2s        -0.000148  0.000125 -0.000061 -0.000581  0.000187 -0.000676
  3H   1pz       -0.000008  0.000013  0.000011  0.000100 -0.000043  0.000023
  3H   1px       -0.000038 -0.000032 -0.000064 -0.000080  0.000173  0.000014
  3H   1py        0.000028 -0.000068  0.000008  0.000107  0.000106  0.000122
  4H   1s         0.000165 -0.000066 -0.000196 -0.000348  0.000179  0.000473
  4H   2s        -0.000148  0.000125  0.000061 -0.000581  0.000187  0.000676
  4H   1pz        0.000038  0.000032 -0.000064  0.000080 -0.000173  0.000014
  4H   1px        0.000008 -0.000013  0.000011 -0.000100  0.000043  0.000023
  4H   1py        0.000028 -0.000068 -0.000008  0.000107  0.000106 -0.000122
                     18        19        20        21        22        23   
                  -2.49125  -2.49125  -0.82935  -0.73232  -0.64844  -0.47534
                   2.00000   2.00000   2.00000   2.00000   2.00000   2.00000
                  --------  --------  --------  --------  --------  --------
  0C   1s         0.000002  0.000000 -0.138854  0.062383 -0.207029 -0.000000
  0C   2s         0.000018 -0.000000  0.289066 -0.128884  0.449431  0.000000
  0C   3s        -0.000062  0.000000  0.050439 -0.052621  0.131000 -0.000000
  0C   1pz       -0.000007 -0.000020  0.056575  0.053909 -0.005605 -0.322271
  0C   1px        0.000007 -0.000020 -0.056575 -0.053909  0.005605 -0.322271
  0C   1py       -0.000020 -0.000000 -0.035791 -0.010248  0.137794  0.000000
  0C   2pz       -0.000138  0.000285  0.007373  0.018736 -0.003881 -0.127802
  0C   2px        0.000138  0.000285 -0.007373 -0.018736  0.003881 -0.127802
  0C   2py        0.000363 -0.000000 -0.007883  0.003934  0.037951  0.000000
  0C   1dz2      -0.000010  0.000009  0.000735 -0.000115 -0.000256 -0.005068
  0C   1dxz       0.000012 -0.000000 -0.008009  0.001099  0.005611  0.000000
  0C   1dyz       0.000008  0.000010 -0.006707 -0.004645 -0.000674 -0.011436
  0C   1dx2y2    -0.000018 -0.000005  0.001272 -0.000199 -0.000443  0.002926
  0C   1dxy      -0.000008  0.000010  0.006707  0.004645  0.000674 -0.011436
  1Br  1s         0.000000 -0.000000 -0.006645  0.044458  0.018418  0.000000
  1Br  2s        -0.000000  0.000000  0.018703 -0.124290 -0.051187 -0.000000
  1Br  3s         0.000002 -0.000000 -0.087505  0.589236  0.245448  0.000000
  1Br  4s        -0.000030  0.000000  0.114751 -0.809080 -0.349201 -0.000000
  1Br  5s         0.000077 -0.000000  0.042679 -0.260071 -0.108359  0.000000
  1Br  1pz       -0.000000 -0.000001  0.003077 -0.003849  0.005742 -0.008208
  1Br  1px        0.000000 -0.000001 -0.003077  0.003849 -0.005742 -0.008208
  1Br  1py        0.000001 -0.000000  0.002020 -0.003900  0.006834  0.000000
  1Br  2pz        0.000001  0.000002 -0.009305  0.011708 -0.017442  0.025074
  1Br  2px       -0.000001  0.000002  0.009305 -0.011708  0.017442  0.025074
  1Br  2py       -0.000003  0.000000 -0.006093  0.011850 -0.020738 -0.000000
  1Br  3pz       -0.000008  0.000001  0.012606 -0.016812  0.024220 -0.036061
  1Br  3px        0.000008  0.000001 -0.012606  0.016812 -0.024220 -0.036061
  1Br  3py        0.000003 -0.000000  0.007787 -0.016720  0.028042  0.000000
  1Br  4pz        0.000050 -0.000016  0.011020 -0.010604  0.022300 -0.034232
  1Br  4px       -0.000050 -0.000016 -0.011020  0.010604 -0.022300 -0.034232
  1Br  4py       -0.000006 -0.000000  0.009037 -0.011741  0.028343 -0.000000
  1Br  1dz2       0.265424 -0.384679 -0.000470  0.000025  0.000296  0.005363
  1Br  1dxz       0.535939 -0.000000  0.003203 -0.003157  0.003589 -0.000000
  1Br  1dyz       0.267229  0.507222 -0.002082  0.003251 -0.004491  0.002956
  1Br  1dx2y2     0.459727  0.222095 -0.000813  0.000044  0.000512 -0.003096
  1Br  1dxy      -0.267229  0.507222  0.002082 -0.003251  0.004491  0.002956
  1Br  2dz2       0.084579 -0.122582 -0.000015 -0.000016  0.000103  0.000865
  1Br  2dxz       0.170797 -0.000000  0.000513 -0.000501  0.000370  0.000000
  1Br  2dyz       0.085160  0.161640 -0.000472  0.000618 -0.000826  0.000598
  1Br  2dx2y2     0.146495  0.070773 -0.000026 -0.000028  0.000179 -0.000500
  1Br  2dxy      -0.085160  0.161640  0.000472 -0.000618  0.000826  0.000598
  1Br  3dz2       0.008281 -0.011999  0.000601 -0.000020 -0.000726 -0.011733
  1Br  3dxz       0.016664 -0.000000 -0.005696  0.006355 -0.006569 -0.000000
  1Br  3dyz       0.008323  0.015789  0.004227 -0.006814  0.009375 -0.006928
  1Br  3dx2y2     0.014343  0.006928  0.001041 -0.000034 -0.001257  0.006774
  1Br  3dxy      -0.008323  0.015789 -0.004227  0.006814 -0.009375 -0.006928
  2Cl  1s        -0.000004 -0.000000  0.072951  0.027044 -0.039115 -0.000000
  2Cl  2s         0.000035  0.000000 -0.454928 -0.170053  0.247673  0.000000
  2Cl  3s        -0.000230  0.000000  0.618221  0.236672 -0.351602 -0.000000
  2Cl  4s         0.000510 -0.000000  0.298698  0.119068 -0.184173  0.000000
  2Cl  1pz        0.000011 -0.000002 -0.026563  0.003484 -0.025269 -0.051067
  2Cl  1px       -0.000011 -0.000002  0.026563 -0.003484  0.025269 -0.051067
  2Cl  1py        0.000000 -0.000000  0.026121  0.000067  0.033356 -0.000000
  2Cl  2pz        0.000062 -0.000007 -0.043651  0.005094 -0.040844 -0.086668
  2Cl  2px       -0.000062 -0.000007  0.043651 -0.005094  0.040844 -0.086668
  2Cl  2py       -0.000005 -0.000000  0.042590  0.000999  0.053741 -0.000000
  2Cl  3pz       -0.000222 -0.000010 -0.037885  0.004620 -0.042505 -0.096646
  2Cl  3px        0.000222 -0.000010  0.037885 -0.004620  0.042505 -0.096646
  2Cl  3py        0.000088  0.000000  0.039120 -0.002043  0.057615  0.000000
  2Cl  1dz2       0.000005  0.000017 -0.000030 -0.000449 -0.001852  0.021359
  2Cl  1dxz      -0.000023 -0.000000 -0.014405  0.000982 -0.007223 -0.000000
  2Cl  1dyz      -0.000020 -0.000005 -0.014703 -0.000435 -0.011848 -0.013594
  2Cl  1dx2y2     0.000008 -0.000010 -0.000051 -0.000778 -0.003208 -0.012332
  2Cl  1dxy       0.000020 -0.000005  0.014703  0.000435  0.011848 -0.013594
  3H   1s         0.000007  0.000004  0.073324 -0.047037  0.208611  0.299873
  3H   2s        -0.000196  0.000409  0.006270 -0.001791  0.024063  0.064132
  3H   1pz       -0.000009  0.000014  0.007080 -0.002473  0.013506  0.005471
  3H   1px       -0.000037  0.000017  0.004758 -0.004243  0.013111  0.004112
  3H   1py       -0.000013 -0.000040 -0.005798  0.002627 -0.008853 -0.013818
  4H   1s         0.000007 -0.000004  0.073324 -0.047037  0.208611 -0.299873
  4H   2s        -0.000196 -0.000409  0.006270 -0.001791  0.024063 -0.064132
  4H   1pz        0.000037  0.000017 -0.004758  0.004243 -0.013111  0.004112
  4H   1px        0.000009  0.000014 -0.007080  0.002473 -0.013506  0.005471
  4H   1py       -0.000013  0.000040 -0.005798  0.002627 -0.008853  0.013818
                     24        25        26        27        28        29   
                  -0.43562  -0.39298  -0.31444  -0.31147  -0.29051  -0.29033
                   2.00000   2.00000   2.00000   2.00000   2.00000   2.00000
                  --------  --------  --------  --------  --------  --------
  0C   1s        -0.021067 -0.029321 -0.000000  0.005832  0.003216  0.000000
  0C   2s         0.051750  0.060540 -0.000000 -0.016033 -0.002995 -0.000000
  0C   3s         0.030849  0.088020  0.000000  0.010176 -0.031499  0.000000
  0C   1pz        0.149273 -0.211442  0.084235 -0.050085  0.016045  0.063131
  0C   1px       -0.149273  0.211442  0.084235  0.050085 -0.016045  0.063131
  0C   1py       -0.330694 -0.191732  0.000000 -0.121957 -0.014133 -0.000000
  0C   2pz        0.055261 -0.121961  0.018053 -0.023070 -0.019426  0.007222
  0C   2px       -0.055261  0.121961  0.018053  0.023070  0.019426  0.007222
  0C   2py       -0.140711 -0.118983 -0.000000 -0.045834  0.011651 -0.000000
  0C   1dz2       0.001114 -0.002574 -0.012775  0.007232  0.001237  0.004954
  0C   1dxz      -0.015799  0.002264  0.000000 -0.016945 -0.003353 -0.000000
  0C   1dyz      -0.010219  0.002436  0.011571  0.005535 -0.007318  0.008359
  0C   1dx2y2     0.001930 -0.004459  0.007376  0.012527  0.002142 -0.002860
  0C   1dxy       0.010219 -0.002436  0.011571 -0.005535  0.007318  0.008359
  1Br  1s         0.000648  0.007637 -0.000000  0.000486  0.000186  0.000000
  1Br  2s        -0.001804 -0.020889  0.000000 -0.001403 -0.000482 -0.000000
  1Br  3s         0.008637  0.103264 -0.000000  0.006265  0.002619  0.000000
  1Br  4s        -0.010309 -0.151986 -0.000000 -0.000446 -0.006266 -0.000000
  1Br  5s        -0.010066 -0.101088  0.000000 -0.030215  0.001836  0.000000
  1Br  1pz        0.007232  0.043401  0.016150  0.023903 -0.050138 -0.082336
  1Br  1px       -0.007232 -0.043401  0.016150 -0.023903  0.050138 -0.082336
  1Br  1py       -0.008834  0.032676 -0.000000  0.057382  0.090043  0.000000
  1Br  2pz       -0.022172 -0.133073 -0.049613 -0.073532  0.154172  0.253143
  1Br  2px        0.022172  0.133073 -0.049613  0.073532 -0.154172  0.253143
  1Br  2py        0.027027 -0.100231  0.000000 -0.176310 -0.276850 -0.000000
  1Br  3pz        0.033827  0.199926  0.074829  0.113923 -0.234914 -0.384698
  1Br  3px       -0.033827 -0.199926  0.074829 -0.113923  0.234914 -0.384698
  1Br  3py       -0.039337  0.152093 -0.000000  0.266215  0.421344  0.000000
  1Br  4pz        0.026919  0.171412  0.080021  0.104272 -0.251368 -0.416361
  1Br  4px       -0.026919 -0.171412  0.080021 -0.104272  0.251368 -0.416361
  1Br  4py       -0.038772  0.120281 -0.000000  0.287164  0.449459  0.000000
  1Br  1dz2      -0.002588 -0.001103 -0.001293  0.000142  0.000432  0.000280
  1Br  1dxz       0.004128  0.011396 -0.000000  0.002112 -0.000442 -0.000000
  1Br  1dyz       0.001512 -0.008747 -0.001422 -0.003651  0.000258 -0.000125
  1Br  1dx2y2    -0.004483 -0.001911  0.000746  0.000245  0.000748 -0.000162
  1Br  1dxy      -0.001512  0.008747 -0.001422  0.003651 -0.000258 -0.000125
  1Br  2dz2      -0.000290 -0.000087 -0.000282  0.000264  0.000164  0.000453
  1Br  2dxz       0.000317  0.000119 -0.000000 -0.000175 -0.000246 -0.000000
  1Br  2dyz       0.000377  0.000364 -0.000638 -0.000991  0.000224  0.000097
  1Br  2dx2y2    -0.000502 -0.000151  0.000163  0.000457  0.000283 -0.000261
  1Br  2dxy      -0.000377 -0.000364 -0.000638  0.000991 -0.000224  0.000097
  1Br  3dz2       0.005479  0.002324  0.003626 -0.001529 -0.001663 -0.002934
  1Br  3dxz      -0.008400 -0.020610  0.000000 -0.003722  0.002278  0.000000
  1Br  3dyz      -0.003927  0.013865  0.005353  0.012045 -0.001657 -0.000418
  1Br  3dx2y2     0.009490  0.004025 -0.002093 -0.002648 -0.002880  0.001694
  1Br  3dxy       0.003927 -0.013865  0.005353 -0.012045  0.001657 -0.000418
  2Cl  1s        -0.018602  0.002636  0.000000  0.000317  0.001988  0.000000
  2Cl  2s         0.119005 -0.016879 -0.000000 -0.002250 -0.013290 -0.000000
  2Cl  3s        -0.156291  0.021384  0.000000  0.007218  0.025188  0.000000
  2Cl  4s        -0.179143  0.035590 -0.000000 -0.004208  0.019473 -0.000000
  2Cl  1pz       -0.135196 -0.016791 -0.194500  0.083328 -0.054841 -0.031401
  2Cl  1px        0.135196  0.016791 -0.194500 -0.083328  0.054841 -0.031401
  2Cl  1py        0.087219 -0.141045 -0.000000  0.201282 -0.048424 -0.000000
  2Cl  2pz       -0.235663 -0.028568 -0.339116  0.144343 -0.097087 -0.055033
  2Cl  2px        0.235663  0.028568 -0.339116 -0.144343  0.097087 -0.055033
  2Cl  2py        0.153157 -0.244798 -0.000000  0.351093 -0.085394 -0.000000
  2Cl  3pz       -0.242910 -0.036948 -0.439685  0.193350 -0.128385 -0.071880
  2Cl  3px        0.242910  0.036948 -0.439685 -0.193350  0.128385 -0.071880
  2Cl  3py        0.151369 -0.279322 -0.000000  0.458383 -0.099203 -0.000000
  2Cl  1dz2       0.004922  0.011310  0.003870 -0.001009  0.000470 -0.001337
  2Cl  1dxz      -0.029902 -0.008322  0.000000  0.000009 -0.000488 -0.000000
  2Cl  1dyz      -0.019907  0.013664 -0.001567 -0.000740 -0.004863  0.003535
  2Cl  1dx2y2     0.008525  0.019590 -0.002234 -0.001747  0.000815  0.000772
  2Cl  1dxy       0.019907 -0.013664 -0.001567  0.000740  0.004863  0.003535
  3H   1s        -0.136905 -0.049837 -0.127272 -0.086292 -0.012956 -0.092236
  3H   2s        -0.039108 -0.018868 -0.052646 -0.031477 -0.000599 -0.038955
  3H   1pz       -0.003029 -0.008870  0.001040 -0.005070 -0.001150 -0.003263
  3H   1px       -0.010178  0.003433 -0.004826 -0.002685 -0.000178  0.000074
  3H   1py       -0.002550 -0.002318  0.002602 -0.002141 -0.000455  0.001598
  4H   1s        -0.136905 -0.049837  0.127272 -0.086292 -0.012956  0.092236
  4H   2s        -0.039108 -0.018868  0.052646 -0.031477 -0.000599  0.038955
  4H   1pz        0.010178 -0.003433 -0.004826  0.002685  0.000178  0.000074
  4H   1px        0.003029  0.008870  0.001040  0.005070  0.001150 -0.003263
  4H   1py       -0.002550 -0.002318 -0.002602 -0.002141 -0.000455 -0.001598
                     30        31        32        33        34        35   
                  -0.13508  -0.03893   0.02607   0.05790   0.27621   0.29939
                   0.00000   0.00000   0.00000   0.00000   0.00000   0.00000
                  --------  --------  --------  --------  --------  --------
  0C   1s        -0.119792  0.119451  0.109153 -0.000000 -0.015414  0.069908
  0C   2s         0.291493 -0.312805 -0.254017  0.000000  0.073452 -0.480568
  0C   3s         0.530342 -0.807022 -1.668692  0.000000 -0.204261  0.957939
  0C   1pz       -0.238020 -0.331098  0.035789  0.311788  0.080418 -0.271707
  0C   1px        0.238020  0.331098 -0.035789  0.311788 -0.080418  0.271707
  0C   1py       -0.330504  0.213181 -0.326864  0.000000  0.093500  0.407542
  0C   2pz       -0.247040 -0.462804  0.101723  0.813387  0.022106  0.547691
  0C   2px        0.247040  0.462804 -0.101723  0.813387 -0.022106 -0.547691
  0C   2py       -0.325949  0.271074 -0.776055  0.000000  0.301105 -0.776170
  0C   1dz2       0.002053 -0.002875  0.002688  0.005503 -0.001510 -0.007005
  0C   1dxz       0.011506 -0.008289  0.027333 -0.000000 -0.012586  0.060172
  0C   1dyz      -0.010526 -0.018276  0.003049 -0.020492 -0.001829  0.028799
  0C   1dx2y2     0.003555 -0.004980  0.004655 -0.003177 -0.002615 -0.012133
  0C   1dxy       0.010526  0.018276 -0.003049 -0.020492  0.001829 -0.028799
  1Br  1s         0.009097  0.002992  0.004303 -0.000000  0.038222  0.003160
  1Br  2s        -0.024414 -0.007747 -0.010946  0.000000 -0.093664 -0.007747
  1Br  3s         0.125050  0.042279  0.061607 -0.000000  0.561858  0.046446
  1Br  4s        -0.186405 -0.099799 -0.175823  0.000000 -2.021396 -0.159424
  1Br  5s        -0.222037  0.006972  0.131490 -0.000000  2.054273  0.137904
  1Br  1pz       -0.048679 -0.001732 -0.004762 -0.000686  0.010005 -0.006900
  1Br  1px        0.048679  0.001732  0.004762 -0.000686 -0.010005  0.006900
  1Br  1py       -0.040992 -0.016937 -0.000916 -0.000000  0.009398  0.020447
  1Br  2pz        0.150157  0.005450  0.014868  0.001987 -0.031484  0.021806
  1Br  2px       -0.150157 -0.005450 -0.014868  0.001987  0.031484 -0.021806
  1Br  2py        0.126512  0.052483  0.003039  0.000000 -0.029754 -0.064690
  1Br  3pz       -0.225513 -0.011877 -0.027098  0.002595  0.060420 -0.044105
  1Br  3px        0.225513  0.011877  0.027098  0.002595 -0.060420  0.044105
  1Br  3py       -0.192618 -0.083391 -0.012572  0.000000  0.064541  0.137851
  1Br  4pz       -0.395440 -0.010985 -0.021617 -0.043301  0.078281 -0.043306
  1Br  4px        0.395440  0.010985  0.021617 -0.043301 -0.078281  0.043306
  1Br  4py       -0.318349 -0.145021  0.040542 -0.000000  0.027273  0.054537
  1Br  1dz2      -0.002767  0.008006 -0.006065 -0.016453  0.008820 -0.046676
  1Br  1dxz       0.026097 -0.004058 -0.001821  0.000000 -0.035122  0.045045
  1Br  1dyz      -0.021847 -0.008744  0.005684 -0.000266  0.026909  0.037753
  1Br  1dx2y2    -0.004792  0.013867 -0.010506  0.009499  0.015277 -0.080845
  1Br  1dxy       0.021847  0.008744 -0.005684 -0.000266 -0.026909 -0.037753
  1Br  2dz2       0.000349  0.000126 -0.000018  0.000080  0.000350 -0.002986
  1Br  2dxz      -0.003103  0.000168 -0.001185 -0.000000 -0.000487  0.000907
  1Br  2dyz       0.001856  0.001013 -0.000285  0.001261  0.001712  0.002554
  1Br  2dx2y2     0.000605  0.000219 -0.000031 -0.000046  0.000607 -0.005173
  1Br  2dxy      -0.001856 -0.001013  0.000285  0.001261 -0.001712 -0.002554
  1Br  3dz2       0.004228 -0.019245  0.015010  0.041449 -0.029448  0.164392
  1Br  3dxz      -0.041344  0.009296  0.011117  0.000000  0.113264 -0.147854
  1Br  3dyz       0.038274  0.014594 -0.013079 -0.005846 -0.093643 -0.134657
  1Br  3dx2y2     0.007323 -0.033334  0.025998 -0.023931 -0.051005  0.284735
  1Br  3dxy      -0.038274 -0.014594  0.013079 -0.005846  0.093643  0.134657
  2Cl  1s        -0.003105  0.023748 -0.009983  0.000000 -0.010931 -0.012178
  2Cl  2s         0.020153 -0.157724  0.069002 -0.000000  0.079951  0.091024
  2Cl  3s        -0.018159  0.207607 -0.162106  0.000000 -0.297226 -0.289625
  2Cl  4s        -0.074361  0.601858 -0.036184  0.000000  0.383421 -0.372847
  2Cl  1pz        0.052672 -0.104927  0.021106 -0.011969  0.014277 -0.002413
  2Cl  1px       -0.052672  0.104927 -0.021106 -0.011969 -0.014277  0.002413
  2Cl  1py        0.029818  0.112560 -0.007907 -0.000000  0.008593  0.030721
  2Cl  2pz        0.091237 -0.177732  0.038572 -0.015822  0.040557  0.006017
  2Cl  2px       -0.091237  0.177732 -0.038572 -0.015822 -0.040557 -0.006017
  2Cl  2py        0.052326  0.192253 -0.019013 -0.000000  0.026382  0.061693
  2Cl  3pz        0.173496 -0.481273  0.099062 -0.095918 -0.068564  0.185713
  2Cl  3px       -0.173496  0.481273 -0.099062 -0.095918  0.068564 -0.185713
  2Cl  3py        0.093858  0.500147 -0.012543  0.000000 -0.000100 -0.129078
  2Cl  1dz2       0.020332  0.003901  0.016672 -0.060028 -0.014493  0.016570
  2Cl  1dxz      -0.029908  0.067176 -0.000164 -0.000000 -0.022563  0.132707
  2Cl  1dyz      -0.000529  0.071768  0.007905  0.010559 -0.001928  0.168941
  2Cl  1dx2y2     0.035216  0.006756  0.028878  0.034657 -0.025102  0.028700
  2Cl  1dxy       0.000529 -0.071768 -0.007905  0.010559  0.001928 -0.168941
  3H   1s        -0.043504  0.024642  0.154095  0.197572 -0.160739  0.269103
  3H   2s        -0.109487  0.246732  1.336968  1.464345 -0.092731 -0.297234
  3H   1pz       -0.011244 -0.011425 -0.013272 -0.005308  0.007203  0.002549
  3H   1px        0.005205  0.015358 -0.016585 -0.005993  0.016757 -0.002183
  3H   1py       -0.010714  0.008024 -0.001053  0.016831 -0.009086 -0.008893
  4H   1s        -0.043504  0.024642  0.154095 -0.197572 -0.160739  0.269103
  4H   2s        -0.109487  0.246732  1.336968 -1.464345 -0.092731 -0.297234
  4H   1pz       -0.005205 -0.015358  0.016585 -0.005993 -0.016757  0.002183
  4H   1px        0.011244  0.011425  0.013272 -0.005308 -0.007203 -0.002549
  4H   1py       -0.010714  0.008024 -0.001053 -0.016831 -0.009086 -0.008893
                     36        37        38        39        40        41   
                   0.30586   0.36776   0.43544   0.44223   0.45075   0.46347
                   0.00000   0.00000   0.00000   0.00000   0.00000   0.00000
                  --------  --------  --------  --------  --------  --------
  0C   1s         0.000000 -0.012774 -0.001020 -0.000000  0.089932 -0.093459
  0C   2s        -0.000000 -0.089934 -0.014803  0.000000 -0.540404  0.589103
  0C   3s         0.000000  0.381758  0.297351 -0.000000  1.287996 -0.968768
  0C   1pz       -0.185892 -0.288085 -0.070694 -0.142137  0.122110 -0.287759
  0C   1px       -0.185892  0.288085  0.070694 -0.142137 -0.122110  0.287759
  0C   1py        0.000000 -0.131549  0.020743  0.000000 -0.026567 -0.243176
  0C   2pz        0.635101  0.552344  0.332058  0.187524 -0.047431  0.590867
  0C   2px        0.635101 -0.552344 -0.332058  0.187524  0.047431 -0.590867
  0C   2py       -0.000000  0.701611 -0.106598 -0.000000 -0.018688  0.359594
  0C   1dz2      -0.010427  0.001406  0.006198  0.001228 -0.001729 -0.011819
  0C   1dxz       0.000000 -0.074269 -0.043275 -0.000000 -0.023662 -0.022636
  0C   1dyz      -0.063136  0.054004  0.021491  0.019311  0.028919 -0.008283
  0C   1dx2y2     0.006020  0.002436  0.010735 -0.000709 -0.002995 -0.020470
  0C   1dxy      -0.063136 -0.054004 -0.021491  0.019311 -0.028919  0.008283
  1Br  1s        -0.000000 -0.001477  0.004982  0.000000  0.005711  0.000905
  1Br  2s         0.000000  0.003539 -0.012205 -0.000000 -0.014199 -0.001775
  1Br  3s        -0.000000 -0.022108  0.073251  0.000000  0.083178  0.014995
  1Br  4s         0.000000  0.014335 -0.274428 -0.000000 -0.228258 -0.203795
  1Br  5s        -0.000000  0.284251  0.333766 -0.000000  0.026942  0.662618
  1Br  1pz       -0.017786 -0.007368  0.025886  0.003587  0.044747 -0.008986
  1Br  1px       -0.017786  0.007368 -0.025886  0.003587 -0.044747  0.008986
  1Br  1py        0.000000  0.002204  0.002854  0.000000  0.023828 -0.045074
  1Br  2pz        0.056343  0.023352 -0.083509 -0.011574 -0.144407  0.029175
  1Br  2px        0.056343 -0.023352  0.083509 -0.011574  0.144407 -0.029175
  1Br  2py       -0.000000 -0.007467 -0.009216 -0.000000 -0.076940  0.145461
  1Br  3pz       -0.122567 -0.061429  0.232422  0.033036  0.410577 -0.100066
  1Br  3px       -0.122567  0.061429 -0.232422  0.033036 -0.410577  0.100066
  1Br  3py        0.000000  0.025580  0.023110  0.000000  0.221823 -0.418731
  1Br  4pz       -0.034692  0.207984 -0.163809 -0.036820 -0.456137  0.355872
  1Br  4px       -0.034692 -0.207984  0.163809 -0.036820  0.456137 -0.355872
  1Br  4py        0.000000  0.095932  0.037530 -0.000000 -0.280584  0.582026
  1Br  1dz2      -0.096225  0.007952 -0.077150 -0.115639  0.015837 -0.018410
  1Br  1dxz       0.000000  0.054561 -0.070056 -0.000000  0.189174  0.030666
  1Br  1dyz      -0.046355 -0.040506 -0.086584  0.143384 -0.019635  0.109221
  1Br  1dx2y2     0.055555  0.013773 -0.133628  0.066764  0.027430 -0.031887
  1Br  1dxy      -0.046355  0.040506  0.086584  0.143384  0.019635 -0.109221
  1Br  2dz2      -0.008147 -0.000384 -0.004955 -0.007258  0.001781 -0.001652
  1Br  2dxz       0.000000  0.016328 -0.006764 -0.000000  0.005758  0.015430
  1Br  2dyz      -0.003156 -0.011175 -0.009258  0.011804  0.004710 -0.005627
  1Br  2dx2y2     0.004704 -0.000664 -0.008583  0.004190  0.003085 -0.002861
  1Br  2dxy      -0.003156  0.011175  0.009258  0.011804 -0.004710  0.005627
  1Br  3dz2       0.351476 -0.024002  0.302754  0.454664 -0.066950  0.077371
  1Br  3dxz      -0.000000 -0.284453  0.281543  0.000000 -0.713694 -0.208254
  1Br  3dyz       0.165746  0.208648  0.363206 -0.578713  0.043756 -0.358212
  1Br  3dx2y2    -0.202925 -0.041572  0.524386 -0.262500 -0.115960  0.134010
  1Br  3dxy       0.165746 -0.208648 -0.363206 -0.578713 -0.043756  0.358212
  2Cl  1s        -0.000000 -0.034199  0.029542 -0.000000  0.024517  0.033210
  2Cl  2s         0.000000  0.252243 -0.221079  0.000000 -0.183112 -0.247710
  2Cl  3s        -0.000000 -0.899648  0.904654 -0.000000  0.738162  0.961485
  2Cl  4s        -0.000000  0.628787 -1.194818  0.000000 -0.922054 -1.025997
  2Cl  1pz       -0.034844 -0.018778 -0.001521 -0.002421  0.015315  0.021441
  2Cl  1px       -0.034844  0.018778  0.001521 -0.002421 -0.015315 -0.021441
  2Cl  1py        0.000000 -0.028178 -0.033419  0.000000 -0.012369 -0.020379
  2Cl  2pz       -0.073669 -0.036292 -0.012588 -0.007182  0.038350  0.062563
  2Cl  2px       -0.073669  0.036292  0.012588 -0.007182 -0.038350 -0.062563
  2Cl  2py        0.000000 -0.060339 -0.079232  0.000000 -0.026907 -0.037673
  2Cl  3pz       -0.129178 -0.016157  0.131650 -0.008573  0.075133 -0.038424
  2Cl  3px       -0.129178  0.016157 -0.131650 -0.008573 -0.075133  0.038424
  2Cl  3py       -0.000000 -0.199725 -0.136972  0.000000 -0.075804 -0.158368
  2Cl  1dz2      -0.131542 -0.098521 -0.047760  0.006836 -0.018093 -0.065101
  2Cl  1dxz       0.000000  0.152176  0.036654  0.000000 -0.004791 -0.021124
  2Cl  1dyz       0.059104  0.032882 -0.053377 -0.014794 -0.040111 -0.070864
  2Cl  1dx2y2     0.075946 -0.170643 -0.082723 -0.003947 -0.031338 -0.112759
  2Cl  1dxy       0.059104 -0.032882  0.053377 -0.014794  0.040111  0.070864
  3H   1s         0.559262 -0.496433 -0.104037 -0.127576  0.080472 -0.138404
  3H   2s        -0.198572  0.002554  0.088141  0.253116 -0.309496  0.279835
  3H   1pz        0.022441  0.032677  0.008177  0.008467 -0.002253 -0.003739
  3H   1px        0.008383  0.007332  0.006049  0.018396 -0.027274  0.031817
  3H   1py        0.014525  0.011114  0.009586 -0.028178  0.032408  0.015597
  4H   1s        -0.559262 -0.496433 -0.104037  0.127576  0.080472 -0.138404
  4H   2s         0.198572  0.002554  0.088141 -0.253116 -0.309496  0.279835
  4H   1pz        0.008383 -0.007332 -0.006049  0.018396  0.027274 -0.031817
  4H   1px        0.022441 -0.032677 -0.008177  0.008467  0.002253  0.003739
  4H   1py       -0.014525  0.011114  0.009586  0.028178  0.032408  0.015597
                     42        43        44        45        46        47   
                   0.47337   0.49583   0.55273   0.55357   0.56327   0.57425
                   0.00000   0.00000   0.00000   0.00000   0.00000   0.00000
                  --------  --------  --------  --------  --------  --------
  0C   1s         0.000000  0.093056 -0.000000  0.142083  0.000000  0.028089
  0C   2s        -0.000000 -0.614584  0.000000 -0.953604 -0.000000 -0.181953
  0C   3s         0.000000  1.865578 -0.000000  2.426420  0.000000  0.387380
  0C   1pz       -0.181626 -0.261797 -0.497813  0.119431 -0.314422  0.122468
  0C   1px       -0.181626  0.261797 -0.497813 -0.119431 -0.314422 -0.122468
  0C   1py        0.000000 -0.495369  0.000000 -0.520143 -0.000000 -0.137864
  0C   2pz        0.138000  0.640068  1.030516 -0.381833  0.541629 -0.335737
  0C   2px        0.138000 -0.640068  1.030516  0.381834  0.541629  0.335737
  0C   2py       -0.000000  0.592269 -0.000000  1.187983  0.000000  0.693427
  0C   1dz2      -0.072146  0.020989  0.075451 -0.010102 -0.050955 -0.050766
  0C   1dxz      -0.000000  0.068090 -0.000000  0.042646  0.000000 -0.021968
  0C   1dyz       0.067263  0.014972  0.040291 -0.023039  0.047923 -0.012487
  0C   1dx2y2     0.041653  0.036354 -0.043561 -0.017498  0.029419 -0.087930
  0C   1dxy       0.067263 -0.014972  0.040291  0.023039  0.047923  0.012487
  1Br  1s         0.000000  0.003920 -0.000000  0.000335  0.000000 -0.000335
  1Br  2s        -0.000000 -0.009255  0.000000 -0.000880 -0.000000  0.000788
  1Br  3s         0.000000  0.059029 -0.000000  0.004723  0.000000 -0.005044
  1Br  4s        -0.000000 -0.300000 -0.000000  0.025274 -0.000000  0.034201
  1Br  5s        -0.000000  0.543625  0.000000 -0.179248 -0.000000 -0.087134
  1Br  1pz        0.033667 -0.012847  0.038301  0.016750 -0.085448 -0.050803
  1Br  1px        0.033667  0.012847  0.038301 -0.016750 -0.085448  0.050803
  1Br  1py        0.000000  0.042908  0.000000 -0.053941 -0.000000  0.085356
  1Br  2pz       -0.108457  0.041529 -0.124038 -0.054025  0.276292  0.164512
  1Br  2px       -0.108457 -0.041529 -0.124038  0.054025  0.276292 -0.164512
  1Br  2py       -0.000000 -0.138175 -0.000000  0.174087  0.000000 -0.276449
  1Br  3pz        0.296925 -0.124007  0.363651  0.152398 -0.785300 -0.475907
  1Br  3px        0.296925  0.124007  0.363651 -0.152398 -0.785300  0.475907
  1Br  3py        0.000000  0.370216  0.000000 -0.476522 -0.000000  0.806601
  1Br  4pz       -0.227704  0.235809 -0.394575 -0.186882  0.673996  0.432714
  1Br  4px       -0.227704 -0.235809 -0.394575  0.186882  0.673996 -0.432714
  1Br  4py       -0.000000 -0.152077 -0.000000  0.248470  0.000000 -0.832848
  1Br  1dz2      -0.116560  0.046450  0.070190 -0.046625  0.021220 -0.041676
  1Br  1dxz       0.000000 -0.075161 -0.000000  0.000847 -0.000000  0.034502
  1Br  1dyz      -0.085737 -0.013321  0.001190  0.022642 -0.008228  0.012699
  1Br  1dx2y2     0.067296  0.080454 -0.040524 -0.080757 -0.012251 -0.072184
  1Br  1dxy      -0.085737  0.013321  0.001190 -0.022642 -0.008228 -0.012699
  1Br  2dz2      -0.006220  0.001703  0.008937 -0.003451  0.002643 -0.002464
  1Br  2dxz      -0.000000  0.002328  0.000000 -0.000221 -0.000000  0.002385
  1Br  2dyz      -0.005486 -0.006977  0.004153  0.007205  0.000803  0.004288
  1Br  2dx2y2     0.003591  0.002949 -0.005160 -0.005976 -0.001526 -0.004268
  1Br  2dxy      -0.005486  0.006977  0.004153 -0.007205  0.000803 -0.004288
  1Br  3dz2       0.463761 -0.183456 -0.324292  0.202338 -0.100132  0.179462
  1Br  3dxz      -0.000000  0.262530  0.000000  0.003133  0.000000 -0.147458
  1Br  3dyz       0.345437  0.093963 -0.027045 -0.133649  0.027123 -0.075490
  1Br  3dx2y2    -0.267752 -0.317755  0.187230  0.350461  0.057811  0.310838
  1Br  3dxy       0.345437 -0.093963 -0.027045  0.133649  0.027123  0.075490
  2Cl  1s        -0.000000  0.017342  0.000000 -0.025004 -0.000000  0.004797
  2Cl  2s         0.000000 -0.130057 -0.000000  0.188075  0.000000 -0.035881
  2Cl  3s        -0.000000  0.562647  0.000000 -0.771861 -0.000000  0.104645
  2Cl  4s        -0.000000 -1.005745 -0.000000  1.008314  0.000000  0.219761
  2Cl  1pz        0.038413  0.013991 -0.000861 -0.034535  0.013441  0.034840
  2Cl  1px        0.038413 -0.013991 -0.000861  0.034535  0.013441 -0.034840
  2Cl  1py        0.000000 -0.024147 -0.000000  0.045887  0.000000  0.057471
  2Cl  2pz        0.103119  0.041832  0.011777 -0.097969  0.040258  0.105738
  2Cl  2px        0.103119 -0.041832  0.011777  0.097969  0.040258 -0.105738
  2Cl  2py        0.000000 -0.060026 -0.000000  0.139393  0.000000  0.177648
  2Cl  3pz       -0.022748  0.094301 -0.135153 -0.054569 -0.058368 -0.190231
  2Cl  3px       -0.022748 -0.094301 -0.135153  0.054569 -0.058368  0.190231
  2Cl  3py       -0.000000 -0.219749  0.000000 -0.056798 -0.000000 -0.049514
  2Cl  1dz2       0.205909 -0.064743 -0.365276 -0.043213  0.012253  0.000388
  2Cl  1dxz       0.000000  0.049419  0.000000 -0.053951 -0.000000 -0.315444
  2Cl  1dyz      -0.134834  0.041282  0.126480 -0.015182 -0.178495  0.039025
  2Cl  1dx2y2    -0.118882 -0.112138  0.210892 -0.074847 -0.007074  0.000672
  2Cl  1dxy      -0.134834 -0.041282  0.126480  0.015182 -0.178495 -0.039025
  3H   1s        -0.424341  0.389389 -0.228017  0.224546 -0.292215 -0.151673
  3H   2s         0.625145 -0.996196  1.107453 -1.308718  0.901596 -0.182006
  3H   1pz        0.029616 -0.053054  0.021604 -0.063841  0.064264  0.012173
  3H   1px       -0.011456 -0.074909  0.077069 -0.021809 -0.007609  0.036553
  3H   1py       -0.054174  0.001438 -0.067967  0.051647 -0.034988  0.086091
  4H   1s         0.424341  0.389389  0.228017  0.224546  0.292215 -0.151673
  4H   2s        -0.625145 -0.996196 -1.107453 -1.308718 -0.901596 -0.182006
  4H   1pz       -0.011456  0.074909  0.077069  0.021809 -0.007609 -0.036553
  4H   1px        0.029616  0.053054  0.021604  0.063841  0.064264 -0.012173
  4H   1py        0.054174  0.001438  0.067967  0.051647  0.034988  0.086091
                     48        49        50        51        52        53   
                   0.64442   0.66511   0.66634   0.67396   0.70270   0.73807
                   0.00000   0.00000   0.00000   0.00000   0.00000   0.00000
                  --------  --------  --------  --------  --------  --------
  0C   1s         0.111099  0.000000  0.038436 -0.082493  0.127753  0.000000
  0C   2s        -0.971452 -0.000000 -0.260887  0.848436 -0.837680 -0.000000
  0C   3s         2.081251  0.000000  0.313265 -2.458114  1.920615  0.000000
  0C   1pz        0.175126  0.101237  0.178054  0.053611 -0.197521 -0.177018
  0C   1px       -0.175126  0.101237 -0.178054 -0.053611  0.197521 -0.177018
  0C   1py        0.219454  0.000000  0.061733  0.067290  0.369721  0.000000
  0C   2pz        0.103243 -0.177691 -0.302123 -0.223241  0.528164  0.627204
  0C   2px       -0.103243 -0.177690  0.302123  0.223241 -0.528164  0.627204
  0C   2py       -0.157303 -0.000000  0.023124 -0.377053 -0.662690 -0.000000
  0C   1dz2      -0.000586 -0.020257  0.051201  0.047401  0.017628 -0.033084
  0C   1dxz       0.019762  0.000000  0.010109 -0.018740 -0.085463 -0.000000
  0C   1dyz       0.036676 -0.029227  0.016390  0.009348 -0.088166  0.004669
  0C   1dx2y2    -0.001014  0.011695  0.088683  0.082101  0.030532  0.019101
  0C   1dxy      -0.036676 -0.029227 -0.016390 -0.009348  0.088166  0.004669
  1Br  1s         0.003207  0.000000  0.001728 -0.000914  0.001334  0.000000
  1Br  2s        -0.007910 -0.000000 -0.004302  0.002473 -0.003409 -0.000000
  1Br  3s         0.047022  0.000000  0.025157 -0.012548  0.019105  0.000000
  1Br  4s        -0.096743 -0.000000 -0.044046 -0.016104 -0.008198  0.000000
[...]



------------------- 
Dispersion Gradient 
------------------- 
   1  :   -0.000013007    0.000200306    0.000010433
   2  :    0.000917897   -0.000326920   -0.000918057
   3  :   -0.000886868   -0.000280643    0.000886734
   4  :   -0.000165315    0.000215487   -0.000157069
   5  :    0.000156143    0.000214469    0.000164393

  |G| =    0.005513740


The revPBE functional is recognized
Active option DFTDOPT                   ...         5   



------------------- 
Dispersion Gradient 
------------------- 
   1  :   -0.000010144    0.000200482    0.000012721
   2  :    0.000919351   -0.000327913   -0.000919188
   3  :   -0.000885780   -0.000279931    0.000885912
   4  :   -0.000164493    0.000214501   -0.000156118
   5  :    0.000157050    0.000215520    0.000165413

  |G| =    0.005514517


The revPBE functional is recognized
Active option DFTDOPT                   ...         5   



------------------- 
Dispersion Gradient 
------------------- 
   1  :   -0.000010738    0.000200862    0.000012142
   2  :    0.000918454   -0.000327346   -0.000918595
   3  :   -0.000886916   -0.000280637    0.000886445
   4  :   -0.000165020    0.000215072   -0.000156558
   5  :    0.000157939    0.000215858    0.000165190

  |G| =    0.005517774


The revPBE functional is recognized
Active option DFTDOPT                   ...         5   



------------------- 
Dispersion Gradient 
------------------- 
   1  :   -0.000012392    0.000199915    0.000011029
   2  :    0.000918783   -0.000327479   -0.000918642
   3  :   -0.000885724   -0.000279930    0.000886195
   4  :   -0.000164773    0.000214905   -0.000156618
   5  :    0.000155254    0.000214131    0.000164617

  |G| =    0.005510387


Dispersion correction Hessian from Numerical Differentiation: 
                  0          1          2          3          4          5    
      0      -0.000286   0.000000   0.000000   0.000000   0.000000   0.000000
      1       0.000000   0.000000   0.000000   0.000000   0.000000   0.000000
      2       0.000000   0.000000   0.000000   0.000000   0.000000   0.000000
      3       0.000000   0.000000   0.000000   0.000000   0.000000   0.000000
      4       0.000000   0.000000   0.000000   0.000000   0.000000   0.000000
      5       0.000000   0.000000   0.000000   0.000000   0.000000   0.000000
      6       0.000000   0.000000   0.000000   0.000000   0.000000   0.000000
      7       0.000000   0.000000   0.000000   0.000000   0.000000   0.000000
      8       0.000000   0.000000   0.000000   0.000000   0.000000   0.000000
      9       0.000000   0.000000   0.000000   0.000000   0.000000   0.000000
     10       0.000000   0.000000   0.000000   0.000000   0.000000   0.000000
     11       0.000000   0.000000   0.000000   0.000000   0.000000   0.000000
     12       0.000165   0.000095   0.000111  -0.000033   0.000013   0.000005
     13       0.000000   0.000000   0.000000   0.000000   0.000000   0.000000
     14       0.000000   0.000000   0.000000   0.000000   0.000000   0.000000
                  6          7          8          9         10         11    
      0       0.000000   0.000000   0.000000   0.000000   0.000000   0.000000
      1       0.000000   0.000000   0.000000   0.000000   0.000000   0.000000
      2       0.000000   0.000000   0.000000   0.000000   0.000000   0.000000
      3       0.000000   0.000000   0.000000   0.000000   0.000000   0.000000
      4       0.000000   0.000000   0.000000   0.000000   0.000000   0.000000
      5       0.000000   0.000000   0.000000   0.000000   0.000000   0.000000
      6       0.000000   0.000000   0.000000   0.000000   0.000000   0.000000
      7       0.000000   0.000000   0.000000   0.000000   0.000000   0.000000
      8       0.000000   0.000000   0.000000   0.000000   0.000000   0.000000
      9       0.000000   0.000000   0.000000   0.000000   0.000000   0.000000
     10       0.000000   0.000000   0.000000   0.000000   0.000000   0.000000
     11       0.000000   0.000000   0.000000   0.000000   0.000000   0.000000
     12      -0.000119  -0.000071   0.000025  -0.000025   0.000017   0.000006
     13       0.000000   0.000000   0.000000   0.000000   0.000000   0.000000
     14       0.000000   0.000000   0.000000   0.000000   0.000000   0.000000
                  12         13         14    
      0       0.000165   0.000000   0.000000
      1       0.000095   0.000000   0.000000
      2       0.000111   0.000000   0.000000
      3      -0.000033   0.000000   0.000000
      4       0.000013   0.000000   0.000000
      5       0.000005   0.000000   0.000000
      6      -0.000119   0.000000   0.000000
      7      -0.000071   0.000000   0.000000
      8       0.000025   0.000000   0.000000
      9      -0.000025   0.000000   0.000000
     10       0.000017   0.000000   0.000000
     11       0.000006   0.000000   0.000000
     12       0.000268   0.000000   0.000000
     13       0.000000   0.000000   0.000000
     14       0.000000   0.000000   0.000000

done   (      0.3 sec)
gCP correction in the Hessian                    ...  
-----------------
gCP hessian 
from Numerical Differentiation: 
-----------------
                  0          1          2          3          4          5    
      0      -0.000119  -0.000174  -0.000131  -0.000158   0.000759   0.000846
      1      -0.000174  -0.000419   0.000174   0.000759   0.000008  -0.000759
      2      -0.000131   0.000174  -0.000119   0.000846  -0.000759  -0.000158
      3      -0.000158   0.000759   0.000846   0.000593  -0.001904  -0.001726
      4       0.000759   0.000008  -0.000759  -0.001904   0.000698   0.001904
      5       0.000846  -0.000759  -0.000158  -0.001726   0.001904   0.000593
      6      -0.000089  -0.000573   0.000599  -0.000191   0.000008   0.000326
      7      -0.000573  -0.000038   0.000573   0.000008   0.000135  -0.000008
      8       0.000599   0.000573  -0.000089   0.000326  -0.000008  -0.000191
      9       0.000196   0.000630  -0.000657  -0.000559   0.000881   0.000277
     10       0.000630   0.000225   0.000642   0.000881  -0.000421  -0.000256
     11      -0.000657   0.000642   0.000170   0.000277  -0.000256   0.000314
     12       0.000170  -0.000642  -0.000657   0.000314   0.000256   0.000277
     13      -0.000642   0.000225  -0.000630   0.000256  -0.000421  -0.000881
     14      -0.000657  -0.000630   0.000196   0.000277  -0.000881  -0.000559
                  6          7          8          9         10         11    
      0      -0.000089  -0.000573   0.000599   0.000196   0.000630  -0.000657
      1      -0.000573  -0.000038   0.000573   0.000630   0.000225   0.000642
      2       0.000599   0.000573  -0.000089  -0.000657   0.000642   0.000170
      3      -0.000191   0.000008   0.000326  -0.000559   0.000881   0.000277
      4       0.000008   0.000135  -0.000008   0.000881  -0.000421  -0.000256
      5       0.000326  -0.000008  -0.000191   0.000277  -0.000256   0.000314
      6       0.000376   0.001159  -0.001165   0.000188  -0.000115   0.000120
      7       0.001159   0.000388  -0.001159  -0.000115  -0.000242   0.000480
      8      -0.001165  -0.001159   0.000376   0.000120   0.000480  -0.000284
      9       0.000188  -0.000115   0.000120   0.000220  -0.001396   0.000365
     10      -0.000115  -0.000242   0.000480  -0.001396   0.000380  -0.000866
     11       0.000120   0.000480  -0.000284   0.000365  -0.000866  -0.000154
     12      -0.000284  -0.000480   0.000120  -0.000046   0.000000  -0.000104
     13      -0.000480  -0.000242   0.000115   0.000000   0.000058   0.000000
     14       0.000120   0.000115   0.000188  -0.000104   0.000000  -0.000046
                  12         13         14    
      0       0.000170  -0.000642  -0.000657
      1      -0.000642   0.000225  -0.000630
      2      -0.000657  -0.000630   0.000196
      3       0.000314   0.000256   0.000277
      4       0.000256  -0.000421  -0.000881
      5       0.000277  -0.000881  -0.000559
      6      -0.000284  -0.000480   0.000120
      7      -0.000480  -0.000242   0.000115
      8       0.000120   0.000115   0.000188
      9      -0.000046   0.000000  -0.000104
     10       0.000000   0.000058   0.000000
     11      -0.000104   0.000000  -0.000046
     12      -0.000154   0.000866   0.000365
     13       0.000866   0.000380   0.001396
     14       0.000365   0.001396   0.000220

done   (      0.0 sec)
Dipol derivatives                                ... done   (      0.2 sec)

-------
TIMINGS
-------

Total SCF Hessian time: 0 days 0 hours 0 min 9 sec 
                   F(y)            G[Q(x)]           CPSCF         Total
Table01         0.6  0.06         0.4  0.04         4.2  0.43         9.9 
Table01a        0.6  0.06,        0.4, 0.04,        4.2  0.43         9.9 
Table01b        0.6   6.1,        0.4,  3.6,        4.2  42.6         9.9 

Writing the Hessian file to the disk             ... done


Maximum memory used throughout the entire calculation: 134.7 MB

-----------------------
VIBRATIONAL FREQUENCIES
-----------------------

Scaling factor for frequencies =  1.000000000  (already applied!)

   0:         0.00 cm**-1
   1:         0.00 cm**-1
   2:         0.00 cm**-1
   3:         0.00 cm**-1
   4:         0.00 cm**-1
   5:         0.00 cm**-1
   6:       214.64 cm**-1
   7:       559.89 cm**-1
   8:       694.89 cm**-1
   9:       825.21 cm**-1
  10:      1093.47 cm**-1
  11:      1197.76 cm**-1
  12:      1377.70 cm**-1
  13:      3007.04 cm**-1
  14:      3094.91 cm**-1


------------
NORMAL MODES
------------

These modes are the Cartesian displacements weighted by the diagonal matrix
M(i,i)=1/sqrt(m[i]) where m[i] is the mass of the displaced atom
Thus, these vectors are normalized but *not* orthogonal

                  0          1          2          3          4          5    
      0       0.000000   0.000000   0.000000   0.000000   0.000000   0.000000
      1       0.000000   0.000000   0.000000   0.000000   0.000000   0.000000
      2       0.000000   0.000000   0.000000   0.000000   0.000000   0.000000
      3       0.000000   0.000000   0.000000   0.000000   0.000000   0.000000
      4       0.000000   0.000000   0.000000   0.000000   0.000000   0.000000
      5       0.000000   0.000000   0.000000   0.000000   0.000000   0.000000
      6       0.000000   0.000000   0.000000   0.000000   0.000000   0.000000
      7       0.000000   0.000000   0.000000   0.000000   0.000000   0.000000
      8       0.000000   0.000000   0.000000   0.000000   0.000000   0.000000
      9       0.000000   0.000000   0.000000   0.000000   0.000000   0.000000
     10       0.000000   0.000000   0.000000   0.000000   0.000000   0.000000
     11       0.000000   0.000000   0.000000   0.000000   0.000000   0.000000
     12       0.000000   0.000000   0.000000   0.000000   0.000000   0.000000
     13       0.000000   0.000000   0.000000   0.000000   0.000000   0.000000
     14       0.000000   0.000000   0.000000   0.000000   0.000000   0.000000
                  6          7          8          9         10         11    
      0      -0.131214   0.305601  -0.382677   0.116430  -0.014141  -0.062091
      1      -0.380841  -0.485691  -0.427608   0.000000  -0.000000   0.014940
      2       0.131214  -0.305601   0.382678   0.116430  -0.014142   0.062091
      3       0.214590  -0.051610   0.001910  -0.006592  -0.002892  -0.001694
      4       0.015556   0.065545   0.004689   0.000000  -0.000000   0.004588
      5      -0.214590   0.051610  -0.001910  -0.006592  -0.002892   0.001694
      6      -0.434299  -0.000901   0.137660  -0.014227   0.010107  -0.003337
      7       0.116286   0.039873   0.155210  -0.000000   0.000000  -0.012251
      8       0.434299   0.000901  -0.137660  -0.014227   0.010107   0.003337
      9      -0.085194   0.279532  -0.184501  -0.108021   0.518249   0.469833
     10      -0.392517  -0.405290  -0.367718  -0.639361   0.067116  -0.055403
     11       0.085955  -0.201629   0.248732  -0.256410  -0.476026  -0.521655
     12      -0.085955   0.201630  -0.248734  -0.256412  -0.476029   0.521652
     13      -0.392517  -0.405291  -0.367715   0.639362  -0.067115  -0.055402
     14       0.085194  -0.279532   0.184501  -0.108020   0.518251  -0.469830
                  12         13         14    
      0       0.007899  -0.000770   0.070600
      1       0.077133  -0.064506   0.000000
      2      -0.007899   0.000771   0.070600
      3      -0.001012   0.000034  -0.000073
      4       0.001020   0.000072  -0.000000
      5       0.001012  -0.000034  -0.000073
      6       0.002290  -0.000065  -0.000211
      7       0.003891   0.000180   0.000000
      8      -0.002290   0.000065  -0.000211
      9      -0.338235  -0.416815  -0.410722
     10      -0.568420   0.378286   0.390149
     11      -0.243813  -0.425541  -0.417259
     12       0.243812   0.425540  -0.417260
     13      -0.568420   0.378285  -0.390150
     14       0.338236   0.416814  -0.410723


-----------
IR SPECTRUM
-----------

 Mode    freq (cm**-1)   T**2         TX         TY         TZ
-------------------------------------------------------------------
   6:       214.64    0.237824  ( -0.164024  -0.428971   0.164024)
   7:       559.89   50.170298  (  4.781765  -2.107074  -4.781764)
   8:       694.89   93.030306  ( -6.702650  -1.783060   6.702648)
   9:       825.21    3.144595  ( -1.253901   0.000000  -1.253925)
  10:      1093.47    0.007433  ( -0.060951  -0.000002  -0.060978)
  11:      1197.76   48.024127  ( -4.876080   0.686912   4.876077)
  12:      1377.70    0.001588  ( -0.020806   0.026870   0.020806)
  13:      3007.04    5.361885  ( -0.158397  -2.304714   0.158397)
  14:      3094.91    0.002691  (  0.036680   0.000004   0.036678)

The first frequency considered to be a vibration is 6
The total number of vibrations considered is 9


--------------------------
THERMOCHEMISTRY AT 298.15K
--------------------------

Temperature         ... 298.15 K
Pressure            ... 1.00 atm
Total Mass          ... 129.38 AMU

Throughout the following assumptions are being made:
  (1) The electronic state is orbitally nondegenerate
  (2) There are no thermally accessible electronically excited states
  (3) Hindered rotations indicated by low frequency modes are not
      treated as such but are treated as vibrations and this may
      cause some error
  (4) All equations used are the standard statistical mechanics
      equations for an ideal gas
  (5) All vibrations are strictly harmonic

freq.     214.64  E(vib)   ...       0.34 
freq.     559.89  E(vib)   ...       0.12 
freq.     694.89  E(vib)   ...       0.07 
freq.     825.21  E(vib)   ...       0.04 
freq.    1093.47  E(vib)   ...       0.02 
freq.    1197.76  E(vib)   ...       0.01 
freq.    1377.70  E(vib)   ...       0.01 
freq.    3007.04  E(vib)   ...       0.00 
freq.    3094.91  E(vib)   ...       0.00 

------------
INNER ENERGY
------------

The inner energy is: U= E(el) + E(ZPE) + E(vib) + E(rot) + E(trans)
    E(el)   - is the total energy from the electronic structure calculation
              = E(kin-el) + E(nuc-el) + E(el-el) + E(nuc-nuc)
    E(ZPE)  - the the zero temperature vibrational energy from the frequency calculation
    E(vib)  - the the finite temperature correction to E(ZPE) due to population
              of excited vibrational states
    E(rot)  - is the rotational thermal energy
    E(trans)- is the translational thermal energy

Summary of contributions to the inner energy U:
Electronic energy                ...  -3072.84605831 Eh
Zero point energy                ...      0.02748724 Eh      17.25 kcal/mol
Thermal vibrational correction   ...      0.00095845 Eh       0.60 kcal/mol
Thermal rotational correction    ...      0.00141627 Eh       0.89 kcal/mol
Thermal translational correction ...      0.00141627 Eh       0.89 kcal/mol
-----------------------------------------------------------------------
Total thermal energy                  -3072.81478008 Eh


Summary of corrections to the electronic energy:
(perhaps to be used in another calculation)
Total thermal correction                  0.00379099 Eh       2.38 kcal/mol
Non-thermal (ZPE) correction              0.02748724 Eh      17.25 kcal/mol
-----------------------------------------------------------------------
Total correction                          0.03127823 Eh      19.63 kcal/mol


--------
ENTHALPY
--------

The enthalpy is H = U + kB*T
                kB is Boltzmann's constant
Total free energy                 ...  -3072.81478008 Eh 
Thermal Enthalpy correction       ...      0.00094421 Eh       0.59 kcal/mol
-----------------------------------------------------------------------
Total Enthalpy                    ...  -3072.81383587 Eh


Note: Rotational entropy computed according to Herzberg 
Infrared and Raman Spectra, Chapter V,1, Van Nostrand Reinhold, 1945 
Point Group:  Cs, Symmetry Number:   1  
Rotational constants in cm-1:     0.956763     0.066534     0.062993 

Vibrational entropy computed according to the QRRHO of S. Grimme
Chem.Eur.J. 2012 18 9955


-------
ENTROPY
-------

The entropy contributions are T*S = T*(S(el)+S(vib)+S(rot)+S(trans))
     S(el)   - electronic entropy
     S(vib)  - vibrational entropy
     S(rot)  - rotational entropy
     S(trans)- translational entropy
The entropies will be listed as mutliplied by the temperature to get
units of energy

Electronic entropy                ...      0.00000000 Eh      0.00 kcal/mol
Vibrational entropy               ...      0.00150080 Eh      0.94 kcal/mol
Rotational entropy                ...      0.01211627 Eh      7.60 kcal/mol
Translational entropy             ...      0.01923605 Eh     12.07 kcal/mol
-----------------------------------------------------------------------
Final entropy term                ...      0.03285312 Eh     20.62 kcal/mol

In case the symmetry of your molecule has not been determined correctly
or in case you have a reason to use a different symmetry number we print 
out the resulting rotational entropy values for sn=1,12 :
 --------------------------------------------------------
|  sn= 1 | S(rot)=       0.01211627 Eh      7.60 kcal/mol|
|  sn= 2 | S(rot)=       0.01146181 Eh      7.19 kcal/mol|
|  sn= 3 | S(rot)=       0.01107898 Eh      6.95 kcal/mol|
|  sn= 4 | S(rot)=       0.01080735 Eh      6.78 kcal/mol|
|  sn= 5 | S(rot)=       0.01059667 Eh      6.65 kcal/mol|
|  sn= 6 | S(rot)=       0.01042452 Eh      6.54 kcal/mol|
|  sn= 7 | S(rot)=       0.01027897 Eh      6.45 kcal/mol|
|  sn= 8 | S(rot)=       0.01015290 Eh      6.37 kcal/mol|
|  sn= 9 | S(rot)=       0.01004169 Eh      6.30 kcal/mol|
|  sn=10 | S(rot)=       0.00994221 Eh      6.24 kcal/mol|
|  sn=11 | S(rot)=       0.00985222 Eh      6.18 kcal/mol|
|  sn=12 | S(rot)=       0.00977006 Eh      6.13 kcal/mol|
 --------------------------------------------------------


-------------------
GIBBS FREE ENERGY
-------------------

The Gibbs free energy is G = H - T*S

Total enthalpy                    ...  -3072.81383587 Eh 
Total entropy correction          ...     -0.03285312 Eh    -20.62 kcal/mol
-----------------------------------------------------------------------
Final Gibbs free energy         ...  -3072.84668899 Eh

For completeness - the Gibbs free energy minus the electronic energy
G-E(el)                           ...     -0.00063068 Eh     -0.40 kcal/mol


Timings for individual modules:

Sum of individual times         ...       81.412 sec (=   1.357 min)
GTO integral calculation        ...        7.854 sec (=   0.131 min)   9.6 %
SCF iterations                  ...       48.493 sec (=   0.808 min)  59.6 %
SCF Gradient evaluation         ...       13.243 sec (=   0.221 min)  16.3 %
Geometry relaxation             ...        0.909 sec (=   0.015 min)   1.1 %
Analytical frequency calculation...       10.914 sec (=   0.182 min)  13.4 %
                             ****ORCA TERMINATED NORMALLY****
TOTAL RUN TIME: 0 days 0 hours 1 minutes 23 seconds 947 msec
