
                                 *****************
                                 * O   R   C   A *
                                 *****************

           --- An Ab Initio, DFT and Semiempirical electronic structure package ---

                  #######################################################
                  #                        -***-                        #
                  #          Department of theory and spectroscopy      #
                  #               Directorship: Frank Neese             #
                  #        Max Planck Institute fuer Kohlenforschung    #
                  #                Kaiser Wilhelm Platz 1               #
                  #                 D-45470 Muelheim/Ruhr               #
                  #                      Germany                        #
                  #                                                     #
                  #                  All rights reserved                #
                  #                        -***-                        #
                  #######################################################


                         Program Version 4.2.1 -  RELEASE  -


 With contributions from (in alphabetic order):
   Daniel Aravena         : Magnetic Suceptibility
   Michael Atanasov       : Ab Initio Ligand Field Theory (pilot matlab implementation)
   Alexander A. Auer      : GIAO ZORA, VPT2
   Ute Becker             : Parallelization
   Giovanni Bistoni       : ED, misc. LED, open-shell LED, HFLD
   Martin Brehm           : Molecular dynamics
   Dmytro Bykov           : SCF Hessian
   Vijay G. Chilkuri      : MRCI spin determinant printing, contributions to CSF-ICE
   Dipayan Datta          : RHF DLPNO-CCSD density
   Achintya Kumar Dutta   : EOM-CC, STEOM-CC
   Dmitry Ganyushin       : Spin-Orbit,Spin-Spin,Magnetic field MRCI
   Miquel Garcia          : C-PCM Hessian, Gaussian charge scheme
   Yang Guo               : DLPNO-NEVPT2, CIM, IAO-localization
   Andreas Hansen         : Spin unrestricted coupled pair/coupled cluster methods
   Benjamin Helmich-Paris : CASSCF linear response (MC-RPA)
   Lee Huntington         : MR-EOM, pCC
   Robert Izsak           : Overlap fitted RIJCOSX, COSX-SCS-MP3, EOM
   Christian Kollmar      : KDIIS, OOCD, Brueckner-CCSD(T), CCSD density
   Simone Kossmann        : Meta GGA functionals, TD-DFT gradient, OOMP2, MP2 Hessian
   Martin Krupicka        : AUTO-CI
   Lucas Lang             : DCDCAS
   Dagmar Lenk            : GEPOL surface, SMD
   Dimitrios Liakos       : Extrapolation schemes; Compound Job, initial MDCI parallelization
   Dimitrios Manganas     : Further ROCIS development; embedding schemes
   Dimitrios Pantazis     : SARC Basis sets
   Taras Petrenko         : DFT Hessian,TD-DFT gradient, ASA, ECA, R-Raman, ABS, FL, XAS/XES, NRVS
   Peter Pinski           : DLPNO-MP2, DLPNO-MP2 Gradient
   Christoph Reimann      : Effective Core Potentials
   Marius Retegan         : Local ZFS, SOC
   Christoph Riplinger    : Optimizer, TS searches, QM/MM, DLPNO-CCSD(T), (RO)-DLPNO pert. Triples
   Tobias Risthaus        : Range-separated hybrids, TD-DFT gradient, RPA, STAB
   Michael Roemelt        : Original ROCIS implementation
   Masaaki Saitow         : Open-shell DLPNO-CCSD energy and density
   Barbara Sandhoefer     : DKH picture change effects
   Avijit Sen             : IP-ROCIS
   Kantharuban Sivalingam : CASSCF convergence, NEVPT2, FIC-MRCI
   Bernardo de Souza      : ESD, SOC TD-DFT
   Georgi Stoychev        : AutoAux, RI-MP2 NMR
   Willem Van den Heuvel  : Paramagnetic NMR
   Boris Wezisla          : Elementary symmetry handling
   Frank Wennmohs         : Technical directorship


 We gratefully acknowledge several colleagues who have allowed us to
 interface, adapt or use parts of their codes:
   Stefan Grimme, W. Hujo, H. Kruse,             : VdW corrections, initial TS optimization,
                  C. Bannwarth                     DFT functionals, gCP, sTDA/sTD-DF
   Ed Valeev, F. Pavosevic, A. Kumar             : LibInt (2-el integral package), F12 methods
   Garnet Chan, S. Sharma, J. Yang, R. Olivares  : DMRG
   Ulf Ekstrom                                   : XCFun DFT Library
   Mihaly Kallay                                 : mrcc  (arbitrary order and MRCC methods)
   Andreas Klamt, Michael Diedenhofen            : otool_cosmo (COSMO solvation model)
   Jiri Pittner, Ondrej Demel                    : Mk-CCSD
   Frank Weinhold                                : gennbo (NPA and NBO analysis)
   Christopher J. Cramer and Donald G. Truhlar   : smd solvation model
   Lars Goerigk                                  : TD-DFT with DH, B97 family of functionals
   V. Asgeirsson, H. Jonsson                     : NEB implementation
   FAccTs GmbH                                   : IRC, NEB, NEB-TS, Multilevel, MM, QM/MM, CI optimization
   S Lehtola, MJT Oliveira, MAL Marques          : LibXC Library


 Your calculation uses the libint2 library for the computation of 2-el integrals
 For citations please refer to: http://libint.valeyev.net

 Your ORCA version has been built with support for libXC version: 4.2.3
 For citations please refer to: https://tddft.org/programs/libxc/

 This ORCA versions uses:
   CBLAS   interface :  Fast vector & matrix operations
   LAPACKE interface :  Fast linear algebra routines
   SCALAPACK package :  Parallel linear algebra routines


Your calculation utilizes the geometrical counterpoise correction gCP
Please cite in your paper:
H.Kruse, S. Grimme J.Chem.Phys., 136, (2012), 154101 
   

Your calculation utilizes the atom-pairwise dispersion correction
based on tight binding partial charges (D4)
Cite in your paper:
E.Caldeweyher, C.Bannwarth, S.Grimme, J.Chem.Phys., (2017), 147, 034112.
E.Caldeweyher, S.Ehlert, A.Hansen, H.Neugebauer, S.Grimme, J.Chem.Phys., (2018), in progress.
   

----- Orbital basis set information -----
Your calculation utilizes the basis: def2-SVP
   F. Weigend and R. Ahlrichs, Phys. Chem. Chem. Phys. 7, 3297 (2005).

----- AuxJ basis set information -----
Your calculation utilizes the auxiliary basis: def2/J
   F. Weigend, Phys. Chem. Chem. Phys. 8, 1057 (2006).

cite the ECPs for I  [Def2-ECP] as follows:
Ce-Yb(ecp-28): M. Dolg, H. Stoll, H.Preuss, J. Chem. Phys., 1989, 90, 1730-1734.
Y-Cd(ecp-28), Hf-Hg(ecp-46): D. Andrae,U. Haeussermann, M. Dolg, H. Stoll, H. Preuss, Theor. Chim. Acta, 1990, 77, 123-141.
In-Sb(ecp-28), Tl-Bi(ecp-46): B. Metz, H. Stoll, M. Dolg, J. Chem. Phys., 2000, 113, 2563-2569.
Te-Xe(ecp-28), Po-Rn(ecp-46): K. A. Peterson, D. Figgen, E. Goll, H. Stoll, M. Dolg, J. Chem. Phys., 2003, 119, 11113-11123.
Rb(ecp-28), Cs(ecp-46): T. Leininger, A. Nicklass, W. Kuechle, H. Stoll, M. Dolg, A. Bergner, Chem. Phys. Lett., 1996, 255, 274-280.
Sr(ecp-28), Ba(ecp-46): M. Kaupp, P. V. Schleyer, H. Stoll and H. Preuss, J. Chem. Phys., 1991, 94, 1360-1366.
La(ecp-46): M. Dolg, H. Stoll, A. Savin, H. Preuss, Theor. Chim. Acta, 1989, 75, 173-194.
Lu(ecp-28): X. Cao, M. Dolg, J. Chem. Phys., 2001, 115, 7348-7355.

ECP parameters for I  [Def2-ECP] have been obtained from:
TURBOMOLE (7.0.2)

================================================================================
                                        WARNINGS
                       Please study these warnings very carefully!
================================================================================


WARNING: Geometry Optimization
  ===> : Switching off AutoStart
         For restart on a previous wavefunction, please use MOREAD

INFO   : the flag for use of LIBINT has been found!

================================================================================
                                       INPUT FILE
================================================================================
NAME = CH2ICl.inp
|  1> ! revPBE D4 gCP(DFT/SVP) def2-SVP Opt Freq TightOpt TightSCF Grid4 FinalGrid5 LargePrint
|  2> 
|  3> %pal
|  4>  nprocs 6
|  5> end
|  6> 
|  7> *xyz 0 1
|  8>   C      0.083074    0.083074   -0.083074
|  9>   I      0.718356   -0.563797   -0.718356
| 10>   Cl    -0.955989   -0.955989    0.955989
| 11>   H     -0.563797    0.718356   -0.718356
| 12>   H      0.718356    0.718356    0.563797
| 13> *
| 14> 
| 15>                          ****END OF INPUT****
================================================================================

                       *****************************
                       * Geometry Optimization Run *
                       *****************************

Geometry optimization settings:
Update method            Update   .... BFGS
Choice of coordinates    CoordSys .... Z-matrix Internals
Initial Hessian          InHess   .... Almoef's Model

Convergence Tolerances:
Energy Change            TolE     ....  1.0000e-06 Eh
Max. Gradient            TolMAXG  ....  1.0000e-04 Eh/bohr
RMS Gradient             TolRMSG  ....  3.0000e-05 Eh/bohr
Max. Displacement        TolMAXD  ....  1.0000e-03 bohr
RMS Displacement         TolRMSD  ....  6.0000e-04 bohr
Strict Convergence                ....  False
------------------------------------------------------------------------------
                        ORCA OPTIMIZATION COORDINATE SETUP
------------------------------------------------------------------------------

The optimization will be done in new redundant internal coordinates
Making redundant internal coordinates   ...  (new redundants) done
Evaluating the initial hessian          ...  (Almloef) done
Evaluating the coordinates              ...  done
Calculating the B-matrix                .... done
Calculating the G-matrix                .... done
Diagonalizing the G-matrix              .... done
The first mode is                       ....   31
The number of degrees of freedom        ....    9

    -----------------------------------------------------------------
                    Redundant Internal Coordinates


    -----------------------------------------------------------------
         Definition                    Initial Value    Approx d2E/dq
    -----------------------------------------------------------------
      1. B(I   1,C   0)                  1.1071         5.937806   
      2. B(Cl  2,I   1)                  2.4001         0.115243   
      3. B(Cl  2,C   0)                  1.7997         0.311221   
      4. B(H   3,I   1)                  1.8132         0.084925   
      5. B(H   3,C   0)                  1.1071         0.338209   
      6. B(H   4,I   1)                  1.8132         0.084925   
      7. B(H   4,C   0)                  1.1071         0.338209   
      8. A(H   3,C   0,H   4)          109.9565         0.285190   
      9. A(I   1,C   0,H   3)          109.9565         0.559754   
     10. A(I   1,C   0,Cl  2)          108.9815         0.653957   
     11. A(Cl  2,C   0,H   3)          108.9815         0.324450   
     12. A(Cl  2,C   0,H   4)          108.9815         0.324450   
     13. A(I   1,C   0,H   4)          109.9565         0.559754   
     14. A(H   3,I   1,H   4)           60.0000         0.220065   
     15. A(C   0,I   1,H   4)           35.0218         0.473769   
     16. A(C   0,I   1,H   3)           35.0218         0.473769   
     17. A(C   0,I   1,Cl  2)           45.1586         0.573961   
     18. A(Cl  2,I   1,H   3)           67.8065         0.254194   
     19. A(Cl  2,I   1,H   4)           67.8065         0.254194   
     20. A(C   0,Cl  2,I   1)           25.8599         0.331555   
     21. A(C   0,H   3,I   1)           35.0218         0.249355   
     22. A(C   0,H   4,I   1)           35.0218         0.249355   
     23. D(Cl  2,I   1,C   0,H   3)   -119.3957         0.934986   
     24. D(H   4,I   1,C   0,H   3)    121.2086         0.934986   
     25. D(H   3,I   1,C   0,H   4)   -121.2086         0.934986   
     26. D(H   4,I   1,C   0,Cl  2)   -119.3957         0.934986   
     27. D(H   3,I   1,C   0,Cl  2)    119.3957         0.934986   
     28. D(Cl  2,I   1,C   0,H   4)    119.3957         0.934986   
     29. D(C   0,Cl  2,I   1,H   4)     32.6841         0.001571   
     30. D(C   0,Cl  2,I   1,H   3)    -32.6841         0.001571   
     31. D(I   1,Cl  2,C   0,H   4)   -120.0000         0.003418   
     32. D(I   1,Cl  2,C   0,H   3)    120.0000         0.003418   
     33. D(C   0,H   3,I   1,H   4)    -34.5254         0.002154   
     34. D(C   0,H   3,I   1,Cl  2)     41.8514         0.002154   
     35. D(I   1,H   3,C   0,H   4)    121.2086         0.104335   
     36. D(I   1,H   3,C   0,Cl  2)   -119.3957         0.104335   
     37. D(I   1,H   4,C   0,Cl  2)    119.3957         0.104335   
     38. D(C   0,H   4,I   1,H   3)     34.5254         0.002154   
     39. D(C   0,H   4,I   1,Cl  2)    -41.8514         0.002154   
     40. D(I   1,H   4,C   0,H   3)   -121.2086         0.104335   
    -----------------------------------------------------------------

Number of atoms                         .... 5
Number of degrees of freedom            .... 40

         *************************************************************
         *                GEOMETRY OPTIMIZATION CYCLE   1            *
         *************************************************************
---------------------------------
CARTESIAN COORDINATES (ANGSTROEM)
---------------------------------
  C      0.083074    0.083074   -0.083074
  I      0.718356   -0.563797   -0.718356
  Cl    -0.955989   -0.955989    0.955989
  H     -0.563797    0.718356   -0.718356
  H      0.718356    0.718356    0.563797

----------------------------
CARTESIAN COORDINATES (A.U.)
----------------------------
  NO LB      ZA    FRAG     MASS         X           Y           Z
   0 C     6.0000    0    12.011    0.156987    0.156987   -0.156987
   1 I    25.0000*   0   126.900    1.357496   -1.065422   -1.357496
   2 Cl   17.0000    0    35.453   -1.806557   -1.806557    1.806557
   3 H     1.0000    0     1.008   -1.065422    1.357496   -1.357496
   4 H     1.0000    0     1.008    1.357496    1.357496    1.065422
* core charge reduced due to ECP

--------------------------------
INTERNAL COORDINATES (ANGSTROEM)
--------------------------------
 C      0   0   0     0.000000000000     0.00000000     0.00000000
 I      1   0   0     1.107072052619     0.00000000     0.00000000
 Cl     1   2   0     1.799709908265   108.98149553     0.00000000
 H      1   2   3     1.107072052619   109.95647461   240.60432290
 H      1   2   3     1.107072052619   109.95647461   119.39567710

---------------------------
INTERNAL COORDINATES (A.U.)
---------------------------
 C      0   0   0     0.000000000000     0.00000000     0.00000000
 I      1   0   0     2.092062989967     0.00000000     0.00000000
 Cl     1   2   0     3.400958847125   108.98149553     0.00000000
 H      1   2   3     2.092062989967   109.95647461   240.60432290
 H      1   2   3     2.092062989967   109.95647461   119.39567710

---------------------
BASIS SET INFORMATION
---------------------
There are 4 groups of distinct atoms

 Group   1 Type C   : 7s4p1d contracted to 3s2p1d pattern {511/31/1}
 Group   2 Type I   : 10s7p6d contracted to 4s4p2d pattern {6211/4111/51}
 Group   3 Type Cl  : 10s7p1d contracted to 4s3p1d pattern {5311/511/1}
 Group   4 Type H   : 4s1p contracted to 2s1p pattern {31/1}

Atom   0C    basis set group =>   1
Atom   1I    basis set group =>   2
Atom   2Cl   basis set group =>   3
Atom   3H    basis set group =>   4
Atom   4H    basis set group =>   4

-------------------------
BASIS SET IN INPUT FORMAT
-------------------------

 # Basis set for element : H 
 NewGTO H 
 S 3 
   1      13.0107010000      0.0334854848
   2       1.9622572000      0.2347218709
   3       0.4445379600      0.8137702853
 S 1 
   1       0.1219496200      1.0000000000
 P 1 
   1       0.8000000000      1.0000000000
  end;

 # Basis set for element : C 
 NewGTO C 
 S 5 
   1    1238.4016938000      0.0055173650
   2     186.2900499200      0.0410888285
   3      42.2511763460      0.1822538213
   4      11.6765579320      0.4682845944
   5       3.5930506482      0.4457581734
 S 1 
   1       0.4024514736      1.0000000000
 S 1 
   1       0.1309018267      1.0000000000
 P 3 
   1       9.4680970621      0.0568883320
   2       2.0103545142      0.3129405934
   3       0.5477100471      0.7606501651
 P 1 
   1       0.1526861379      1.0000000000
 D 1 
   1       0.8000000000      1.0000000000
  end;

 # Basis set for element : Cl
 NewGTO Cl
 S 5 
   1   10449.8275660000      0.0054265952
   2    1571.7365221000      0.0406263782
   3     357.1206552300      0.1835974786
   4     100.2518593500      0.4743894876
   5      30.8127275540      0.4373518111
 S 3 
   1      51.9237894340     -0.0927541549
   2       5.7045760975      0.5638082555
   3       2.3508376809      0.5036704463
 S 1 
   1       0.4460512467      1.0000000000
 S 1 
   1       0.1684885619      1.0000000000
 P 5 
   1     307.6679056900     -0.0088797025
   2      72.1020155150     -0.0642840717
   3      22.5326802620     -0.2428873974
   4       7.8991765444     -0.4834083637
   5       2.8767268321     -0.3895256388
 P 1 
   1       0.7745936396      1.0000000000
 P 1 
   1       0.2103769970      1.0000000000
 D 1 
   1       0.6500000000      1.0000000000
  end;

 # Basis set for element : I 
 NewGTO I 
 S 6 
   1     445.9048917600      0.0022025754
   2      23.3368424120     -0.1647691779
   3      19.5834461040      0.4005236426
   4       8.5112089186     -0.8303440534
   5       2.1996161861      0.9103490390
   6       1.0668970454      0.4634503367
 S 2 
   1      11.7205475720     -0.0469729845
   2       1.7625986449      1.0252380966
 S 1 
   1       0.2869747632      1.0000000000
 S 1 
   1       0.1122760961      1.0000000000
 P 4 
   1      20.4990272540      0.0845621086
   2      10.5587545760     -0.4205167918
   3       1.5015895485      0.9157047730
   4       0.6459717310      0.1839785228
 P 1 
   1       3.0288656771      1.0000000000
 P 1 
   1       0.3450659184      1.0000000000
 P 1 
   1       0.1113451381      1.0000000000
 D 5 
   1      51.2353549200      0.0041015169
   2      15.6162394820     -0.0051611250
   3       4.5266002139      0.2963519699
   4       2.0529808766      0.5199519651
   5       0.8764028162      0.3175071685
 D 1 
   1       0.3090000000      1.0000000000
  end;

---------------------------------
AUXILIARY/J BASIS SET INFORMATION
---------------------------------
There are 4 groups of distinct atoms

 Group   1 Type C   : 12s5p4d2f1g contracted to 6s4p3d1f1g pattern {711111/2111/211/2/1}
 Group   2 Type I   : 11s5p5d3f1g contracted to 8s4p3d2f1g pattern {41111111/2111/311/21/1}
 Group   3 Type Cl  : 14s5p5d2f1g contracted to 8s4p3d1f1g pattern {71111111/2111/311/2/1}
 Group   4 Type H   : 5s2p1d contracted to 3s1p1d pattern {311/2/1}

Atom   0C    basis set group =>   1
Atom   1I    basis set group =>   2
Atom   2Cl   basis set group =>   3
Atom   3H    basis set group =>   4
Atom   4H    basis set group =>   4

-------------------------------------
AUXILIARY/J BASIS SET IN INPUT FORMAT
-------------------------------------

 # Auxiliary/J basis set for element : H 
 NewAuxJGTO H 
 S 3 
   1      15.6752927000      0.1007184237
   2       3.6063578000      0.3404257499
   3       1.2080016000      0.6491996172
 S 1 
   1       0.4726794000      1.0000000000
 S 1 
   1       0.2018100000      1.0000000000
 P 2 
   1       2.0281365000      0.5596620919
   2       0.5358730000      0.5596620919
 D 1 
   1       2.2165124000      1.0000000000
  end;

 # Auxiliary/J basis set for element : C 
 NewAuxJGTO C 
 S 7 
   1    1861.0916331000      0.0134602335
   2     642.9939764000      0.0299160374
   3     235.1105725000      0.1008649584
   4      90.7028894000      0.2370970548
   5      36.7794552000      0.3924037254
   6      15.6046273000      0.3195862154
   7       6.8907294000      0.0530104441
 S 1 
   1       3.1478850000     -1.0000000000
 S 1 
   1       1.4777287000      1.0000000000
 S 1 
   1       0.7076466000      1.0000000000
 S 1 
   1       0.3430122000      1.0000000000
 S 1 
   1       0.1669453000      1.0000000000
 P 2 
   1      13.5472892000     -0.6769313712
   2       5.4669419000     -0.3779500978
 P 1 
   1       2.1751721000      1.0000000000
 P 1 
   1       0.8582194000      1.0000000000
 P 1 
   1       0.3376720000      1.0000000000
 D 2 
   1       5.9287253000     -0.3533329857
   2       1.9809209000     -0.7456525731
 D 1 
   1       0.8055417000     -1.0000000000
 D 1 
   1       0.3531244000     -1.0000000000
 F 2 
   1       1.6755626000      0.6311076882
   2       0.5997536000      0.4968166032
 G 1 
   1       1.0024600000     -1.0000000000
  end;

 # Auxiliary/J basis set for element : Cl
 NewAuxJGTO Cl
 S 7 
   1    8044.2766240000      0.0309054740
   2    2924.5123954000      0.0600734063
   3    1110.8168739000      0.1862207460
   4     439.9050761000      0.3715503251
   5     181.1987287000      0.4220785347
   6      77.4148302000      0.0994388367
   7      34.1977273000     -0.0596902748
 S 1 
   1      15.5648397000      1.0000000000
 S 1 
   1       7.2707873000      1.0000000000
 S 1 
   1       3.4711900000     -1.0000000000
 S 1 
   1       1.6860808000     -1.0000000000
 S 1 
   1       0.8293125000      1.0000000000
 S 1 
   1       0.4110124000      1.0000000000
 S 1 
   1       0.2042190000      1.0000000000
 P 2 
   1      12.2564993000      1.4910316311
   2       4.8922575000     -1.4908224419
 P 1 
   1       1.9265460000      1.0000000000
 P 1 
   1       0.7525989000     -1.0000000000
 P 1 
   1       0.2932189000     -1.0000000000
 D 3 
   1      28.4370504000     -1.0829567244
   2       7.2772298000      0.5502349187
   3       2.3111621000     -0.5567798939
 D 1 
   1       0.8580943000     -1.0000000000
 D 1 
   1       0.3376227000     -1.0000000000
 F 2 
   1       1.2035685000      0.5557691438
   2       0.4700000000      0.5557691438
 G 1 
   1       0.7521100000     -1.0000000000
  end;

 # Auxiliary/J basis set for element : I 
 NewAuxJGTO I 
 S 4 
   1     129.9537471000      0.0034299946
   2      25.6994960000     -0.2331956885
   3      15.6359930000      1.1372723810
   4       9.2032587000     -1.8596504591
 S 1 
   1       5.4136814000      1.0000000000
 S 1 
   1       3.1529885000      1.0000000000
 S 1 
   1       1.8546991000      1.0000000000
 S 1 
   1       0.6481820000      1.0000000000
 S 1 
   1       0.3812835000      1.0000000000
 S 1 
   1       0.2220638000      1.0000000000
 S 1 
   1       0.1306257000      1.0000000000
 P 2 
   1       6.3414007000      0.5103292106
   2       2.2502515000     -1.3062587755
 P 1 
   1       0.7853950000      1.0000000000
 P 1 
   1       0.2714491000      1.0000000000
 P 1 
   1       0.0935145000     -1.0000000000
 D 3 
   1      14.1399698000      0.3142035909
   2       5.2162306000     -1.5587479051
   3       1.9554103000      1.2015949601
 D 1 
   1       0.7402137000     -1.0000000000
 D 1 
   1       0.2811242000     -1.0000000000
 F 2 
   1       1.8878261000     -0.6632770581
   2       0.7736294000      1.2930217855
 F 1 
   1       0.3166600000      1.0000000000
 G 1 
   1       0.9097867000     -1.0000000000
  end;

-------------------------
ECP PARAMETER INFORMATION
-------------------------

 Group 1, Type I  ECP Def2-ECP (replacing 28 core electrons, lmax=3)

Atom   1I    ECP group =>   1


-------------------------
ECP BASIS IN INPUT FORMAT
-------------------------

 #ECP Def2-ECP
 NewECP I 
   N_core 28
   lmax f
   s 7
     1      40.0158350000     49.9942930000  2
     2      17.4297470000    281.0253170000  2
     3       9.0054840000     61.5733260000  2
     4      19.4586090000     21.8420400000  2
     5      19.3492600000     28.4681910000  2
     6       4.8237670000      0.2437130000  2
     7       4.8843150000      0.3208040000  2
   p 8
     1      15.3554660000     67.4428410000  2
     2      14.9718330000    134.8811370000  2
     3       8.9601640000     14.6750510000  2
     4       8.2590960000     29.3756660000  2
     5      19.4586090000     21.8420400000  2
     6      19.3492600000     28.4681910000  2
     7       4.8237670000      0.2437130000  2
     8       4.8843150000      0.3208040000  2
   d 10
     1      15.0689080000     35.4395290000  2
     2      14.5553220000     53.1760570000  2
     3       6.7186470000      9.0671950000  2
     4       6.4563930000     13.2069370000  2
     5       1.1917790000      0.0893350000  2
     6       1.2911570000      0.0523800000  2
     7      19.4586090000     21.8420400000  2
     8      19.3492600000     28.4681910000  2
     9       4.8237670000      0.2437130000  2
    10       4.8843150000      0.3208040000  2
   f 4
     1      19.4586090000    -21.8420400000  2
     2      19.3492600000    -28.4681910000  2
     3       4.8237670000     -0.2437130000  2
     4       4.8843150000     -0.3208040000  2
 End




           ************************************************************
           *        Program running with 6 parallel MPI-processes     *
           *              working on a common directory               *
           ************************************************************
------------------------------------------------------------------------------
                           ORCA GTO INTEGRAL CALCULATION
                           -- RI-GTO INTEGRALS CHOSEN --
------------------------------------------------------------------------------

                         BASIS SET STATISTICS AND STARTUP INFO

Gaussian basis set:
 # of primitive gaussian shells          ...   63
 # of primitive gaussian functions       ...  135
 # of contracted shells                  ...   30
 # of contracted basis functions         ...   68
 Highest angular momentum                ...    2
 Maximum contraction depth               ...    6
Auxiliary gaussian basis set:
 # of primitive gaussian shells          ...   92
 # of primitive gaussian functions       ...  260
 # of contracted shells                  ...   60
 # of contracted aux-basis functions     ...  180
 Highest angular momentum                ...    4
 Maximum contraction depth               ...    7
Ratio of auxiliary to basis functions    ...  2.65
Integral package used                  ... LIBINT
 One Electron integrals                  
   ECP integrals                         ... done
 Ordering auxiliary basis shells         ... done
 Integral threshhold             Thresh  ...  2.500e-11
 Primitive cut-off               TCut    ...  2.500e-12
 Pre-screening matrix                    ... done
 Shell pair data                         ... 
 Ordering of the shell pairs             ... done (   0.000 sec) 462 of 465 pairs
 Determination of significant pairs      ... done (   0.002 sec)
 Creation of shell pair data             ... done (   0.001 sec)
 Storage of shell pair data              ... done (   0.073 sec)
 Shell pair data done in (   0.076 sec)
 Computing two index integrals           ... done
 Cholesky decomposition of the V-matrix  ... done


Timings:
 Total evaluation time                   ...   0.443 sec (  0.007 min)
 One electron matrix time                ...   0.217 sec (  0.004 min) = 48.9%
 Schwartz matrix evaluation time         ...   0.096 sec (  0.002 min) = 21.8%
 Two index repulsion integral time       ...   0.012 sec (  0.000 min) =  2.7%
 Cholesky decomposition of V             ...   0.019 sec (  0.000 min) =  4.2%
 Three index repulsion integral time     ...   0.000 sec (  0.000 min) =  0.0%



           ************************************************************
           *        Program running with 6 parallel MPI-processes     *
           *              working on a common directory               *
           ************************************************************
-------------------------------------------------------------------------------
                                 ORCA SCF
-------------------------------------------------------------------------------

------------
SCF SETTINGS
------------
Hamiltonian:
 Density Functional     Method          .... DFT(GTOs)
 Exchange Functional    Exchange        .... PBE
   PBE kappa parameter   XKappa         ....  1.245000
   PBE mue parameter    XMuePBE         ....  0.219520
 Correlation Functional Correlation     .... PBE
   PBE beta parameter  CBetaPBE         ....  0.066725
 LDA part of GGA corr.  LDAOpt          .... PW91-LDA
 Gradients option       PostSCFGGA      .... off
   Density functional embedding theory  .... OFF
   NL short-range parameter             ....  3.700000
 RI-approximation to the Coulomb term is turned on
   Number of auxiliary basis functions  .... 180


General Settings:
 Integral files         IntName         .... CH2ICl
 Hartree-Fock type      HFTyp           .... RHF
 Total Charge           Charge          ....    0
 Multiplicity           Mult            ....    1
 Number of Electrons    NEL             ....   50
 Basis Dimension        Dim             ....   68
 Nuclear Repulsion      ENuc            ....    223.5101537850 Eh

Convergence Acceleration:
 DIIS                   CNVDIIS         .... on
   Start iteration      DIISMaxIt       ....    12
   Startup error        DIISStart       ....  0.200000
   # of expansion vecs  DIISMaxEq       ....     5
   Bias factor          DIISBfac        ....   1.050
   Max. coefficient     DIISMaxC        ....  10.000
 Newton-Raphson         CNVNR           .... off
 SOSCF                  CNVSOSCF        .... on
   Start iteration      SOSCFMaxIt      ....   150
   Startup grad/error   SOSCFStart      ....  0.003300
 Level Shifting         CNVShift        .... on
   Level shift para.    LevelShift      ....    0.2500
   Turn off err/grad.   ShiftErr        ....    0.0010
 Zerner damping         CNVZerner       .... off
 Static damping         CNVDamp         .... on
   Fraction old density DampFac         ....    0.7000
   Max. Damping (<1)    DampMax         ....    0.9800
   Min. Damping (>=0)   DampMin         ....    0.0000
   Turn off err/grad.   DampErr         ....    0.1000
 Fernandez-Rico         CNVRico         .... off

SCF Procedure:
 Maximum # iterations   MaxIter         ....   125
 SCF integral mode      SCFMode         .... Direct
   Integral package                     .... LIBINT
 Reset frequency        DirectResetFreq ....    20
 Integral Threshold     Thresh          ....  2.500e-11 Eh
 Primitive CutOff       TCut            ....  2.500e-12 Eh

Convergence Tolerance:
 Convergence Check Mode ConvCheckMode   .... Total+1el-Energy
 Convergence forced     ConvForced      .... 0
 Energy Change          TolE            ....  1.000e-08 Eh
 1-El. energy change                    ....  1.000e-05 Eh
 Orbital Gradient       TolG            ....  1.000e-05
 Orbital Rotation angle TolX            ....  1.000e-05
 DIIS Error             TolErr          ....  5.000e-07


Diagonalization of the overlap matrix:
Smallest eigenvalue                        ... 1.563e-03
Time for diagonalization                   ...    0.002 sec
Threshold for overlap eigenvalues          ... 1.000e-08
Number of eigenvalues below threshold      ... 0
Time for construction of square roots      ...    0.011 sec
Total time needed                          ...    0.013 sec

-------------------
DFT GRID GENERATION
-------------------

General Integration Accuracy     IntAcc      ...  4.670
Radial Grid Type                 RadialGrid  ... Gauss-Chebyshev
Angular Grid (max. acc.)         AngularGrid ... Lebedev-302
Angular grid pruning method      GridPruning ... 3 (G Style)
Weight generation scheme         WeightScheme... Becke
Basis function cutoff            BFCut       ...    1.0000e-11
Integration weight cutoff        WCut        ...    1.0000e-14
Grids for H and He will be reduced by one unit

# of grid points (after initial pruning)     ...  30480 (   0.0 sec)
# of grid points (after weights+screening)   ...  29801 (   0.0 sec)
nearest neighbour list constructed           ...    0.0 sec
Grid point re-assignment to atoms done       ...    0.0 sec
Grid point division into batches done        ...    0.2 sec
Reduced shell lists constructed in    0.2 sec

Total number of grid points                  ...    29801
Total number of batches                      ...      469
Average number of points per batch           ...       63
Average number of grid points per atom       ...     5960
Average number of shells per batch           ...    21.84 (72.79%)
Average number of basis functions per batch  ...    49.96 (73.47%)
Average number of large shells per batch     ...    19.56 (89.58%)
Average number of large basis fcns per batch ...    44.94 (89.94%)
Maximum spatial batch extension              ...  16.30, 16.32, 16.30 au
Average spatial batch extension              ...   0.60,  0.60,  0.60 au

Time for grid setup =    0.435 sec

------------------------------
INITIAL GUESS: MODEL POTENTIAL
------------------------------
Loading Hartree-Fock densities                     ... done
  calling /opt/orca/orca CH2ICl_atom53.inp > CH2ICl_atom53.out in order to generate an atomic fitting density for atom 1 (I  with ECP) on-the-fly... 
    atom 1 (I ), assumed electronic state with S=2: 1s2 2s2 2p6 3s2 3p6 4s2 3d10 4p6 5s2 4d10 5p5           ... done
Calculating cut-offs                               ... done
Setting up the integral package                    ... done
Initializing the effective Hamiltonian             ... done
Starting the Coulomb interaction                   ... done (   0.0 sec)
Reading the grid                                   ... done
Mapping shells                                     ... done
Starting the XC term evaluation                    ... done (   0.0 sec)
  promolecular density results
     # of electrons  =     77.999153063
     EX              =   -207.174463451
     EC              =     -3.858321125
     EX+EC           =   -211.032784576
Transforming the Hamiltonian                       ... done (   0.0 sec)
Diagonalizing the Hamiltonian                      ... done (   0.0 sec)
Back transforming the eigenvectors                 ... done (   0.0 sec)
Now organizing SCF variables                       ... done
                      ------------------
                      INITIAL GUESS DONE (   6.1 sec)
                      ------------------
----------------------
INITIAL GUESS ORBITALS
----------------------
                      0         1         2         3         4         5   
                 -100.71598 -12.01226 -11.68424  -9.97967  -9.88548  -9.88493
                   2.00000   2.00000   2.00000   2.00000   2.00000   2.00000
                  --------  --------  --------  --------  --------  --------
  0C   1s        -0.000030 -0.086338 -0.977930 -0.040750 -0.000000 -0.000211
  0C   2s         0.000795 -0.056309 -0.116769  0.043173  0.000000  0.000749
  0C   3s         0.001329 -0.162722 -0.014346  0.145511 -0.000000  0.008339
  0C   1pz       -0.000090  0.012041  0.037243 -0.000654  0.002325  0.002014
  0C   1px        0.000090 -0.012041 -0.037243  0.000654  0.002325 -0.002014
  0C   1py       -0.000102  0.009620  0.037477  0.000462  0.000000 -0.003996
  0C   2pz       -0.001657  0.028185  0.010051 -0.028751  0.030189  0.006530
  0C   2px        0.001657 -0.028185 -0.010051  0.028751  0.030189 -0.006530
  0C   2py       -0.000213  0.035285  0.010628 -0.031715  0.000000 -0.026402
  0C   1dz2      -0.000029 -0.000023  0.000111 -0.000198  0.000054  0.000313
  0C   1dxz      -0.000114 -0.006692  0.010895  0.010861  0.000000  0.000564
  0C   1dyz      -0.000055  0.004759 -0.011166 -0.009453 -0.000387 -0.000143
  0C   1dx2y2    -0.000051 -0.000040  0.000192 -0.000344 -0.000031  0.000542
  0C   1dxy       0.000055 -0.004759  0.011166  0.009453 -0.000387  0.000143
  1I   1s         0.000028 -0.929970  0.093150 -0.054241  0.000000  0.000061
  1I   2s         0.000031 -0.146032  0.012131 -0.006297 -0.000000  0.000254
  1I   3s        -0.000003  0.186104  0.052138 -0.006099  0.000000 -0.003263
  1I   4s        -0.004330  0.058612  0.039924 -0.150470  0.000000 -0.012807
  1I   1pz        0.000059 -0.026027 -0.003544  0.317475  0.385446  0.225413
  1I   1px       -0.000059  0.026027  0.003544 -0.317475  0.385446 -0.225413
  1I   1py        0.000088 -0.026334 -0.003593  0.324166 -0.000000 -0.441275
  1I   2pz        0.000006 -0.022822 -0.003927  0.347330  0.430068  0.251699
  1I   2px       -0.000006  0.022822  0.003927 -0.347330  0.430068 -0.251699
  1I   2py        0.000000 -0.023161 -0.003996  0.354650 -0.000000 -0.492832
  1I   3pz       -0.000320  0.037700  0.035057 -0.081727 -0.083927 -0.048483
  1I   3px        0.000320 -0.037700 -0.035057  0.081727 -0.083927  0.048483
  1I   3py       -0.000570  0.036607  0.035779 -0.082950  0.000000  0.091969
  1I   4pz       -0.001339  0.023369  0.009536 -0.021141  0.017463  0.008078
  1I   4px        0.001339 -0.023369 -0.009536  0.021141  0.017463 -0.008078
  1I   4py       -0.000754  0.024650  0.009903 -0.019397  0.000000 -0.023943
  1I   1dz2      -0.000006  0.000124 -0.000003 -0.000378  0.020607  0.011802
  1I   1dxz      -0.000045  0.009439  0.000158 -0.031385 -0.000000 -0.013158
  1I   1dyz      -0.000019 -0.010173 -0.000070  0.031803  0.011878 -0.006254
  1I   1dx2y2    -0.000010  0.000214 -0.000005 -0.000654 -0.011898  0.020442
  1I   1dxy       0.000019  0.010173  0.000070 -0.031803  0.011878  0.006254
  1I   2dz2       0.000025  0.000139 -0.000173 -0.000226 -0.010962 -0.005163
  1I   2dxz       0.000569 -0.015345 -0.015354  0.020899 -0.000000  0.004266
  1I   2dyz      -0.000086  0.017362  0.015401 -0.020056 -0.005394  0.002032
  1I   2dx2y2     0.000044  0.000241 -0.000299 -0.000392  0.006329 -0.008942
  1I   2dxy       0.000086 -0.017362 -0.015401  0.020056 -0.005394 -0.002032
  2Cl  1s         0.994033  0.000020  0.000039 -0.000039 -0.000000 -0.000006
  2Cl  2s         0.022345 -0.000147 -0.000375  0.000563 -0.000000 -0.000097
  2Cl  3s        -0.010548 -0.003112  0.002257 -0.003753 -0.000000  0.001819
  2Cl  4s         0.007787  0.019182 -0.006089  0.001252  0.000000 -0.016898
  2Cl  1pz        0.000091 -0.000075 -0.000109  0.000198  0.000195  0.000118
  2Cl  1px       -0.000091  0.000075  0.000109 -0.000198  0.000195 -0.000118
  2Cl  1py       -0.000053  0.000127  0.000076 -0.000004 -0.000000  0.000032
  2Cl  2pz        0.000381  0.000001 -0.000597  0.001259  0.001344  0.000963
  2Cl  2px       -0.000381 -0.000001  0.000597 -0.001259  0.001344 -0.000963
  2Cl  2py       -0.000254  0.000283  0.000338  0.000271 -0.000000  0.000286
  2Cl  3pz       -0.001262 -0.008286  0.001548 -0.000996 -0.006351  0.002946
  2Cl  3px        0.001262  0.008286 -0.001548  0.000996 -0.006351 -0.002946
  2Cl  3py        0.000948  0.004448 -0.000760 -0.003668  0.000000 -0.003915
  2Cl  1dz2       0.000005  0.000478  0.000001  0.000235  0.001982  0.000637
  2Cl  1dxz      -0.000189 -0.001313 -0.000170 -0.000755 -0.000000 -0.002023
  2Cl  1dyz      -0.000116 -0.001925 -0.000538  0.001343 -0.001193  0.000519
  2Cl  1dx2y2     0.000008  0.000829  0.000002  0.000408 -0.001145  0.001104
  2Cl  1dxy       0.000116  0.001925  0.000538 -0.001343 -0.001193 -0.000519
  3H   1s         0.000187  0.009508  0.001148 -0.005272  0.003564  0.000256
  3H   2s         0.000234  0.009388 -0.007814  0.002236  0.023609  0.010333
  3H   1pz        0.000036  0.001908 -0.000237 -0.002444  0.001758  0.001157
  3H   1px       -0.000061  0.001423 -0.000293  0.000264 -0.003861  0.000535
  3H   1py        0.000002 -0.002293  0.000448 -0.000262  0.000881  0.003716
  4H   1s         0.000187  0.009508  0.001148 -0.005272 -0.003564  0.000256
  4H   2s         0.000234  0.009388 -0.007814  0.002236 -0.023609  0.010333
  4H   1pz        0.000061 -0.001423  0.000293 -0.000264 -0.003861 -0.000535
  4H   1px       -0.000036 -0.001908  0.000237  0.002444  0.001758 -0.001157
  4H   1py        0.000002 -0.002293  0.000448 -0.000262 -0.000881  0.003716
                      6         7         8         9        10        11   
                  -9.26394  -7.08385  -7.07697  -7.07673  -6.78462  -6.71655
                   2.00000   2.00000   2.00000   2.00000   2.00000   2.00000
                  --------  --------  --------  --------  --------  --------
  0C   1s         0.000168 -0.000063  0.000080 -0.000000 -0.039859  0.000000
  0C   2s        -0.002070  0.000984 -0.000763 -0.000000 -0.068690  0.000000
  0C   3s        -0.006452  0.002093  0.007265 -0.000000  0.097982 -0.000000
  0C   1pz        0.000082 -0.000120 -0.000039  0.000070  0.043312 -0.006981
  0C   1px       -0.000082  0.000120  0.000039  0.000070 -0.043312 -0.006981
  0C   1py        0.000454 -0.000316 -0.000014  0.000000  0.039540  0.000000
  0C   2pz        0.004764 -0.002717  0.001311 -0.001728 -0.002114  0.065646
  0C   2px       -0.004764  0.002717 -0.001311 -0.001728  0.002114  0.065646
  0C   2py        0.001317 -0.000567 -0.001918  0.000000  0.002324 -0.000000
  0C   1dz2       0.000059 -0.000095 -0.000090  0.000145  0.000188  0.026170
  0C   1dxz       0.000592 -0.000650  0.000303  0.000000  0.014750 -0.000000
  0C   1dyz       0.000379 -0.000541  0.000256  0.000009 -0.018644  0.013104
  0C   1dx2y2     0.000103 -0.000165 -0.000155 -0.000084  0.000325 -0.015109
  0C   1dxy      -0.000379  0.000541 -0.000256  0.000009  0.018644  0.013104
  1I   1s        -0.000081  0.000138 -0.000073 -0.000000 -0.020877  0.000000
  1I   2s        -0.000166  0.000206 -0.000098 -0.000000 -0.023266  0.000000
  1I   3s         0.000537 -0.000123  0.000771  0.000000  0.186859  0.000000
  1I   4s         0.013515 -0.008113 -0.004880  0.000000 -0.203357  0.000000
  1I   1pz       -0.000086  0.000141 -0.000007 -0.000049 -0.010420 -0.007704
  1I   1px        0.000086 -0.000141  0.000007 -0.000049  0.010420 -0.007704
  1I   1py       -0.000089  0.000078 -0.000021 -0.000000 -0.010223  0.000000
  1I   2pz       -0.000054  0.000106 -0.000005 -0.000023 -0.022002 -0.013793
  1I   2px        0.000054 -0.000106  0.000005 -0.000023  0.022002 -0.013793
  1I   2py        0.000024  0.000046 -0.000020 -0.000000 -0.022098  0.000000
  1I   3pz        0.000964 -0.000884 -0.000221  0.000498  0.064631  0.012004
  1I   3px       -0.000964  0.000884  0.000221  0.000498 -0.064631  0.012004
  1I   3py        0.001709 -0.000799  0.000190  0.000000  0.062497 -0.000000
  1I   4pz        0.004127 -0.002528 -0.001896  0.000084 -0.080195 -0.043106
  1I   4px       -0.004127  0.002528  0.001896  0.000084  0.080195 -0.043106
  1I   4py        0.002257 -0.001390  0.000018  0.000000 -0.076284  0.000000
  1I   1dz2       0.000030 -0.000168  0.000017  0.000112 -0.004448  0.727803
  1I   1dxz       0.000080  0.000349 -0.000141  0.000000 -0.608098 -0.000000
  1I   1dyz       0.000035 -0.000001  0.000057 -0.000175  0.608217  0.440384
  1I   1dx2y2     0.000052 -0.000291  0.000029 -0.000065 -0.007705 -0.420197
  1I   1dxy      -0.000035  0.000001 -0.000057 -0.000175 -0.608217  0.440384
  1I   2dz2      -0.000116  0.000088 -0.000268  0.000005  0.000501 -0.092305
  1I   2dxz      -0.001391  0.001024  0.000413 -0.000000  0.069008  0.000000
  1I   2dyz       0.000296 -0.000097  0.000138  0.000347 -0.065294 -0.057009
  1I   2dx2y2    -0.000201  0.000153 -0.000465 -0.000003  0.000869  0.053292
  1I   2dxy      -0.000296  0.000097 -0.000138  0.000347  0.065294 -0.057009
  2Cl  1s        -0.311365 -0.003040 -0.000006  0.000000  0.000015 -0.000000
  2Cl  2s         1.019280  0.010877 -0.000036 -0.000000 -0.000074  0.000000
  2Cl  3s         0.055281 -0.004767  0.000660  0.000000 -0.005838 -0.000000
  2Cl  4s        -0.025688  0.006581 -0.002390  0.000000  0.031411  0.000000
  2Cl  1pz        0.005647 -0.671128 -0.171169  0.693097 -0.000251  0.000100
  2Cl  1px       -0.005647  0.671128  0.171169  0.693097  0.000251  0.000100
  2Cl  1py       -0.001919  0.241823 -0.949767  0.000000  0.000329 -0.000000
  2Cl  2pz       -0.002155  0.037488  0.009100 -0.037141 -0.000069  0.000532
  2Cl  2px        0.002155 -0.037488 -0.009100 -0.037141  0.000069  0.000532
  2Cl  2py        0.001061 -0.013706  0.051185 -0.000000  0.000464  0.000000
  2Cl  3pz        0.003323 -0.007664 -0.000795  0.005893 -0.013527 -0.005544
  2Cl  3px       -0.003323  0.007664  0.000795  0.005893  0.013527 -0.005544
  2Cl  3py       -0.002344  0.003475 -0.009137  0.000000  0.001042 -0.000000
  2Cl  1dz2       0.000106 -0.000274 -0.000121  0.000605  0.001160  0.000370
  2Cl  1dxz      -0.000119  0.000966  0.000170 -0.000000 -0.001643 -0.000000
  2Cl  1dyz       0.000001  0.000352 -0.000406 -0.000068 -0.002239 -0.002903
  2Cl  1dx2y2     0.000183 -0.000475 -0.000209 -0.000349  0.002008 -0.000213
  2Cl  1dxy      -0.000001 -0.000352  0.000406 -0.000068  0.002239 -0.002903
  3H   1s        -0.000435  0.000397 -0.000352 -0.000490  0.013791  0.004704
  3H   2s        -0.000423  0.000737  0.000177 -0.000279  0.019428  0.015143
  3H   1pz       -0.000073  0.000089 -0.000056  0.000171  0.001745  0.012505
  3H   1px        0.000092  0.000022  0.000056  0.000002  0.003331 -0.010658
  3H   1py       -0.000069 -0.000051 -0.000028 -0.000061 -0.004452  0.007458
  4H   1s        -0.000435  0.000397 -0.000352  0.000490  0.013791 -0.004704
  4H   2s        -0.000423  0.000737  0.000177  0.000279  0.019428 -0.015143
  4H   1pz       -0.000092 -0.000022 -0.000056  0.000002 -0.003331 -0.010658
  4H   1px        0.000073 -0.000089  0.000056  0.000171 -0.001745  0.012505
  4H   1py       -0.000069 -0.000051 -0.000028  0.000061 -0.004452 -0.007458
                     12        13        14        15        16        17   
                  -6.71611  -6.63318  -6.63110  -3.19631  -2.34664  -2.17969
                   2.00000   2.00000   2.00000   2.00000   2.00000   2.00000
                  --------  --------  --------  --------  --------  --------
  0C   1s         0.000498  0.000587  0.000000  0.227284  0.167448  0.000000
  0C   2s        -0.000142 -0.017196 -0.000000 -0.289066 -0.553390 -0.000000
  0C   3s         0.014136  0.058835  0.000000  1.304171  0.246061  0.000000
  0C   1pz       -0.003491 -0.000163 -0.004347  0.244350  0.295000  0.281719
  0C   1px        0.003491  0.000163 -0.004347 -0.244350 -0.295000  0.281719
  0C   1py        0.004971 -0.001400 -0.000000  0.263001  0.291925  0.000000
  0C   2pz        0.034019  0.023794 -0.032515 -0.204644 -0.027593 -0.206031
  0C   2px       -0.034019 -0.023794 -0.032515  0.204644  0.027593 -0.206031
  0C   2py       -0.067893 -0.063832 -0.000000 -0.251432 -0.017729 -0.000000
  0C   1dz2       0.013640 -0.001265  0.003314  0.000001 -0.001363 -0.129423
  0C   1dxz      -0.011546 -0.006931  0.000000  0.144999  0.101566 -0.000000
  0C   1dyz      -0.008244 -0.001100 -0.005319 -0.131997 -0.098627 -0.062315
  0C   1dx2y2     0.023625 -0.002191 -0.001913  0.000001 -0.002361  0.074722
  0C   1dxy       0.008244  0.001100 -0.005319  0.131997  0.098627 -0.062315
  1I   1s        -0.000329  0.000818  0.000000  0.387418 -0.220901 -0.000000
  1I   2s        -0.000792  0.001586  0.000000  0.459469 -0.329169 -0.000000
  1I   3s         0.011388 -0.023848 -0.000000 -1.286328  1.568414  0.000000
  1I   4s        -0.029253 -0.003796 -0.000000 -0.534749 -0.645000 -0.000000
  1I   1pz       -0.004599  0.000211 -0.000401  0.081639  0.086397 -0.101179
  1I   1px        0.004599 -0.000211 -0.000401 -0.081639 -0.086397 -0.101179
  1I   1py        0.009862 -0.000917  0.000000  0.082350  0.090206 -0.000000
  1I   2pz       -0.007908 -0.000032 -0.000149  0.142228  0.194721 -0.249810
  1I   2px        0.007908  0.000032 -0.000149 -0.142228 -0.194721 -0.249810
  1I   2py        0.016501 -0.000450  0.000000  0.143937  0.203305 -0.000000
  1I   3pz        0.009274 -0.008108  0.006386 -0.258068 -0.282916  0.711221
  1I   3px       -0.009274  0.008108  0.006386  0.258068  0.282916  0.711221
  1I   3py       -0.016489  0.008976 -0.000000 -0.248864 -0.304643  0.000000
  1I   4pz       -0.036765  0.001380  0.002441 -0.163983 -0.034685 -0.080565
  1I   4px        0.036765 -0.001380  0.002441  0.163983  0.034685 -0.080565
  1I   4py        0.047236  0.003228 -0.000000 -0.166749 -0.016587 -0.000000
  1I   1dz2       0.422917  0.303661 -0.532815 -0.001266 -0.001495 -0.077612
  1I   1dxz      -0.506268  0.682754 -0.000000 -0.094277 -0.085346 -0.000000
  1I   1dyz      -0.245980  0.344914  0.588123  0.097699  0.086253 -0.046202
  1I   1dx2y2     0.732513  0.525956  0.307621 -0.002194 -0.002590  0.044810
  1I   1dxy       0.245980 -0.344914  0.588123 -0.097699 -0.086253 -0.046202
  1I   2dz2      -0.053728 -0.034870  0.059334 -0.002249 -0.001324  0.084365
  1I   2dxz       0.068637 -0.080019  0.000000  0.078857  0.027227  0.000000
  1I   2dyz       0.031928 -0.036994 -0.062318 -0.088125 -0.014346  0.045708
  1I   2dx2y2    -0.093059 -0.060396 -0.034257 -0.003895 -0.002293 -0.048708
  1I   2dxy      -0.031928  0.036994 -0.062318  0.088125  0.014346  0.045708
  2Cl  1s        -0.000021  0.000197  0.000000 -0.000588 -0.000607 -0.000000
  2Cl  2s         0.000433 -0.001979 -0.000000  0.003119  0.004183  0.000000
  2Cl  3s        -0.009767  0.027123  0.000000  0.018043 -0.025411  0.000000
  2Cl  4s         0.000712 -0.086871 -0.000000 -0.138131  0.058056 -0.000000
  2Cl  1pz       -0.000186 -0.000466  0.000504  0.001854  0.001515  0.000099
  2Cl  1px        0.000186  0.000466  0.000504 -0.001854 -0.001515  0.000099
  2Cl  1py        0.000647  0.000052  0.000000 -0.000897 -0.000245 -0.000000
  2Cl  2pz        0.002631 -0.005238  0.002100  0.001014  0.005661 -0.005371
  2Cl  2px       -0.002631  0.005238  0.002100 -0.001014 -0.005661 -0.005371
  2Cl  2py        0.003391  0.001295  0.000000  0.000434  0.002816  0.000000
  2Cl  3pz       -0.009460  0.036839 -0.002649  0.054454 -0.030056  0.038119
  2Cl  3px        0.009460 -0.036839 -0.002649 -0.054454  0.030056  0.038119
  2Cl  3py       -0.019197 -0.018215 -0.000000 -0.038068 -0.011768 -0.000000
  2Cl  1dz2       0.003858 -0.002298  0.002166 -0.001838  0.002572 -0.011221
  2Cl  1dxz      -0.008701  0.010272 -0.000000  0.007313 -0.005627  0.000000
  2Cl  1dyz       0.002792  0.002824  0.000751  0.011903  0.000936  0.005838
  2Cl  1dx2y2     0.006681 -0.003980 -0.001250 -0.003183  0.004455  0.006478
  2Cl  1dxy      -0.002792 -0.002824  0.000751 -0.011903 -0.000936  0.005838
  3H   1s         0.000650  0.005722 -0.014455 -0.065026 -0.001194 -0.025280
  3H   2s         0.008040  0.011682 -0.031678 -0.084643  0.029860 -0.150354
  3H   1pz        0.006477 -0.000625  0.000887 -0.017966 -0.007608 -0.015236
  3H   1px       -0.002889  0.004548 -0.008271 -0.009704  0.001663  0.025817
  3H   1py        0.007586 -0.003654  0.006343  0.014387 -0.004025 -0.012280
  4H   1s         0.000650  0.005722  0.014455 -0.065026 -0.001194  0.025280
  4H   2s         0.008040  0.011682  0.031678 -0.084643  0.029860  0.150354
  4H   1pz        0.002889 -0.004548 -0.008271  0.009704 -0.001663  0.025817
  4H   1px       -0.006477  0.000625  0.000887  0.017966  0.007608 -0.015236
  4H   1py        0.007586 -0.003654 -0.006343  0.014387 -0.004025  0.012280
                     18        19        20        21        22        23   
                  -2.17178  -1.52999  -1.52083  -1.23505  -1.13640  -0.87697
                   2.00000   2.00000   2.00000   2.00000   2.00000   2.00000
                  --------  --------  --------  --------  --------  --------
  0C   1s         0.001416 -0.000000 -0.004397  0.063573 -0.283874 -0.036733
  0C   2s        -0.007913  0.000000  0.008858  0.653442  1.669365  0.038351
  0C   3s        -0.045514  0.000000 -0.067145 -0.148252  0.047080 -0.224606
  0C   1pz        0.153202  0.621283 -0.353767 -0.652521 -0.362013  0.175466
  0C   1px       -0.153202  0.621283  0.353767  0.652521  0.362013 -0.175466
  0C   1py       -0.310275 -0.000000  0.726226 -0.673882 -0.357811 -0.044051
  0C   2pz       -0.048273  0.027773  0.000676 -0.029276 -0.126749  0.042060
  0C   2px        0.048273  0.027773 -0.000676  0.029276  0.126749 -0.042060
  0C   2py        0.190020 -0.000000  0.028508 -0.018142 -0.153281  0.100119
  0C   1dz2      -0.074113 -0.229122  0.130161 -0.001755 -0.001641 -0.005827
  0C   1dxz       0.072054 -0.000000 -0.131392 -0.182780 -0.031019  0.145646
  0C   1dyz       0.039903 -0.117337 -0.070894  0.188907  0.051151  0.034188
  0C   1dx2y2    -0.128368  0.132284  0.225446 -0.003039 -0.002842 -0.010093
  0C   1dxy      -0.039903 -0.117337  0.070894 -0.188907 -0.051151 -0.034188
  1I   1s         0.001544  0.000000  0.001138 -0.020879  0.082705 -0.002946
  1I   2s         0.001518  0.000000  0.000144  0.034377  0.196615 -0.013812
  1I   3s         0.006666 -0.000000  0.025915 -0.804877 -1.423329  0.181059
  1I   4s         0.086322 -0.000000  0.034859 -0.064532  0.071191  0.147437
  1I   1pz       -0.060043  0.056302 -0.031530 -0.005635  0.037960  0.000412
  1I   1px        0.060043  0.056302  0.031530  0.005635 -0.037960 -0.000412
  1I   1py        0.113137  0.000000  0.064385 -0.004260  0.038004  0.001669
  1I   2pz       -0.148651  0.140038 -0.078729 -0.013070  0.088695 -0.002328
  1I   2px        0.148651  0.140038  0.078729  0.013070 -0.088695  0.002328
  1I   2py        0.282451  0.000000  0.160232 -0.007903  0.089380  0.010517
  1I   3pz        0.421788 -0.660213  0.387598 -0.559910 -0.872491  0.067203
  1I   3px       -0.421788 -0.660213 -0.387598  0.559910  0.872491 -0.067203
  1I   3py       -0.791545 -0.000000 -0.740640 -0.587798 -0.873604  0.089547
  1I   4pz       -0.035471  0.108405 -0.055917  0.006112  0.080212  0.021933
  1I   4px        0.035471  0.108405  0.055917 -0.006112 -0.080212 -0.021933
  1I   4py        0.118292 -0.000000  0.129457  0.001255  0.064876  0.066189
  1I   1dz2      -0.043701 -0.141377  0.083308  0.001801  0.000184 -0.070652
  1I   1dxz       0.051135  0.000000 -0.102787  0.133458  0.179113 -0.145343
  1I   1dyz       0.023666 -0.087439 -0.046280 -0.142939 -0.179583 -0.054293
  1I   1dx2y2    -0.075692  0.081624  0.144294  0.003120  0.000319 -0.122373
  1I   1dxy      -0.023666 -0.087439  0.046280  0.142939  0.179583  0.054293
  1I   2dz2       0.040142  0.087629 -0.054949 -0.002206  0.000664  0.200759
  1I   2dxz      -0.039277  0.000000  0.080030  0.045131 -0.181935  0.532202
  1I   2dyz      -0.020570  0.065023  0.040549 -0.018870  0.174621  0.288108
  1I   2dx2y2     0.069528 -0.050592 -0.095175 -0.003820  0.001150  0.347725
  1I   2dxy       0.020570  0.065023 -0.040549  0.018870 -0.174621 -0.288108
  2Cl  1s         0.002354  0.000000 -0.006724 -0.018465  0.009357 -0.049650
  2Cl  2s        -0.012682 -0.000000  0.039527  0.112594 -0.056394  0.310780
  2Cl  3s         0.005827 -0.000000 -0.066394 -0.154623  0.078180 -0.449355
  2Cl  4s         0.106620  0.000000  0.062313 -0.026386 -0.002673 -0.127815
  2Cl  1pz       -0.007292  0.002676  0.012698  0.026808 -0.010388  0.035275
  2Cl  1px        0.007292  0.002676 -0.012698 -0.026808  0.010388 -0.035275
  2Cl  1py        0.001505  0.000000 -0.008975 -0.019017  0.017372  0.004859
  2Cl  2pz       -0.012869  0.006275  0.017309  0.044135 -0.015083  0.064728
  2Cl  2px        0.012869  0.006275 -0.017309 -0.044135  0.015083 -0.064728
  2Cl  2py       -0.001631  0.000000 -0.009419 -0.030632  0.025173  0.005200
  2Cl  3pz       -0.021383 -0.011411 -0.016062  0.022335  0.015545  0.019858
  2Cl  3px        0.021383 -0.011411  0.016062 -0.022335 -0.015545 -0.019858
  2Cl  3py        0.025228  0.000000 -0.001187 -0.012465  0.027110  0.018029
  2Cl  1dz2      -0.001935  0.001751 -0.000460 -0.003667 -0.003184 -0.007217
  2Cl  1dxz       0.005834 -0.000000  0.003165  0.019104  0.001089  0.024373
  2Cl  1dyz      -0.000712  0.000406  0.002369  0.012105 -0.003300 -0.004689
  2Cl  1dx2y2    -0.003351 -0.001011 -0.000796 -0.006351 -0.005515 -0.012500
  2Cl  1dxy       0.000712  0.000406 -0.002369 -0.012105  0.003300  0.004689
  3H   1s        -0.005697 -0.034591  0.026811 -0.110364  0.017460  0.062377
  3H   2s        -0.069326  0.064305 -0.020330  0.038143  0.020742 -0.014414
  3H   1pz       -0.009964 -0.016664  0.010383  0.000691 -0.012345 -0.011225
  3H   1px        0.002553  0.000218 -0.005364 -0.007999 -0.005830 -0.002297
  3H   1py       -0.020791 -0.004745 -0.003849  0.005884  0.007759  0.000785
  4H   1s        -0.005697  0.034591  0.026811 -0.110364  0.017460  0.062377
  4H   2s        -0.069326 -0.064305 -0.020330  0.038143  0.020742 -0.014414
  4H   1pz       -0.002553  0.000218  0.005364  0.007999  0.005830  0.002297
  4H   1px        0.009964 -0.016664 -0.010383 -0.000691  0.012345  0.011225
  4H   1py       -0.020791  0.004745 -0.003849  0.005884  0.007759  0.000785
                     24        25        26        27        28        29   
                  -0.83784  -0.76347  -0.58846  -0.58453  -0.41547  -0.41114
                   2.00000   0.00000   0.00000   0.00000   0.00000   0.00000
                  --------  --------  --------  --------  --------  --------
  0C   1s         0.000000 -0.050341  0.007822  0.000000  0.000000 -0.020760
  0C   2s        -0.000000  0.018405 -0.051663 -0.000000  0.000000  0.029530
  0C   3s         0.000000 -0.104389  0.040173 -0.000000 -0.000000 -0.906406
  0C   1pz        0.020354  0.186828 -0.335993 -0.515418 -0.279015  0.108106
  0C   1px        0.020354 -0.186828  0.335993 -0.515418 -0.279015 -0.108106
  0C   1py       -0.000000 -0.000060  0.603629  0.000000 -0.000000  0.093397
  0C   2pz       -0.026108  0.060980 -0.169649 -0.344994  0.207569  0.252545
  0C   2px       -0.026108 -0.060980  0.169649 -0.344994  0.207569 -0.252545
  0C   2py       -0.000000  0.042600  0.299039  0.000000 -0.000000  0.422904
  0C   1dz2       0.038424 -0.045150  0.040857  0.063813  0.163756 -0.024229
  0C   1dxz      -0.000000  0.047169 -0.044037  0.000000 -0.000000  0.059128
  0C   1dyz      -0.087308 -0.016088 -0.017559  0.041348  0.135983  0.063410
  0C   1dx2y2    -0.022184 -0.078202  0.070767 -0.036842 -0.094545 -0.041967
  0C   1dxy      -0.087308  0.016088  0.017559  0.041348  0.135983 -0.063410
  1I   1s         0.000000 -0.002311  0.007975  0.000000  0.000000 -0.063811
  1I   2s         0.000000 -0.013268  0.015075  0.000000  0.000000 -0.125564
  1I   3s        -0.000000  0.158174 -0.114511 -0.000000 -0.000000  0.914084
  1I   4s        -0.000000  0.154205  0.122989  0.000000  0.000000  0.159439
  1I   1pz        0.000042  0.000116 -0.007361 -0.016010  0.007824 -0.012722
  1I   1px        0.000042 -0.000116  0.007361 -0.016010  0.007824  0.012722
  1I   1py        0.000000  0.002309  0.016155 -0.000000 -0.000000  0.004163
  1I   2pz       -0.000746 -0.002044 -0.013465 -0.034215  0.036458 -0.034970
  1I   2px       -0.000746  0.002044  0.013465 -0.034215  0.036458  0.034970
  1I   2py        0.000000  0.013041  0.033128 -0.000000 -0.000000  0.026554
  1I   3pz       -0.007244  0.074463  0.119486  0.267609 -0.077730  0.232927
  1I   3px       -0.007244 -0.074463 -0.119486  0.267609 -0.077730 -0.232927
  1I   3py       -0.000000  0.091266 -0.281354  0.000000 -0.000000 -0.009656
  1I   4pz       -0.002855  0.038971  0.108063  0.115311  0.134835  0.088080
  1I   4px       -0.002855 -0.038971 -0.108063  0.115311  0.134835 -0.088080
  1I   4py       -0.000000  0.063809 -0.133483  0.000000 -0.000000  0.235941
  1I   1dz2      -0.148067  0.037433 -0.096028 -0.161322  0.037401 -0.018792
  1I   1dxz       0.000000  0.124523  0.100192  0.000000 -0.000000  0.056317
  1I   1dyz       0.151576  0.076093  0.041181 -0.104600  0.035939  0.044317
  1I   1dx2y2     0.085486  0.064836 -0.166325  0.093139 -0.021593 -0.032548
  1I   1dxy       0.151576 -0.076093 -0.041181 -0.104600  0.035939 -0.044317
  1I   2dz2       0.518758 -0.192424  0.557984  0.944891  0.077757  0.051133
  1I   2dxz       0.000000 -0.497882 -0.602664 -0.000000  0.000000 -0.266769
  1I   2dyz      -0.571922 -0.186434 -0.264065  0.593980 -0.023725 -0.134575
  1I   2dx2y2    -0.299505 -0.333288  0.966456 -0.545533 -0.044893  0.088564
  1I   2dxy      -0.571922  0.186434  0.264065  0.593980 -0.023725  0.134575
  2Cl  1s         0.000000 -0.070040 -0.007264 -0.000000 -0.000000  0.014356
  2Cl  2s        -0.000000  0.439814  0.045862  0.000000  0.000000 -0.092069
  2Cl  3s         0.000000 -0.571537 -0.047384  0.000000 -0.000000  0.146238
  2Cl  4s        -0.000000 -0.417392  0.010437 -0.000000  0.000000  0.124458
  2Cl  1pz        0.015578  0.000868 -0.024447  0.004663  0.113979  0.177398
  2Cl  1px        0.015578 -0.000868  0.024447  0.004663  0.113979 -0.177398
  2Cl  1py       -0.000000  0.000828 -0.056323 -0.000000 -0.000000  0.022513
  2Cl  2pz        0.027213 -0.002946 -0.048016  0.004789  0.199434  0.303983
  2Cl  2px        0.027213  0.002946  0.048016  0.004789  0.199434 -0.303983
  2Cl  2py       -0.000000  0.001239 -0.100374 -0.000000 -0.000000  0.038173
  2Cl  3pz        0.022798  0.064412 -0.019599  0.043733  0.214548  0.363307
  2Cl  3px        0.022798 -0.064412  0.019599  0.043733  0.214548 -0.363307
  2Cl  3py       -0.000000 -0.023735 -0.045142  0.000000  0.000000  0.046897
  2Cl  1dz2      -0.019057 -0.006155  0.004191 -0.010956 -0.033562 -0.020035
  2Cl  1dxz       0.000000  0.021327  0.007617  0.000000 -0.000000  0.055904
  2Cl  1dyz       0.002120  0.008127  0.021988 -0.000335  0.010563  0.003728
  2Cl  1dx2y2     0.011003 -0.010660  0.007260  0.006326  0.019377 -0.034702
  2Cl  1dxy       0.002120 -0.008127 -0.021988 -0.000335  0.010563 -0.003728
  3H   1s         0.047513  0.046697  0.050500  0.099956 -0.342781  0.103075
  3H   2s        -0.033272 -0.005441 -0.073142 -0.151718 -0.039420  0.014290
  3H   1pz       -0.016503 -0.000770  0.001283  0.001834  0.024058 -0.000751
  3H   1px       -0.009537  0.009604  0.019006  0.044659 -0.026874  0.012836
  3H   1py        0.008785 -0.007474 -0.023854 -0.039337  0.026278 -0.015073
  4H   1s        -0.047513  0.046697  0.050500 -0.099956  0.342781  0.103075
  4H   2s         0.033272 -0.005441 -0.073142  0.151718  0.039420  0.014290
  4H   1pz       -0.009537 -0.009604 -0.019006  0.044659 -0.026874 -0.012836
  4H   1px       -0.016503  0.000770 -0.001283  0.001834  0.024058  0.000751
  4H   1py       -0.008785 -0.007474 -0.023854  0.039337 -0.026278 -0.015073
                     30        31        32        33        34        35   
                  -0.38820  -0.36046  -0.30918  -0.21304  -0.16667  -0.09395
                   0.00000   0.00000   0.00000   0.00000   0.00000   0.00000
                  --------  --------  --------  --------  --------  --------
  0C   1s         0.016770  0.000000  0.015677 -0.236494 -0.007843  0.045462
  0C   2s         0.142163 -0.000000 -1.476159  3.292525 -1.364646 -0.411723
  0C   3s         0.626350  0.000000  0.460965 -3.567533  1.704260  0.606534
  0C   1pz       -0.022800 -0.182770  0.518629 -0.324440  0.381536 -0.077028
  0C   1px        0.022800 -0.182770 -0.518629  0.324440 -0.381536  0.077028
  0C   1py       -0.438576  0.000000  0.411359 -0.306565  0.521516  0.010338
  0C   2pz       -0.224979 -0.099962  0.085942  0.733971 -0.076147  0.259719
  0C   2px        0.224979 -0.099962 -0.085942 -0.733971  0.076147 -0.259719
  0C   2py       -0.257146 -0.000000  0.047395  0.831180 -0.317579 -0.871368
  0C   1dz2      -0.057613  0.030820 -0.007352  0.007222  0.031676  0.077749
  0C   1dxz       0.167629 -0.000000  0.046208 -0.060643  0.019257  0.119953
  0C   1dyz       0.063697  0.148697 -0.038700  0.048278 -0.073897  0.078720
  0C   1dx2y2    -0.099788 -0.017794 -0.012733  0.012509  0.054865  0.134666
  0C   1dxy      -0.063697  0.148697  0.038700 -0.048278  0.073897 -0.078720
  1I   1s         0.080992 -0.000000 -0.128050  0.043938  0.042793 -0.002152
  1I   2s         0.164447 -0.000000 -0.294101  0.140022  0.042667 -0.001247
  1I   3s        -1.208055  0.000000  2.128678 -0.667797 -0.401117 -0.130596
  1I   4s         0.345409 -0.000000 -1.210729  2.111278  0.766880 -0.338665
  1I   1pz        0.009091 -0.000268 -0.011017  0.023786 -0.024794  0.016854
  1I   1px       -0.009091 -0.000268  0.011017 -0.023786  0.024794 -0.016854
  1I   1py        0.005608 -0.000000 -0.023360  0.012518 -0.029541 -0.032510
  1I   2pz        0.012215  0.007838 -0.002756  0.040198 -0.056625  0.054946
  1I   2px       -0.012215  0.007838  0.002756 -0.040198  0.056625 -0.054946
  1I   2py        0.017875 -0.000000 -0.042344 -0.001677 -0.075166 -0.102589
  1I   3pz       -0.255881  0.041975  0.539391 -0.756903  0.739693 -0.378662
  1I   3px        0.255881  0.041975 -0.539391  0.756903 -0.739693  0.378662
  1I   3py       -0.126785  0.000000  0.761086 -0.569425  0.824760  0.635531
  1I   4pz       -0.082575  0.065575  0.111897  0.443722 -0.350689  0.461168
  1I   4px        0.082575  0.065575 -0.111897 -0.443722  0.350689 -0.461168
  1I   4py       -0.025584 -0.000000 -0.016307  0.133390 -0.455778 -0.868426
  1I   1dz2       0.000146 -0.023956  0.005736  0.001346  0.004618  0.008656
  1I   1dxz       0.030725  0.000000 -0.030555 -0.027453 -0.011588  0.050299
  1I   1dyz      -0.002783  0.048479 -0.006265  0.007781  0.013878  0.015911
  1I   1dx2y2     0.000253  0.013831  0.009935  0.002332  0.007998  0.014993
  1I   1dxy       0.002783  0.048479  0.006265 -0.007781 -0.013878 -0.015911
  1I   2dz2      -0.124850  0.278180 -0.053605  0.013682  0.009863 -0.060524
  1I   2dxz       0.101700 -0.000000 -0.379375  0.839026 -0.499093 -0.287255
  1I   2dyz      -0.045118 -0.130615  0.591181 -0.779094  0.428912 -0.067893
  1I   2dx2y2    -0.216247 -0.160607 -0.092846  0.023698  0.017083 -0.104830
  1I   2dxy       0.045118 -0.130615 -0.591181  0.779094 -0.428912  0.067893
  2Cl  1s         0.003130  0.000000  0.001525 -0.004197 -0.007561 -0.013854
  2Cl  2s        -0.018660 -0.000000 -0.009867  0.027523  0.049955  0.094002
  2Cl  3s         0.025423  0.000000  0.008406 -0.063867 -0.034895 -0.102757
  2Cl  4s        -0.057768 -0.000000 -0.016324  0.200985 -0.363663 -0.791115
  2Cl  1pz        0.042192 -0.159915 -0.014657  0.008410  0.068896  0.038017
  2Cl  1px       -0.042192 -0.159915  0.014657 -0.008410 -0.068896 -0.038017
  2Cl  1py       -0.209186  0.000000 -0.170175 -0.085417 -0.001991  0.025495
  2Cl  2pz        0.077528 -0.278422 -0.022119  0.014122  0.119459  0.069088
  2Cl  2px       -0.077528 -0.278422  0.022119 -0.014122 -0.119459 -0.069088
  2Cl  2py       -0.371528  0.000000 -0.299373 -0.148286  0.001121  0.045152
  2Cl  3pz        0.128211 -0.360061 -0.054672 -0.072976  0.310907  0.386928
  2Cl  3px       -0.128211 -0.360061  0.054672  0.072976 -0.310907 -0.386928
  2Cl  3py       -0.440140  0.000000 -0.408629 -0.183347 -0.076531 -0.082672
  2Cl  1dz2       0.005028  0.042231  0.002619 -0.015496 -0.001385 -0.006751
  2Cl  1dxz       0.019897  0.000000 -0.014560 -0.013587  0.006960  0.066799
  2Cl  1dyz       0.038563 -0.009432 -0.000628 -0.013931 -0.002344  0.046987
  2Cl  1dx2y2     0.008708 -0.024382  0.004536 -0.026839 -0.002398 -0.011694
  2Cl  1dxy      -0.038563 -0.009432  0.000628  0.013931  0.002344 -0.046987
  3H   1s         0.191140 -0.349003 -0.087617 -0.122312 -0.286415  0.191705
  3H   2s         0.070682 -0.219964 -0.156361  0.023449 -0.462498  0.357109
  3H   1pz       -0.025215  0.028590  0.026832 -0.012923  0.019894 -0.013492
  3H   1px        0.012475 -0.022817 -0.004681 -0.021759 -0.014399 -0.011738
  3H   1py       -0.008511  0.020360  0.007163  0.014585  0.013683 -0.023353
  4H   1s         0.191140  0.349003 -0.087617 -0.122312 -0.286415  0.191705
  4H   2s         0.070682  0.219964 -0.156361  0.023449 -0.462498  0.357109
  4H   1pz       -0.012475 -0.022817  0.004681  0.021759  0.014399  0.011738
  4H   1px        0.025215  0.028590 -0.026832  0.012923 -0.019894  0.013492
  4H   1py       -0.008511 -0.020360  0.007163  0.014585  0.013683 -0.023353
                     36        37        38        39        40        41   
                  -0.06748  -0.00994   0.07542   0.12120   0.18583   0.19759
                   0.00000   0.00000   0.00000   0.00000   0.00000   0.00000
                  --------  --------  --------  --------  --------  --------
  0C   1s         0.000000  0.077173 -0.007591  0.000000  0.029584  0.000000
  0C   2s        -0.000000 -0.834238  0.133957  0.000000  0.731797  0.000000
  0C   3s         0.000000 -1.479688  0.102147  0.000000  7.354663  0.000000
  0C   1pz        0.055598  0.210072  0.064518  0.160753 -0.203391 -0.135079
  0C   1px        0.055598 -0.210072 -0.064518  0.160753  0.203391 -0.135079
  0C   1py        0.000000  0.081615 -0.175842 -0.000000 -0.332720 -0.000000
  0C   2pz        0.109485  0.479533 -1.225813 -1.776453 -1.182752  0.768988
  0C   2px        0.109485 -0.479533  1.225813 -1.776453  1.182752  0.768988
  0C   2py       -0.000000  1.163222  1.697482 -0.000000 -1.003673 -0.000000
  0C   1dz2       0.027243 -0.049704 -0.142576 -0.322327  0.001709 -0.043180
  0C   1dxz       0.000000 -0.124735 -0.086381  0.000000  0.207236  0.000000
  0C   1dyz      -0.104720  0.096464 -0.100927  0.152172  0.035179  0.246861
  0C   1dx2y2    -0.015729 -0.086089 -0.246949  0.186096  0.002959  0.024930
  0C   1dxy      -0.104720 -0.096464  0.100927  0.152172 -0.035179  0.246861
  1I   1s         0.000000 -0.081030  0.020856  0.000000  0.025608  0.000000
  1I   2s        -0.000000 -0.181040  0.040497  0.000000  0.067666  0.000000
  1I   3s        -0.000000  1.595960 -0.320487 -0.000000 -0.467321 -0.000000
  1I   4s        -0.000000  0.204720  0.036229 -0.000000 -6.453385 -0.000000
  1I   1pz        0.031196 -0.037955  0.011684 -0.002061  0.017690  0.003938
  1I   1px        0.031196  0.037955 -0.011684 -0.002061 -0.017690  0.003938
  1I   1py       -0.000000 -0.042180 -0.000031  0.000000  0.017346  0.000000
  1I   2pz        0.101694 -0.093164  0.036736 -0.005416  0.027690  0.018358
  1I   2px        0.101694  0.093164 -0.036736 -0.005416 -0.027690  0.018358
  1I   2py       -0.000000 -0.107177 -0.010623  0.000000  0.032020  0.000000
  1I   3pz       -0.644745  0.756629 -0.195811  0.056528 -0.451069 -0.091172
  1I   3px       -0.644745 -0.756629  0.195811  0.056528  0.451069 -0.091172
  1I   3py        0.000000  0.833282  0.038179 -0.000000 -0.417346 -0.000000
  1I   4pz        1.076404 -0.483993  0.766921  0.685169 -2.042605  0.212785
  1I   4px        1.076404  0.483993 -0.766921  0.685169  2.042605  0.212785
  1I   4py       -0.000000 -0.859179 -1.147679 -0.000000 -2.018938 -0.000000
  1I   1dz2      -0.016579 -0.012310 -0.048167 -0.075111 -0.004345  0.013652
  1I   1dxz       0.000000 -0.016073  0.016936 -0.000000 -0.042149 -0.000000
  1I   1dyz      -0.030416  0.008472  0.006682 -0.005637  0.054993  0.002653
  1I   1dx2y2     0.009572 -0.021321 -0.083428  0.043365 -0.007525 -0.007882
  1I   1dxy      -0.030416 -0.008472 -0.006682 -0.005637 -0.054993  0.002653
  1I   2dz2       0.008036  0.041938  0.263544  0.399063 -0.038851  0.079782
  1I   2dxz      -0.000000 -0.042152 -0.057146  0.000000  0.603553  0.000000
  1I   2dyz       0.127358  0.136267 -0.014619 -0.022426 -0.609244  0.041935
  1I   2dx2y2    -0.004640  0.072639  0.456472 -0.230399 -0.067293 -0.046062
  1I   2dxy       0.127358 -0.136267  0.014619 -0.022426  0.609244  0.041935
  2Cl  1s        -0.000000  0.003110  0.000294  0.000000  0.024579  0.000000
  2Cl  2s         0.000000 -0.019501 -0.002315 -0.000000 -0.174030 -0.000000
  2Cl  3s        -0.000000 -0.064492 -0.070048  0.000000  0.484177  0.000000
  2Cl  4s        -0.000000  0.563653  0.903292 -0.000000 -0.186721  0.000000
  2Cl  1pz       -0.043615 -0.040798  0.026616  0.057988 -0.027213  0.023579
  2Cl  1px       -0.043615  0.040798 -0.026616  0.057988  0.027213  0.023579
  2Cl  1py        0.000000 -0.020127  0.057471 -0.000000  0.019029  0.000000
  2Cl  2pz       -0.079620 -0.063096  0.050558  0.107474 -0.055506  0.058584
  2Cl  2px       -0.079620  0.063096 -0.050558  0.107474  0.055506  0.058584
  2Cl  2py        0.000000 -0.045004  0.102584 -0.000000  0.037272  0.000000
  2Cl  3pz       -0.140646 -0.363897 -0.211128  0.258884 -0.087839 -0.036178
  2Cl  3px       -0.140646  0.363897  0.211128  0.258884  0.087839 -0.036178
  2Cl  3py        0.000000  0.029067  0.533160 -0.000000  0.009776  0.000000
  2Cl  1dz2      -0.046040 -0.028702  0.036808  0.158962  0.018831  0.020920
  2Cl  1dxz       0.000000  0.003781 -0.111128  0.000000 -0.013763 -0.000000
  2Cl  1dyz       0.001998  0.010705  0.007598 -0.117133  0.019293 -0.060174
  2Cl  1dx2y2     0.026581 -0.049713  0.063753 -0.091777  0.032617 -0.012078
  2Cl  1dxy       0.001998 -0.010705 -0.007598 -0.117133 -0.019293 -0.060174
  3H   1s         0.257171  0.111884 -0.100580 -0.249583  0.447228 -0.350553
  3H   2s         0.436134  0.481347 -0.430014 -1.073160 -0.594466  1.915176
  3H   1pz       -0.007312  0.045836  0.017241  0.052322 -0.053491  0.045875
  3H   1px        0.012761  0.012491  0.034532 -0.040370  0.001011 -0.031709
  3H   1py        0.003713  0.003826  0.032691 -0.028309 -0.025013 -0.009713
  4H   1s        -0.257171  0.111884 -0.100580  0.249583  0.447228  0.350553
  4H   2s        -0.436134  0.481347 -0.430014  1.073160 -0.594466 -1.915176
  4H   1pz        0.012761 -0.012491 -0.034532 -0.040370 -0.001011 -0.031709
  4H   1px       -0.007312 -0.045836 -0.017241  0.052322  0.053491  0.045875
  4H   1py       -0.003713  0.003826  0.032691  0.028309 -0.025013  0.009713
                     42        43        44        45        46        47   
                   0.26614   0.38878   0.46588   0.55880   0.58625   0.60915
                   0.00000   0.00000   0.00000   0.00000   0.00000   0.00000
                  --------  --------  --------  --------  --------  --------
  0C   1s         0.085367 -0.106581 -0.057762  0.011363 -0.027717  0.000000
  0C   2s        -1.499432  0.831979  1.104903  0.075486  0.296563 -0.000000
  0C   3s        -3.558182 -8.680616  4.121595 -4.449794  3.834303  0.000000
  0C   1pz        0.098805  0.383276 -0.129937  0.199715 -0.074160 -0.035039
  0C   1px       -0.098805 -0.383276  0.129937 -0.199715  0.074160 -0.035039
  0C   1py       -0.051134  0.339122 -0.116946  0.066586 -0.049606  0.000000
  0C   2pz        1.308087  0.374994 -1.457208 -0.020793 -1.281841  0.314368
  0C   2px       -1.308087 -0.374994  1.457208  0.020793  1.281841  0.314368
  0C   2py        2.356778  0.595386 -1.022893  1.414352 -0.138743 -0.000000
  0C   1dz2      -0.012594 -0.012679 -0.042572  0.234277  0.136235  0.012282
  0C   1dxz       0.175060  0.271742  0.167042 -0.112000  0.060751  0.000000
  0C   1dyz       0.187711  0.115287  0.009995 -0.131711  0.024024  0.025949
  0C   1dx2y2    -0.021813 -0.021961 -0.073737  0.405779  0.235965 -0.007091
  0C   1dxy      -0.187711 -0.115287 -0.009995  0.131711 -0.024024  0.025949
  1I   1s        -0.023557 -0.050087  0.027155 -0.030617  0.031698  0.000000
  1I   2s        -0.058784 -0.128734  0.067718 -0.091650  0.080355  0.000000
  1I   3s         0.376824  1.296329 -0.373933  1.064957 -0.776460 -0.000000
  1I   4s         6.415814  3.901919 -5.652595  2.196617 -3.298988 -0.000000
  1I   1pz       -0.020593 -0.014715  0.018934 -0.011448  0.010261  0.002706
  1I   1px        0.020593  0.014715 -0.018934  0.011448 -0.010261  0.002706
  1I   1py       -0.017748 -0.018471  0.021096  0.001724  0.013854 -0.000000
  1I   2pz       -0.049027 -0.033407  0.040084 -0.021528  0.018153  0.010911
  1I   2px        0.049027  0.033407 -0.040084  0.021528 -0.018153  0.010911
  1I   2py       -0.024413 -0.036608  0.055088  0.004189  0.037952 -0.000000
  1I   3pz        0.476777  0.510613 -0.458336  0.557554 -0.282380 -0.071331
  1I   3px       -0.476777 -0.510613  0.458336 -0.557554  0.282380 -0.071331
  1I   3py        0.402567  0.633317 -0.544447  0.073951 -0.489964  0.000000
  1I   4pz        1.754678  0.977403 -1.646495  0.573392 -0.592931  0.008364
  1I   4px       -1.754678 -0.977403  1.646495 -0.573392  0.592931  0.008364
  1I   4py        1.953320  0.813407 -1.382885  0.285392 -1.235374 -0.000000
  1I   1dz2      -0.012828 -0.010447 -0.006499  0.009457 -0.008608 -0.002703
  1I   1dxz       0.045030  0.007657 -0.036431 -0.035972  0.019742  0.000000
  1I   1dyz      -0.035532  0.012428  0.016042  0.006507  0.013942  0.002461
  1I   1dx2y2    -0.022219 -0.018094 -0.011256  0.016380 -0.014910  0.001561
  1I   1dxy       0.035532 -0.012428 -0.016042 -0.006507 -0.013942  0.002461
  1I   2dz2      -0.028999 -0.048743 -0.029905  0.179898  0.145853  0.003678
  1I   2dxz      -0.420678 -0.207962  0.562951 -0.283996 -0.095209 -0.000000
  1I   2dyz       0.496029  0.211593 -0.339456  0.037445 -0.275658 -0.004626
  1I   2dx2y2    -0.050228 -0.084426 -0.051797  0.311592  0.252625 -0.002123
  1I   2dxy      -0.496029 -0.211593  0.339456 -0.037445  0.275658 -0.004626
  2Cl  1s        -0.005481  0.027827 -0.059033 -0.021874  0.016279  0.000000
  2Cl  2s         0.044847 -0.197801  0.448327  0.164427 -0.120037 -0.000000
  2Cl  3s        -0.241869  0.437683 -1.959082 -0.770206  0.429382  0.000000
  2Cl  4s         0.186291  0.696463  2.659455  1.688827 -0.141420 -0.000000
  2Cl  1pz       -0.004559  0.007518 -0.032126 -0.035291  0.093818 -0.056287
  2Cl  1px        0.004559 -0.007518  0.032126  0.035291 -0.093818 -0.056287
  2Cl  1py        0.015999  0.022091  0.006464  0.127204  0.027435  0.000000
  2Cl  2pz        0.028879  0.061877 -0.042135 -0.104165  0.304656 -0.183151
  2Cl  2px       -0.028879 -0.061877  0.042135  0.104165 -0.304656 -0.183151
  2Cl  2py        0.010846 -0.006078 -0.018312  0.393002  0.089907  0.000000
  2Cl  3pz       -0.164742 -0.516157 -0.358132 -0.277590 -0.310016  0.131837
  2Cl  3px        0.164742  0.516157  0.358132  0.277590  0.310016  0.131837
  2Cl  3py        0.071795  0.636366  0.293236  0.043939  0.033456 -0.000000
  2Cl  1dz2      -0.063865  0.028089  0.067261 -0.257109 -0.148541  0.737021
  2Cl  1dxz       0.181154  0.068903  0.269157 -0.249585  0.685848  0.000000
  2Cl  1dyz       0.148235  0.227567  0.153472 -0.105191 -0.207806  0.325397
  2Cl  1dx2y2    -0.110617  0.048652  0.116500 -0.445326 -0.257280 -0.425519
  2Cl  1dxy      -0.148235 -0.227567 -0.153472  0.105191  0.207806  0.325397
  3H   1s         0.173497  0.257929 -0.171080  0.409787 -0.398364  0.092060
  3H   2s        -1.856964  1.173044  0.511629  0.079204  0.141728  0.272852
  3H   1pz       -0.001398 -0.015128  0.005400 -0.101614 -0.031633 -0.012781
  3H   1px       -0.007648  0.009173 -0.003806  0.027975  0.009769  0.039480
  3H   1py       -0.021122 -0.042871  0.000706 -0.083978 -0.015312  0.056087
  4H   1s         0.173497  0.257929 -0.171080  0.409787 -0.398364 -0.092060
  4H   2s        -1.856964  1.173044  0.511629  0.079204  0.141728 -0.272852
  4H   1pz        0.007648 -0.009173  0.003806 -0.027975 -0.009769  0.039480
  4H   1px        0.001398  0.015128 -0.005400  0.101614  0.031633 -0.012781
  4H   1py       -0.021122 -0.042871  0.000706 -0.083978 -0.015312 -0.056087
                     48        49        50        51        52        53   
                   0.64592   0.65628   0.70265   0.77333   0.83743   0.87925
                   0.00000   0.00000   0.00000   0.00000   0.00000   0.00000
                  --------  --------  --------  --------  --------  --------
  0C   1s         0.029490  0.000000 -0.000000  0.001803 -0.000000  0.003982
  0C   2s        -0.383630 -0.000000 -0.000000  0.015652  0.000000  0.137227
  0C   3s        -6.387731  0.000000 -0.000000  1.928126 -0.000000  1.430573
  0C   1pz        0.209746 -0.021114  0.119522 -0.086927  0.076995 -0.069852
  0C   1px       -0.209746 -0.021114  0.119522  0.086927  0.076995  0.069852
  0C   1py        0.183857 -0.000000  0.000000  0.065686  0.000000 -0.131936
  0C   2pz        1.303900  0.468230 -1.739798  0.346459 -0.684584 -0.011724
  0C   2px       -1.303900  0.468230 -1.739798 -0.346459 -0.684584  0.011724
  0C   2py        0.612623 -0.000000  0.000000 -2.173573  0.000000  0.064488
  0C   1dz2      -0.126877 -0.428954  0.688487 -0.400880  0.019736  0.107566
  0C   1dxz      -0.144389  0.000000 -0.000000  0.006895 -0.000000 -0.114363
[...]



------------------- 
Dispersion Gradient 
------------------- 
   1  :   -0.000029497    0.000218808    0.000029419
   2  :    0.001063536   -0.000452427   -0.001064342
   3  :   -0.000941181   -0.000243412    0.000942731
   4  :   -0.000196927    0.000238688   -0.000128743
   5  :    0.000128270    0.000238408    0.000196773

  |G| =    0.006113164


The revPBE functional is recognized
Active option DFTDOPT                   ...         5   



------------------- 
Dispersion Gradient 
------------------- 
   1  :   -0.000029243    0.000218651    0.000029321
   2  :    0.001064851   -0.000452372   -0.001064046
   3  :   -0.000944927   -0.000244771    0.000943375
   4  :   -0.000196582    0.000238889   -0.000128992
   5  :    0.000129466    0.000239168    0.000196736

  |G| =    0.006121390


The revPBE functional is recognized
Active option DFTDOPT                   ...         5   



------------------- 
Dispersion Gradient 
------------------- 
   1  :   -0.000028701    0.000219021    0.000029747
   2  :    0.001064016   -0.000452381   -0.001064227
   3  :   -0.000943652   -0.000244431    0.000943180
   4  :   -0.000196867    0.000238864   -0.000128818
   5  :    0.000130039    0.000239489    0.000196863

  |G| =    0.006120296


The revPBE functional is recognized
Active option DFTDOPT                   ...         5   



------------------- 
Dispersion Gradient 
------------------- 
   1  :   -0.000030020    0.000218452    0.000029004
   2  :    0.001064378   -0.000452420   -0.001064168
   3  :   -0.000942456   -0.000243749    0.000942927
   4  :   -0.000196643    0.000238713   -0.000128920
   5  :    0.000127710    0.000238096    0.000196656

  |G| =    0.006114312


Dispersion correction Hessian from Numerical Differentiation: 
                  0          1          2          3          4          5    
      0      -0.000167   0.000000   0.000000   0.000000   0.000000   0.000000
      1       0.000000   0.000000   0.000000   0.000000   0.000000   0.000000
      2       0.000000   0.000000   0.000000   0.000000   0.000000   0.000000
      3       0.000000   0.000000   0.000000   0.000000   0.000000   0.000000
      4       0.000000   0.000000   0.000000   0.000000   0.000000   0.000000
      5       0.000000   0.000000   0.000000   0.000000   0.000000   0.000000
      6      -0.000025   0.000016   0.000010  -0.000131  -0.000005  -0.000030
      7       0.000000   0.000000   0.000000   0.000000   0.000000   0.000000
      8       0.000000   0.000000   0.000000   0.000000   0.000000   0.000000
      9       0.000000   0.000000   0.000000   0.000000   0.000000   0.000000
     10       0.000000   0.000000   0.000000   0.000000   0.000000   0.000000
     11       0.000000   0.000000   0.000000   0.000000   0.000000   0.000000
     12       0.000132   0.000057   0.000074  -0.000036   0.000004  -0.000006
     13       0.000000   0.000000   0.000000   0.000000   0.000000   0.000000
     14       0.000000   0.000000   0.000000   0.000000   0.000000   0.000000
                  6          7          8          9         10         11    
      0      -0.000025   0.000000   0.000000   0.000000   0.000000   0.000000
      1       0.000016   0.000000   0.000000   0.000000   0.000000   0.000000
      2       0.000010   0.000000   0.000000   0.000000   0.000000   0.000000
      3      -0.000131   0.000000   0.000000   0.000000   0.000000   0.000000
      4      -0.000005   0.000000   0.000000   0.000000   0.000000   0.000000
      5      -0.000030   0.000000   0.000000   0.000000   0.000000   0.000000
      6       0.000375   0.000000   0.000000   0.000000   0.000000   0.000000
      7       0.000000   0.000000   0.000000   0.000000   0.000000   0.000000
      8       0.000000   0.000000   0.000000   0.000000   0.000000   0.000000
      9       0.000000   0.000000   0.000000   0.000000   0.000000   0.000000
     10       0.000000   0.000000   0.000000   0.000000   0.000000   0.000000
     11       0.000000   0.000000   0.000000   0.000000   0.000000   0.000000
     12      -0.000120  -0.000068   0.000025  -0.000022   0.000015   0.000010
     13       0.000000   0.000000   0.000000   0.000000   0.000000   0.000000
     14       0.000000   0.000000   0.000000   0.000000   0.000000   0.000000
                  12         13         14    
      0       0.000132   0.000000   0.000000
      1       0.000057   0.000000   0.000000
      2       0.000074   0.000000   0.000000
      3      -0.000036   0.000000   0.000000
      4       0.000004   0.000000   0.000000
      5      -0.000006   0.000000   0.000000
      6      -0.000120   0.000000   0.000000
      7      -0.000068   0.000000   0.000000
      8       0.000025   0.000000   0.000000
      9      -0.000022   0.000000   0.000000
     10       0.000015   0.000000   0.000000
     11       0.000010   0.000000   0.000000
     12       0.000233   0.000000   0.000000
     13       0.000000   0.000000   0.000000
     14       0.000000   0.000000   0.000000

done   (      0.3 sec)
gCP correction in the Hessian                    ...  
-----------------
gCP hessian 
from Numerical Differentiation: 
-----------------
                  0          1          2          3          4          5    
      0      -0.000103   0.000060   0.000081  -0.000171   0.000553   0.000634
      1       0.000060  -0.000403  -0.000060   0.000553  -0.000020  -0.000553
      2       0.000081  -0.000060  -0.000103   0.000634  -0.000553  -0.000171
      3      -0.000171   0.000553   0.000634   0.000592  -0.001462  -0.001384
      4       0.000553  -0.000020  -0.000553  -0.001462   0.000584   0.001462
      5       0.000634  -0.000553  -0.000171  -0.001384   0.001462   0.000592
      6      -0.000088  -0.000580   0.000605  -0.000155   0.000017   0.000254
      7      -0.000580  -0.000039   0.000580   0.000017   0.000098  -0.000017
      8       0.000605   0.000580  -0.000088   0.000254  -0.000017  -0.000155
      9       0.000216   0.000618  -0.000660  -0.000456   0.000665   0.000248
     10       0.000618   0.000231   0.000652   0.000665  -0.000331  -0.000226
     11      -0.000660   0.000652   0.000146   0.000248  -0.000226   0.000191
     12       0.000146  -0.000652  -0.000660   0.000191   0.000226   0.000248
     13      -0.000652   0.000231  -0.000618   0.000226  -0.000331  -0.000665
     14      -0.000660  -0.000618   0.000216   0.000248  -0.000665  -0.000456
                  6          7          8          9         10         11    
      0      -0.000088  -0.000580   0.000605   0.000216   0.000618  -0.000660
      1      -0.000580  -0.000039   0.000580   0.000618   0.000231   0.000652
      2       0.000605   0.000580  -0.000088  -0.000660   0.000652   0.000146
      3      -0.000155   0.000017   0.000254  -0.000456   0.000665   0.000248
      4       0.000017   0.000098  -0.000017   0.000665  -0.000331  -0.000226
      5       0.000254  -0.000017  -0.000155   0.000248  -0.000226   0.000191
      6       0.000343   0.001157  -0.001102   0.000187  -0.000115   0.000122
      7       0.001157   0.000418  -0.001157  -0.000115  -0.000238   0.000479
      8      -0.001102  -0.001157   0.000343   0.000122   0.000479  -0.000287
      9       0.000187  -0.000115   0.000122   0.000099  -0.001168   0.000394
     10      -0.000115  -0.000238   0.000479  -0.001168   0.000280  -0.000905
     11       0.000122   0.000479  -0.000287   0.000394  -0.000905  -0.000004
     12      -0.000287  -0.000479   0.000122  -0.000046  -0.000000  -0.000104
     13      -0.000479  -0.000238   0.000115  -0.000000   0.000058  -0.000000
     14       0.000122   0.000115   0.000187  -0.000104  -0.000000  -0.000046
                  12         13         14    
      0       0.000146  -0.000652  -0.000660
      1      -0.000652   0.000231  -0.000618
      2      -0.000660  -0.000618   0.000216
      3       0.000191   0.000226   0.000248
      4       0.000226  -0.000331  -0.000665
      5       0.000248  -0.000665  -0.000456
      6      -0.000287  -0.000479   0.000122
      7      -0.000479  -0.000238   0.000115
      8       0.000122   0.000115   0.000187
      9      -0.000046  -0.000000  -0.000104
     10      -0.000000   0.000058  -0.000000
     11      -0.000104  -0.000000  -0.000046
     12      -0.000004   0.000905   0.000394
     13       0.000905   0.000280   0.001168
     14       0.000394   0.001168   0.000099

done   (      0.0 sec)
Dipol derivatives                                ... done   (      0.1 sec)

-------
TIMINGS
-------

Total SCF Hessian time: 0 days 0 hours 0 min 14 sec 
                   F(y)            G[Q(x)]           CPSCF         Total
Table01         0.6  0.04         0.3  0.02         5.5  0.39        14.1 
Table01a        0.6  0.04,        0.3, 0.02,        5.5  0.39        14.1 
Table01b        0.6   3.9,        0.3,  2.3,        5.5  39.2        14.1 

Writing the Hessian file to the disk             ... done


Maximum memory used throughout the entire calculation: 134.2 MB

-----------------------
VIBRATIONAL FREQUENCIES
-----------------------

Scaling factor for frequencies =  1.000000000  (already applied!)

   0:         0.00 cm**-1
   1:         0.00 cm**-1
   2:         0.00 cm**-1
   3:         0.00 cm**-1
   4:         0.00 cm**-1
   5:         0.00 cm**-1
   6:       183.65 cm**-1
   7:       485.56 cm**-1
   8:       702.07 cm**-1
   9:       766.07 cm**-1
  10:      1076.33 cm**-1
  11:      1154.13 cm**-1
  12:      1369.01 cm**-1
  13:      3015.35 cm**-1
  14:      3107.90 cm**-1


------------
NORMAL MODES
------------

These modes are the Cartesian displacements weighted by the diagonal matrix
M(i,i)=1/sqrt(m[i]) where m[i] is the mass of the displaced atom
Thus, these vectors are normalized but *not* orthogonal

                  0          1          2          3          4          5    
      0       0.000000   0.000000   0.000000   0.000000   0.000000   0.000000
      1       0.000000   0.000000   0.000000   0.000000   0.000000   0.000000
      2       0.000000   0.000000   0.000000   0.000000   0.000000   0.000000
      3       0.000000   0.000000   0.000000   0.000000   0.000000   0.000000
      4       0.000000   0.000000   0.000000   0.000000   0.000000   0.000000
      5       0.000000   0.000000   0.000000   0.000000   0.000000   0.000000
      6       0.000000   0.000000   0.000000   0.000000   0.000000   0.000000
      7       0.000000   0.000000   0.000000   0.000000   0.000000   0.000000
      8       0.000000   0.000000   0.000000   0.000000   0.000000   0.000000
      9       0.000000   0.000000   0.000000   0.000000   0.000000   0.000000
     10       0.000000   0.000000   0.000000   0.000000   0.000000   0.000000
     11       0.000000   0.000000   0.000000   0.000000   0.000000   0.000000
     12       0.000000   0.000000   0.000000   0.000000   0.000000   0.000000
     13       0.000000   0.000000   0.000000   0.000000   0.000000   0.000000
     14       0.000000   0.000000   0.000000   0.000000   0.000000   0.000000
                  6          7          8          9         10         11    
      0       0.193895  -0.284737   0.398114   0.109454   0.027463   0.060023
      1       0.343920   0.480398   0.413297   0.000000  -0.000000  -0.031486
      2      -0.193895   0.284737  -0.398114   0.109454   0.027463  -0.060023
      3      -0.149588   0.030225  -0.000418  -0.003884   0.001284   0.001085
      4       0.002379  -0.039077  -0.001851  -0.000000  -0.000000  -0.002465
      5       0.149588  -0.030225   0.000418  -0.003884   0.001284  -0.001085
      6       0.462929   0.002977  -0.144539  -0.013077  -0.011479   0.003621
      7      -0.145317  -0.045940  -0.155050  -0.000000   0.000000   0.013279
      8      -0.462929  -0.002977   0.144539  -0.013077  -0.011479  -0.003621
      9       0.120061  -0.295183   0.172361  -0.041003  -0.532311  -0.442185
     10       0.356768   0.405541   0.380810  -0.622375  -0.125739   0.109232
     11      -0.119687   0.221801  -0.220135  -0.314327   0.447155   0.536969
     12       0.119687  -0.221801   0.220135  -0.314327   0.447155  -0.536970
     13       0.356768   0.405541   0.380810   0.622375   0.125739   0.109232
     14      -0.120061   0.295183  -0.172361  -0.041003  -0.532311   0.442186
                  12         13         14    
      0       0.015251  -0.001999  -0.070553
      1       0.075806  -0.064212   0.000000
      2      -0.015251   0.001999  -0.070553
      3      -0.000542   0.000002   0.000035
      4       0.000468   0.000052  -0.000000
      5       0.000542  -0.000002   0.000035
      6       0.002039  -0.000011   0.000208
      7       0.004543   0.000185   0.000000
      8      -0.002039   0.000011   0.000208
      9      -0.379854  -0.410085   0.404707
     10      -0.560962   0.376018  -0.388940
     11      -0.194708  -0.434022   0.424217
     12       0.194708   0.434022   0.424217
     13      -0.560962   0.376018   0.388940
     14       0.379854   0.410085   0.404707


-----------
IR SPECTRUM
-----------

 Mode    freq (cm**-1)   T**2         TX         TY         TZ
-------------------------------------------------------------------
   6:       183.65    0.091623  (  0.137920   0.231471  -0.137920)
   7:       485.56   34.268767  ( -3.995914   1.527776   3.995915)
   8:       702.07  105.135689  (  7.219826   0.940172  -7.219825)
   9:       766.07    5.864008  ( -1.712309   0.000000  -1.712310)
  10:      1076.33    0.014842  (  0.086146  -0.000000   0.086143)
  11:      1154.13   67.828232  (  5.721304  -1.536743  -5.721305)
  12:      1369.01    0.050255  ( -0.079222   0.194172   0.079222)
  13:      3015.35    2.830628  ( -0.402209  -1.583377   0.402209)
  14:      3107.90    0.384987  (  0.438741   0.000000   0.438741)

The first frequency considered to be a vibration is 6
The total number of vibrations considered is 9


--------------------------
THERMOCHEMISTRY AT 298.15K
--------------------------

Temperature         ... 298.15 K
Pressure            ... 1.00 atm
Total Mass          ... 176.38 AMU

Throughout the following assumptions are being made:
  (1) The electronic state is orbitally nondegenerate
  (2) There are no thermally accessible electronically excited states
  (3) Hindered rotations indicated by low frequency modes are not
      treated as such but are treated as vibrations and this may
      cause some error
  (4) All equations used are the standard statistical mechanics
      equations for an ideal gas
  (5) All vibrations are strictly harmonic

freq.     183.65  E(vib)   ...       0.37 
freq.     485.56  E(vib)   ...       0.15 
freq.     702.07  E(vib)   ...       0.07 
freq.     766.07  E(vib)   ...       0.06 
freq.    1076.33  E(vib)   ...       0.02 
freq.    1154.13  E(vib)   ...       0.01 
freq.    1369.01  E(vib)   ...       0.01 
freq.    3015.35  E(vib)   ...       0.00 
freq.    3107.90  E(vib)   ...       0.00 

------------
INNER ENERGY
------------

The inner energy is: U= E(el) + E(ZPE) + E(vib) + E(rot) + E(trans)
    E(el)   - is the total energy from the electronic structure calculation
              = E(kin-el) + E(nuc-el) + E(el-el) + E(nuc-nuc)
    E(ZPE)  - the the zero temperature vibrational energy from the frequency calculation
    E(vib)  - the the finite temperature correction to E(ZPE) due to population
              of excited vibrational states
    E(rot)  - is the rotational thermal energy
    E(trans)- is the translational thermal energy

Summary of contributions to the inner energy U:
Electronic energy                ...   -796.96479337 Eh
Zero point energy                ...      0.02701923 Eh      16.95 kcal/mol
Thermal vibrational correction   ...      0.00107843 Eh       0.68 kcal/mol
Thermal rotational correction    ...      0.00141627 Eh       0.89 kcal/mol
Thermal translational correction ...      0.00141627 Eh       0.89 kcal/mol
-----------------------------------------------------------------------
Total thermal energy                   -796.93386317 Eh


Summary of corrections to the electronic energy:
(perhaps to be used in another calculation)
Total thermal correction                  0.00391097 Eh       2.45 kcal/mol
Non-thermal (ZPE) correction              0.02701923 Eh      16.95 kcal/mol
-----------------------------------------------------------------------
Total correction                          0.03093020 Eh      19.41 kcal/mol


--------
ENTHALPY
--------

The enthalpy is H = U + kB*T
                kB is Boltzmann's constant
Total free energy                 ...   -796.93386317 Eh 
Thermal Enthalpy correction       ...      0.00094421 Eh       0.59 kcal/mol
-----------------------------------------------------------------------
Total Enthalpy                    ...   -796.93291896 Eh


Note: Rotational entropy computed according to Herzberg 
Infrared and Raman Spectra, Chapter V,1, Van Nostrand Reinhold, 1945 
Point Group:  Cs, Symmetry Number:   1  
Rotational constants in cm-1:     0.901545     0.050405     0.048199 

Vibrational entropy computed according to the QRRHO of S. Grimme
Chem.Eur.J. 2012 18 9955


-------
ENTROPY
-------

The entropy contributions are T*S = T*(S(el)+S(vib)+S(rot)+S(trans))
     S(el)   - electronic entropy
     S(vib)  - vibrational entropy
     S(rot)  - rotational entropy
     S(trans)- translational entropy
The entropies will be listed as mutliplied by the temperature to get
units of energy

Electronic entropy                ...      0.00000000 Eh      0.00 kcal/mol
Vibrational entropy               ...      0.00174097 Eh      1.09 kcal/mol
Rotational entropy                ...      0.01240176 Eh      7.78 kcal/mol
Translational entropy             ...      0.01967493 Eh     12.35 kcal/mol
-----------------------------------------------------------------------
Final entropy term                ...      0.03381766 Eh     21.22 kcal/mol

In case the symmetry of your molecule has not been determined correctly
or in case you have a reason to use a different symmetry number we print 
out the resulting rotational entropy values for sn=1,12 :
 --------------------------------------------------------
|  sn= 1 | S(rot)=       0.01240176 Eh      7.78 kcal/mol|
|  sn= 2 | S(rot)=       0.01174731 Eh      7.37 kcal/mol|
|  sn= 3 | S(rot)=       0.01136447 Eh      7.13 kcal/mol|
|  sn= 4 | S(rot)=       0.01109285 Eh      6.96 kcal/mol|
|  sn= 5 | S(rot)=       0.01088216 Eh      6.83 kcal/mol|
|  sn= 6 | S(rot)=       0.01071002 Eh      6.72 kcal/mol|
|  sn= 7 | S(rot)=       0.01056447 Eh      6.63 kcal/mol|
|  sn= 8 | S(rot)=       0.01043839 Eh      6.55 kcal/mol|
|  sn= 9 | S(rot)=       0.01032719 Eh      6.48 kcal/mol|
|  sn=10 | S(rot)=       0.01022771 Eh      6.42 kcal/mol|
|  sn=11 | S(rot)=       0.01013772 Eh      6.36 kcal/mol|
|  sn=12 | S(rot)=       0.01005556 Eh      6.31 kcal/mol|
 --------------------------------------------------------


-------------------
GIBBS FREE ENERGY
-------------------

The Gibbs free energy is G = H - T*S

Total enthalpy                    ...   -796.93291896 Eh 
Total entropy correction          ...     -0.03381766 Eh    -21.22 kcal/mol
-----------------------------------------------------------------------
Final Gibbs free energy         ...   -796.96673663 Eh

For completeness - the Gibbs free energy minus the electronic energy
G-E(el)                           ...     -0.00194326 Eh     -1.22 kcal/mol


Timings for individual modules:

Sum of individual times         ...      302.311 sec (=   5.039 min)
GTO integral calculation        ...       35.284 sec (=   0.588 min)  11.7 %
SCF iterations                  ...      189.748 sec (=   3.162 min)  62.8 %
SCF Gradient evaluation         ...       61.066 sec (=   1.018 min)  20.2 %
Geometry relaxation             ...        1.087 sec (=   0.018 min)   0.4 %
Analytical frequency calculation...       15.126 sec (=   0.252 min)   5.0 %
                             ****ORCA TERMINATED NORMALLY****
TOTAL RUN TIME: 0 days 0 hours 5 minutes 6 seconds 166 msec
