
                                 *****************
                                 * O   R   C   A *
                                 *****************

           --- An Ab Initio, DFT and Semiempirical electronic structure package ---

                  #######################################################
                  #                        -***-                        #
                  #          Department of theory and spectroscopy      #
                  #               Directorship: Frank Neese             #
                  #        Max Planck Institute fuer Kohlenforschung    #
                  #                Kaiser Wilhelm Platz 1               #
                  #                 D-45470 Muelheim/Ruhr               #
                  #                      Germany                        #
                  #                                                     #
                  #                  All rights reserved                #
                  #                        -***-                        #
                  #######################################################


                         Program Version 4.2.1 -  RELEASE  -


 With contributions from (in alphabetic order):
   Daniel Aravena         : Magnetic Suceptibility
   Michael Atanasov       : Ab Initio Ligand Field Theory (pilot matlab implementation)
   Alexander A. Auer      : GIAO ZORA, VPT2
   Ute Becker             : Parallelization
   Giovanni Bistoni       : ED, misc. LED, open-shell LED, HFLD
   Martin Brehm           : Molecular dynamics
   Dmytro Bykov           : SCF Hessian
   Vijay G. Chilkuri      : MRCI spin determinant printing, contributions to CSF-ICE
   Dipayan Datta          : RHF DLPNO-CCSD density
   Achintya Kumar Dutta   : EOM-CC, STEOM-CC
   Dmitry Ganyushin       : Spin-Orbit,Spin-Spin,Magnetic field MRCI
   Miquel Garcia          : C-PCM Hessian, Gaussian charge scheme
   Yang Guo               : DLPNO-NEVPT2, CIM, IAO-localization
   Andreas Hansen         : Spin unrestricted coupled pair/coupled cluster methods
   Benjamin Helmich-Paris : CASSCF linear response (MC-RPA)
   Lee Huntington         : MR-EOM, pCC
   Robert Izsak           : Overlap fitted RIJCOSX, COSX-SCS-MP3, EOM
   Christian Kollmar      : KDIIS, OOCD, Brueckner-CCSD(T), CCSD density
   Simone Kossmann        : Meta GGA functionals, TD-DFT gradient, OOMP2, MP2 Hessian
   Martin Krupicka        : AUTO-CI
   Lucas Lang             : DCDCAS
   Dagmar Lenk            : GEPOL surface, SMD
   Dimitrios Liakos       : Extrapolation schemes; Compound Job, initial MDCI parallelization
   Dimitrios Manganas     : Further ROCIS development; embedding schemes
   Dimitrios Pantazis     : SARC Basis sets
   Taras Petrenko         : DFT Hessian,TD-DFT gradient, ASA, ECA, R-Raman, ABS, FL, XAS/XES, NRVS
   Peter Pinski           : DLPNO-MP2, DLPNO-MP2 Gradient
   Christoph Reimann      : Effective Core Potentials
   Marius Retegan         : Local ZFS, SOC
   Christoph Riplinger    : Optimizer, TS searches, QM/MM, DLPNO-CCSD(T), (RO)-DLPNO pert. Triples
   Tobias Risthaus        : Range-separated hybrids, TD-DFT gradient, RPA, STAB
   Michael Roemelt        : Original ROCIS implementation
   Masaaki Saitow         : Open-shell DLPNO-CCSD energy and density
   Barbara Sandhoefer     : DKH picture change effects
   Avijit Sen             : IP-ROCIS
   Kantharuban Sivalingam : CASSCF convergence, NEVPT2, FIC-MRCI
   Bernardo de Souza      : ESD, SOC TD-DFT
   Georgi Stoychev        : AutoAux, RI-MP2 NMR
   Willem Van den Heuvel  : Paramagnetic NMR
   Boris Wezisla          : Elementary symmetry handling
   Frank Wennmohs         : Technical directorship


 We gratefully acknowledge several colleagues who have allowed us to
 interface, adapt or use parts of their codes:
   Stefan Grimme, W. Hujo, H. Kruse,             : VdW corrections, initial TS optimization,
                  C. Bannwarth                     DFT functionals, gCP, sTDA/sTD-DF
   Ed Valeev, F. Pavosevic, A. Kumar             : LibInt (2-el integral package), F12 methods
   Garnet Chan, S. Sharma, J. Yang, R. Olivares  : DMRG
   Ulf Ekstrom                                   : XCFun DFT Library
   Mihaly Kallay                                 : mrcc  (arbitrary order and MRCC methods)
   Andreas Klamt, Michael Diedenhofen            : otool_cosmo (COSMO solvation model)
   Jiri Pittner, Ondrej Demel                    : Mk-CCSD
   Frank Weinhold                                : gennbo (NPA and NBO analysis)
   Christopher J. Cramer and Donald G. Truhlar   : smd solvation model
   Lars Goerigk                                  : TD-DFT with DH, B97 family of functionals
   V. Asgeirsson, H. Jonsson                     : NEB implementation
   FAccTs GmbH                                   : IRC, NEB, NEB-TS, Multilevel, MM, QM/MM, CI optimization
   S Lehtola, MJT Oliveira, MAL Marques          : LibXC Library


 Your calculation uses the libint2 library for the computation of 2-el integrals
 For citations please refer to: http://libint.valeyev.net

 Your ORCA version has been built with support for libXC version: 4.2.3
 For citations please refer to: https://tddft.org/programs/libxc/

 This ORCA versions uses:
   CBLAS   interface :  Fast vector & matrix operations
   LAPACKE interface :  Fast linear algebra routines
   SCALAPACK package :  Parallel linear algebra routines


Your calculation utilizes the geometrical counterpoise correction gCP
Please cite in your paper:
H.Kruse, S. Grimme J.Chem.Phys., 136, (2012), 154101 
   

Your calculation utilizes the atom-pairwise dispersion correction
based on tight binding partial charges (D4)
Cite in your paper:
E.Caldeweyher, C.Bannwarth, S.Grimme, J.Chem.Phys., (2017), 147, 034112.
E.Caldeweyher, S.Ehlert, A.Hansen, H.Neugebauer, S.Grimme, J.Chem.Phys., (2018), in progress.
   

----- Orbital basis set information -----
Your calculation utilizes the basis: def2-SVP
   F. Weigend and R. Ahlrichs, Phys. Chem. Chem. Phys. 7, 3297 (2005).

----- AuxJ basis set information -----
Your calculation utilizes the auxiliary basis: def2/J
   F. Weigend, Phys. Chem. Chem. Phys. 8, 1057 (2006).

================================================================================
                                        WARNINGS
                       Please study these warnings very carefully!
================================================================================


WARNING: Geometry Optimization
  ===> : Switching off AutoStart
         For restart on a previous wavefunction, please use MOREAD

INFO   : the flag for use of LIBINT has been found!

================================================================================
                                       INPUT FILE
================================================================================
NAME = benzene.inp
|  1> ! revPBE D4 gCP(DFT/SVP) def2-SVP Opt Freq TightOpt TightSCF Grid4 FinalGrid5 LargePrint
|  2> 
|  3> %pal
|  4>  nprocs 12
|  5> end
|  6> 
|  7> *xyz 0 1
|  8> C        1.8361082976      1.3685819243     -0.9098123548                 
|  9> C        2.2918977795      2.5139579299     -0.2074055962                 
| 10> C        3.6444847754      2.6484910613      0.1566846444                 
| 11> C        4.5727537558      1.6403545319     -0.1730607933                 
| 12> C        2.7821001179      0.3623995123     -1.2348097333                 
| 13> C        4.1347077625      0.4965263455     -0.8706050474                 
| 14> H        1.5798337265      3.3228833020      0.0326758982                 
| 15> H        3.9784274997      3.5536898393      0.6950829147                 
| 16> H        5.6344694724      1.7457656286      0.1127747997                 
| 17> H        2.4462209292     -0.5505675315     -1.7570490849                 
| 18> H        4.8517925869     -0.3043032928     -1.1260197071                 
| 19> H        0.7960040511      1.2653160339     -1.1898320819                 
| 20> *
| 21> 
| 22>                          ****END OF INPUT****
================================================================================

                       *****************************
                       * Geometry Optimization Run *
                       *****************************

Geometry optimization settings:
Update method            Update   .... BFGS
Choice of coordinates    CoordSys .... Z-matrix Internals
Initial Hessian          InHess   .... Almoef's Model

Convergence Tolerances:
Energy Change            TolE     ....  1.0000e-06 Eh
Max. Gradient            TolMAXG  ....  1.0000e-04 Eh/bohr
RMS Gradient             TolRMSG  ....  3.0000e-05 Eh/bohr
Max. Displacement        TolMAXD  ....  1.0000e-03 bohr
RMS Displacement         TolRMSD  ....  6.0000e-04 bohr
Strict Convergence                ....  False
------------------------------------------------------------------------------
                        ORCA OPTIMIZATION COORDINATE SETUP
------------------------------------------------------------------------------

The optimization will be done in new redundant internal coordinates
Making redundant internal coordinates   ...  (new redundants) done
Evaluating the initial hessian          ...  (Almloef) done
Evaluating the coordinates              ...  done
Calculating the B-matrix                .... done
Calculating the G-matrix                .... done
Diagonalizing the G-matrix              .... done
The first mode is                       ....   24
The number of degrees of freedom        ....   30

    -----------------------------------------------------------------
                    Redundant Internal Coordinates


    -----------------------------------------------------------------
         Definition                    Initial Value    Approx d2E/dq
    -----------------------------------------------------------------
      1. B(C   1,C   0)                  1.4188         0.562061   
      2. B(C   2,C   1)                  1.4072         0.586585   
      3. B(C   3,C   2)                  1.4095         0.581555   
      4. B(C   4,C   0)                  1.4188         0.562118   
      5. B(C   5,C   4)                  1.4072         0.586562   
      6. B(C   5,C   3)                  1.4095         0.581525   
      7. B(H   6,C   1)                  1.1041         0.341924   
      8. B(H   7,C   2)                  1.1049         0.340935   
      9. B(H   8,C   3)                  1.1046         0.341344   
     10. B(H   9,C   4)                  1.1041         0.341911   
     11. B(H  10,C   5)                  1.1049         0.340935   
     12. B(H  11,C   0)                  1.0821         0.370734   
     13. A(C   4,C   0,H  11)          120.9269         0.348825   
     14. A(C   1,C   0,H  11)          120.9268         0.348819   
     15. A(C   1,C   0,C   4)          118.1463         0.419084   
     16. A(C   0,C   1,C   2)          120.9346         0.422282   
     17. A(C   2,C   1,H   6)          119.5775         0.346583   
     18. A(C   0,C   1,H   6)          119.4675         0.344105   
     19. A(C   3,C   2,H   7)          120.0607         0.345913   
     20. A(C   1,C   2,H   7)          119.6646         0.346414   
     21. A(C   1,C   2,C   3)          120.2724         0.424864   
     22. A(C   5,C   3,H   8)          120.2798         0.345980   
     23. A(C   2,C   3,H   8)          120.2802         0.345983   
     24. A(C   2,C   3,C   5)          119.4400         0.424206   
     25. A(C   5,C   4,H   9)          119.5803         0.346578   
     26. A(C   0,C   4,H   9)          119.4674         0.344109   
     27. A(C   0,C   4,C   5)          120.9320         0.422287   
     28. A(C   3,C   5,H  10)          120.0582         0.345910   
     29. A(C   3,C   5,C   4)          120.2748         0.424857   
     30. A(C   4,C   5,H  10)          119.6646         0.346412   
     31. D(H   6,C   1,C   0,C   4)    178.3573         0.021646   
     32. D(H   6,C   1,C   0,H  11)     -1.6430         0.021646   
     33. D(C   2,C   1,C   0,H  11)   -179.9924         0.021646   
     34. D(C   2,C   1,C   0,C   4)      0.0079         0.021646   
     35. D(H   7,C   2,C   1,C   0)    179.4284         0.023665   
     36. D(C   3,C   2,C   1,C   0)     -0.0132         0.023665   
     37. D(C   3,C   2,C   1,H   6)   -178.3608         0.023665   
     38. D(H   7,C   2,C   1,H   6)      1.0808         0.023665   
     39. D(H   8,C   3,C   2,H   7)      0.5681         0.023242   
     40. D(H   8,C   3,C   2,C   1)   -179.9925         0.023242   
     41. D(C   5,C   3,C   2,H   7)   -179.4344         0.023242   
     42. D(C   5,C   3,C   2,C   1)      0.0050         0.023242   
     43. D(H   9,C   4,C   0,C   1)    178.3585         0.021650   
     44. D(C   5,C   4,C   0,H  11)   -179.9943         0.021650   
     45. D(C   5,C   4,C   0,C   1)      0.0054         0.021650   
     46. D(H   9,C   4,C   0,H  11)     -1.6411         0.021650   
     47. D(H  10,C   5,C   4,H   9)      1.0768         0.023663   
     48. D(C   3,C   5,C   4,H   9)   -178.3649         0.023663   
     49. D(C   3,C   5,C   4,C   0)     -0.0136         0.023663   
     50. D(H  10,C   5,C   3,H   8)      0.5663         0.023239   
     51. D(H  10,C   5,C   3,C   2)   -179.4312         0.023239   
     52. D(H  10,C   5,C   4,C   0)    179.4281         0.023663   
     53. D(C   4,C   5,C   3,H   8)   -179.9942         0.023239   
     54. D(C   4,C   5,C   3,C   2)      0.0083         0.023239   
    -----------------------------------------------------------------

Number of atoms                         .... 12
Number of degrees of freedom            .... 54

         *************************************************************
         *                GEOMETRY OPTIMIZATION CYCLE   1            *
         *************************************************************
---------------------------------
CARTESIAN COORDINATES (ANGSTROEM)
---------------------------------
  C      1.836108    1.368582   -0.909812
  C      2.291898    2.513958   -0.207406
  C      3.644485    2.648491    0.156685
  C      4.572754    1.640355   -0.173061
  C      2.782100    0.362400   -1.234810
  C      4.134708    0.496526   -0.870605
  H      1.579834    3.322883    0.032676
  H      3.978427    3.553690    0.695083
  H      5.634469    1.745766    0.112775
  H      2.446221   -0.550568   -1.757049
  H      4.851793   -0.304303   -1.126020
  H      0.796004    1.265316   -1.189832

----------------------------
CARTESIAN COORDINATES (A.U.)
----------------------------
  NO LB      ZA    FRAG     MASS         X           Y           Z
   0 C     6.0000    0    12.011    3.469742    2.586245   -1.719296
   1 C     6.0000    0    12.011    4.331059    4.750692   -0.391940
   2 C     6.0000    0    12.011    6.887078    5.004923    0.296091
   3 C     6.0000    0    12.011    8.641252    3.099821   -0.327038
   4 C     6.0000    0    12.011    5.257407    0.684836   -2.333452
   5 C     6.0000    0    12.011    7.813465    0.938299   -1.645205
   6 H     1.0000    0     1.008    2.985453    6.279339    0.061748
   7 H     1.0000    0     1.008    7.518138    6.715501    1.313516
   8 H     1.0000    0     1.008   10.647604    3.299019    0.213113
   9 H     1.0000    0     1.008    4.622688   -1.040422   -3.320342
  10 H     1.0000    0     1.008    9.168559   -0.575050   -2.127869
  11 H     1.0000    0     1.008    1.504230    2.391101   -2.248457

--------------------------------
INTERNAL COORDINATES (ANGSTROEM)
--------------------------------
 C      0   0   0     0.000000000000     0.00000000     0.00000000
 C      1   0   0     1.418804250255     0.00000000     0.00000000
 C      2   1   0     1.407178897021   120.93460267     0.00000000
 C      3   2   1     1.409522832581   120.27236747     0.00000000
 C      1   2   3     1.418776538545   118.14626231     0.00000000
 C      5   1   2     1.407189575305   120.93195972     0.00000000
 H      2   1   3     1.104098997896   119.46746158   178.34938733
 H      3   2   1     1.104886993438   119.66459342   179.42837749
 H      4   3   2     1.104560432212   120.28019730   180.00745539
 H      5   1   2     1.104109411619   119.46743430   178.35853723
 H      6   5   1     1.104887054569   119.66464457   179.42806796
 H      1   2   3     1.082077508902   120.92684876   180.00762225

---------------------------
INTERNAL COORDINATES (A.U.)
---------------------------
 C      0   0   0     0.000000000000     0.00000000     0.00000000
 C      1   0   0     2.681151470626     0.00000000     0.00000000
 C      2   1   0     2.659182736804   120.93460267     0.00000000
 C      3   2   1     2.663612133087   120.27236747     0.00000000
 C      1   2   3     2.681099103082   118.14626231     0.00000000
 C      5   1   2     2.659202915835   120.93195972     0.00000000
 H      2   1   3     2.086444730761   119.46746158   178.34938733
 H      3   2   1     2.087933826529   119.66459342   179.42837749
 H      4   3   2     2.087316715247   120.28019730   180.00745539
 H      5   1   2     2.086464409845   119.46743430   178.35853723
 H      6   5   1     2.087933942050   119.66464457   179.42806796
 H      1   2   3     2.044830147501   120.92684876   180.00762225

---------------------
BASIS SET INFORMATION
---------------------
There are 2 groups of distinct atoms

 Group   1 Type C   : 7s4p1d contracted to 3s2p1d pattern {511/31/1}
 Group   2 Type H   : 4s1p contracted to 2s1p pattern {31/1}

Atom   0C    basis set group =>   1
Atom   1C    basis set group =>   1
Atom   2C    basis set group =>   1
Atom   3C    basis set group =>   1
Atom   4C    basis set group =>   1
Atom   5C    basis set group =>   1
Atom   6H    basis set group =>   2
Atom   7H    basis set group =>   2
Atom   8H    basis set group =>   2
Atom   9H    basis set group =>   2
Atom  10H    basis set group =>   2
Atom  11H    basis set group =>   2

-------------------------
BASIS SET IN INPUT FORMAT
-------------------------

 # Basis set for element : H 
 NewGTO H 
 S 3 
   1      13.0107010000      0.0334854848
   2       1.9622572000      0.2347218709
   3       0.4445379600      0.8137702853
 S 1 
   1       0.1219496200      1.0000000000
 P 1 
   1       0.8000000000      1.0000000000
  end;

 # Basis set for element : C 
 NewGTO C 
 S 5 
   1    1238.4016938000      0.0055173650
   2     186.2900499200      0.0410888285
   3      42.2511763460      0.1822538213
   4      11.6765579320      0.4682845944
   5       3.5930506482      0.4457581734
 S 1 
   1       0.4024514736      1.0000000000
 S 1 
   1       0.1309018267      1.0000000000
 P 3 
   1       9.4680970621      0.0568883320
   2       2.0103545142      0.3129405934
   3       0.5477100471      0.7606501651
 P 1 
   1       0.1526861379      1.0000000000
 D 1 
   1       0.8000000000      1.0000000000
  end;

---------------------------------
AUXILIARY/J BASIS SET INFORMATION
---------------------------------
There are 2 groups of distinct atoms

 Group   1 Type C   : 12s5p4d2f1g contracted to 6s4p3d1f1g pattern {711111/2111/211/2/1}
 Group   2 Type H   : 5s2p1d contracted to 3s1p1d pattern {311/2/1}

Atom   0C    basis set group =>   1
Atom   1C    basis set group =>   1
Atom   2C    basis set group =>   1
Atom   3C    basis set group =>   1
Atom   4C    basis set group =>   1
Atom   5C    basis set group =>   1
Atom   6H    basis set group =>   2
Atom   7H    basis set group =>   2
Atom   8H    basis set group =>   2
Atom   9H    basis set group =>   2
Atom  10H    basis set group =>   2
Atom  11H    basis set group =>   2

-------------------------------------
AUXILIARY/J BASIS SET IN INPUT FORMAT
-------------------------------------

 # Auxiliary/J basis set for element : H 
 NewAuxJGTO H 
 S 3 
   1      15.6752927000      0.1007184237
   2       3.6063578000      0.3404257499
   3       1.2080016000      0.6491996172
 S 1 
   1       0.4726794000      1.0000000000
 S 1 
   1       0.2018100000      1.0000000000
 P 2 
   1       2.0281365000      0.5596620919
   2       0.5358730000      0.5596620919
 D 1 
   1       2.2165124000      1.0000000000
  end;

 # Auxiliary/J basis set for element : C 
 NewAuxJGTO C 
 S 7 
   1    1861.0916331000      0.0134602335
   2     642.9939764000      0.0299160374
   3     235.1105725000      0.1008649584
   4      90.7028894000      0.2370970548
   5      36.7794552000      0.3924037254
   6      15.6046273000      0.3195862154
   7       6.8907294000      0.0530104441
 S 1 
   1       3.1478850000     -1.0000000000
 S 1 
   1       1.4777287000      1.0000000000
 S 1 
   1       0.7076466000      1.0000000000
 S 1 
   1       0.3430122000      1.0000000000
 S 1 
   1       0.1669453000      1.0000000000
 P 2 
   1      13.5472892000     -0.6769313712
   2       5.4669419000     -0.3779500978
 P 1 
   1       2.1751721000      1.0000000000
 P 1 
   1       0.8582194000      1.0000000000
 P 1 
   1       0.3376720000      1.0000000000
 D 2 
   1       5.9287253000     -0.3533329857
   2       1.9809209000     -0.7456525731
 D 1 
   1       0.8055417000     -1.0000000000
 D 1 
   1       0.3531244000     -1.0000000000
 F 2 
   1       1.6755626000      0.6311076882
   2       0.5997536000      0.4968166032
 G 1 
   1       1.0024600000     -1.0000000000
  end;



           ************************************************************
           *        Program running with 12 parallel MPI-processes    *
           *              working on a common directory               *
           ************************************************************
------------------------------------------------------------------------------
                           ORCA GTO INTEGRAL CALCULATION
                           -- RI-GTO INTEGRALS CHOSEN --
------------------------------------------------------------------------------

                         BASIS SET STATISTICS AND STARTUP INFO

Gaussian basis set:
 # of primitive gaussian shells          ...  102
 # of primitive gaussian functions       ...  186
 # of contracted shells                  ...   54
 # of contracted basis functions         ...  114
 Highest angular momentum                ...    2
 Maximum contraction depth               ...    5
Auxiliary gaussian basis set:
 # of primitive gaussian shells          ...  192
 # of primitive gaussian functions       ...  516
 # of contracted shells                  ...  120
 # of contracted aux-basis functions     ...  360
 Highest angular momentum                ...    4
 Maximum contraction depth               ...    7
Ratio of auxiliary to basis functions    ...  3.16
Integral package used                  ... LIBINT
 One Electron integrals                  ... done
 Ordering auxiliary basis shells         ... done
 Integral threshhold             Thresh  ...  2.500e-11
 Primitive cut-off               TCut    ...  2.500e-12
 Pre-screening matrix                    ... done
 Shell pair data                         ... 
 Ordering of the shell pairs             ... done (   0.000 sec) 1467 of 1485 pairs
 Determination of significant pairs      ... done (   0.000 sec)
 Creation of shell pair data             ... done (   0.000 sec)
 Storage of shell pair data              ... done (   0.098 sec)
 Shell pair data done in (   0.100 sec)
 Computing two index integrals           ... done
 Cholesky decomposition of the V-matrix  ... done


Timings:
 Total evaluation time                   ...   0.357 sec (  0.006 min)
 One electron matrix time                ...   0.021 sec (  0.000 min) =  6.0%
 Schwartz matrix evaluation time         ...   0.161 sec (  0.003 min) = 45.2%
 Two index repulsion integral time       ...   0.023 sec (  0.000 min) =  6.3%
 Cholesky decomposition of V             ...   0.016 sec (  0.000 min) =  4.4%
 Three index repulsion integral time     ...   0.000 sec (  0.000 min) =  0.0%



           ************************************************************
           *        Program running with 12 parallel MPI-processes    *
           *              working on a common directory               *
           ************************************************************
-------------------------------------------------------------------------------
                                 ORCA SCF
-------------------------------------------------------------------------------

------------
SCF SETTINGS
------------
Hamiltonian:
 Density Functional     Method          .... DFT(GTOs)
 Exchange Functional    Exchange        .... PBE
   PBE kappa parameter   XKappa         ....  1.245000
   PBE mue parameter    XMuePBE         ....  0.219520
 Correlation Functional Correlation     .... PBE
   PBE beta parameter  CBetaPBE         ....  0.066725
 LDA part of GGA corr.  LDAOpt          .... PW91-LDA
 Gradients option       PostSCFGGA      .... off
   Density functional embedding theory  .... OFF
   NL short-range parameter             ....  3.700000
 RI-approximation to the Coulomb term is turned on
   Number of auxiliary basis functions  .... 360


General Settings:
 Integral files         IntName         .... benzene
 Hartree-Fock type      HFTyp           .... RHF
 Total Charge           Charge          ....    0
 Multiplicity           Mult            ....    1
 Number of Electrons    NEL             ....   42
 Basis Dimension        Dim             ....  114
 Nuclear Repulsion      ENuc            ....    200.9520107744 Eh

Convergence Acceleration:
 DIIS                   CNVDIIS         .... on
   Start iteration      DIISMaxIt       ....    12
   Startup error        DIISStart       ....  0.200000
   # of expansion vecs  DIISMaxEq       ....     5
   Bias factor          DIISBfac        ....   1.050
   Max. coefficient     DIISMaxC        ....  10.000
 Newton-Raphson         CNVNR           .... off
 SOSCF                  CNVSOSCF        .... on
   Start iteration      SOSCFMaxIt      ....   150
   Startup grad/error   SOSCFStart      ....  0.003300
 Level Shifting         CNVShift        .... on
   Level shift para.    LevelShift      ....    0.2500
   Turn off err/grad.   ShiftErr        ....    0.0010
 Zerner damping         CNVZerner       .... off
 Static damping         CNVDamp         .... on
   Fraction old density DampFac         ....    0.7000
   Max. Damping (<1)    DampMax         ....    0.9800
   Min. Damping (>=0)   DampMin         ....    0.0000
   Turn off err/grad.   DampErr         ....    0.1000
 Fernandez-Rico         CNVRico         .... off

SCF Procedure:
 Maximum # iterations   MaxIter         ....   125
 SCF integral mode      SCFMode         .... Direct
   Integral package                     .... LIBINT
 Reset frequency        DirectResetFreq ....    20
 Integral Threshold     Thresh          ....  2.500e-11 Eh
 Primitive CutOff       TCut            ....  2.500e-12 Eh

Convergence Tolerance:
 Convergence Check Mode ConvCheckMode   .... Total+1el-Energy
 Convergence forced     ConvForced      .... 0
 Energy Change          TolE            ....  1.000e-08 Eh
 1-El. energy change                    ....  1.000e-05 Eh
 Orbital Gradient       TolG            ....  1.000e-05
 Orbital Rotation angle TolX            ....  1.000e-05
 DIIS Error             TolErr          ....  5.000e-07


Diagonalization of the overlap matrix:
Smallest eigenvalue                        ... 3.539e-04
Time for diagonalization                   ...    0.008 sec
Threshold for overlap eigenvalues          ... 1.000e-08
Number of eigenvalues below threshold      ... 0
Time for construction of square roots      ...    0.007 sec
Total time needed                          ...    0.015 sec

-------------------
DFT GRID GENERATION
-------------------

General Integration Accuracy     IntAcc      ...  4.670
Radial Grid Type                 RadialGrid  ... Gauss-Chebyshev
Angular Grid (max. acc.)         AngularGrid ... Lebedev-302
Angular grid pruning method      GridPruning ... 3 (G Style)
Weight generation scheme         WeightScheme... Becke
Basis function cutoff            BFCut       ...    1.0000e-11
Integration weight cutoff        WCut        ...    1.0000e-14
Grids for H and He will be reduced by one unit

# of grid points (after initial pruning)     ...  57636 (   0.0 sec)
# of grid points (after weights+screening)   ...  53641 (   0.1 sec)
nearest neighbour list constructed           ...    0.0 sec
Grid point re-assignment to atoms done       ...    0.0 sec
Grid point division into batches done        ...    0.3 sec
Reduced shell lists constructed in    0.4 sec

Total number of grid points                  ...    53641
Total number of batches                      ...      845
Average number of points per batch           ...       63
Average number of grid points per atom       ...     4470
Average number of shells per batch           ...    46.12 (85.42%)
Average number of basis functions per batch  ...    99.15 (86.98%)
Average number of large shells per batch     ...    39.32 (85.25%)
Average number of large basis fcns per batch ...    83.32 (84.03%)
Maximum spatial batch extension              ...   6.03,  8.68, 15.74 au
Average spatial batch extension              ...   0.12,  0.14,  0.18 au

Time for grid setup =    0.537 sec

------------------------------
INITIAL GUESS: MODEL POTENTIAL
------------------------------
Loading Hartree-Fock densities                     ... done
Calculating cut-offs                               ... done
Setting up the integral package                    ... done
Initializing the effective Hamiltonian             ... done
Starting the Coulomb interaction                   ... done (   0.0 sec)
Reading the grid                                   ... done
Mapping shells                                     ... done
Starting the XC term evaluation                    ... done (   0.1 sec)
  promolecular density results
     # of electrons  =     41.997035018
     EX              =    -32.612769337
     EC              =     -1.361946236
     EX+EC           =    -33.974715573
Transforming the Hamiltonian                       ... done (   0.0 sec)
Diagonalizing the Hamiltonian                      ... done (   0.0 sec)
Back transforming the eigenvectors                 ... done (   0.0 sec)
Now organizing SCF variables                       ... done
                      ------------------
                      INITIAL GUESS DONE (   0.9 sec)
                      ------------------
----------------------
INITIAL GUESS ORBITALS
----------------------
                      0         1         2         3         4         5   
                 -10.07645 -10.07640 -10.07617 -10.07609 -10.07538 -10.07537
                   2.00000   2.00000   2.00000   2.00000   2.00000   2.00000
                  --------  --------  --------  --------  --------  --------
  0C   1s         0.026906  0.000832  0.931251 -0.309508  0.111839 -0.003745
  0C   2s         0.000234  0.000008  0.045532 -0.014442  0.010511 -0.000356
  0C   3s        -0.008340 -0.000244 -0.028698  0.013833 -0.027264  0.000931
  0C   1pz       -0.000080 -0.000024 -0.000066  0.000070  0.000322 -0.001272
  0C   1px       -0.000299  0.000001 -0.000244  0.000260  0.001377  0.000553
  0C   1py       -0.000028 -0.000043 -0.000024  0.000026  0.000045 -0.002631
  0C   2pz        0.000301  0.003163 -0.001412  0.000677 -0.000725 -0.000810
  0C   2px        0.001496 -0.001470 -0.005252  0.002493 -0.002574  0.000489
  0C   2py       -0.000045  0.006661 -0.000518  0.000258 -0.000317 -0.001760
  0C   1dz2      -0.000129  0.000008 -0.001401  0.000427 -0.001120 -0.000296
  0C   1dxz       0.000116  0.000025  0.000839 -0.000259  0.000250 -0.000633
  0C   1dyz       0.000050  0.000019  0.001200 -0.000359  0.001550 -0.000523
  0C   1dx2y2     0.000195 -0.000013  0.000919 -0.000287 -0.000342  0.000499
  0C   1dxy       0.000027  0.000058 -0.000119  0.000033 -0.000540 -0.001431
  1C   1s         0.044957 -0.066832  0.077370 -0.017095 -0.668593  0.718680
  1C   2s        -0.001252 -0.001431  0.000253 -0.000444 -0.033090  0.035704
  1C   3s         0.005994 -0.013275  0.015172  0.001349  0.027979 -0.024171
  1C   1pz       -0.000359  0.000504  0.001003 -0.000616  0.000202  0.000076
  1C   1px       -0.001618  0.001417  0.000644 -0.000937  0.000099  0.000385
  1C   1py       -0.000015  0.000377  0.001632 -0.000791  0.000202  0.000118
  1C   2pz       -0.002023  0.001061  0.001723  0.001739 -0.002368  0.000265
  1C   2px       -0.001166  0.001408  0.003996  0.001311 -0.000658 -0.005580
  1C   2py       -0.003362  0.001338  0.001717  0.002813 -0.004080  0.002758
  1C   1dz2       0.000464 -0.000504  0.000336  0.000205  0.001237 -0.001148
  1C   1dxz      -0.000522  0.000466 -0.000470 -0.000044 -0.000446  0.000456
  1C   1dyz      -0.000116  0.000115 -0.001174  0.000252 -0.001317  0.001056
  1C   1dx2y2    -0.000847  0.000872  0.000650 -0.000604 -0.000121  0.000328
  1C   1dxy      -0.000243  0.000115 -0.000621  0.000261  0.000487 -0.000451
  2C   1s         0.677669 -0.676750  0.050719  0.224279  0.037897 -0.068748
  2C   2s         0.031600 -0.033341  0.002892  0.014422  0.005024 -0.005484
  2C   3s        -0.020809  0.019097 -0.010833 -0.022304 -0.008951  0.018203
  2C   1pz        0.000165  0.000067 -0.000052 -0.000477 -0.000462  0.000332
  2C   1px       -0.000315  0.000061  0.000537  0.001564 -0.001674  0.001675
  2C   1py        0.000489  0.000057 -0.000315 -0.001528 -0.000187 -0.000062
  2C   2pz        0.001338 -0.002668 -0.000238  0.001400  0.000635 -0.000765
  2C   2px       -0.002993 -0.005223  0.005280  0.000440 -0.001097  0.001619
  2C   2py        0.003738 -0.002868 -0.002677  0.002431  0.001626 -0.002105
  2C   1dz2      -0.000735  0.000889 -0.000358 -0.001113 -0.000635  0.000712
  2C   1dxz       0.000597 -0.000420 -0.000051 -0.000136  0.000564 -0.000634
  2C   1dyz       0.001108 -0.001103  0.000430  0.001056  0.000267 -0.000369
  2C   1dx2y2    -0.000025 -0.000024 -0.000136 -0.000073  0.000900 -0.000927
  2C   1dxy       0.000341  0.000099 -0.000377 -0.001229  0.000148 -0.000183
  3C   1s         0.326283  0.010705 -0.303327 -0.881826  0.008038 -0.000289
  3C   2s         0.011027  0.000386 -0.016247 -0.044659  0.000515 -0.000019
  3C   3s         0.011155  0.000256  0.006397  0.039840  0.006501 -0.000220
  3C   1pz        0.000326  0.001270  0.000108  0.000136  0.000006  0.000277
  3C   1px        0.001362 -0.000564  0.000400  0.000497 -0.000019 -0.000131
  3C   1py        0.000058  0.002641  0.000041  0.000053  0.000019  0.000575
  3C   2pz       -0.000190  0.001861 -0.000683 -0.001535  0.000430 -0.003220
  3C   2px       -0.000485 -0.000893 -0.002543 -0.005714  0.002056  0.001458
  3C   2py       -0.000160  0.003887 -0.000250 -0.000561 -0.000030 -0.006706
  3C   1dz2       0.000352 -0.000316  0.000521  0.001704  0.000201 -0.000057
  3C   1dxz       0.000155 -0.000599 -0.000240 -0.000809 -0.000113 -0.000090
  3C   1dyz      -0.000817 -0.000479 -0.000559 -0.001791 -0.000196 -0.000064
  3C   1dx2y2     0.000713  0.000495 -0.000142 -0.000526 -0.000099  0.000077
  3C   1dxy       0.000415 -0.001403  0.000117  0.000357  0.000022 -0.000218
  4C   1s         0.041271  0.069428  0.077564 -0.016851 -0.716206 -0.671199
  4C   2s        -0.001322  0.001366  0.000261 -0.000438 -0.035456 -0.033355
  4C   3s         0.005223  0.013573  0.015178  0.001387  0.029571  0.022201
  4C   1pz       -0.000477 -0.000314 -0.000468  0.000028 -0.000125 -0.000124
  4C   1px       -0.001464 -0.001604  0.001343 -0.001250  0.000195 -0.000400
  4C   1py       -0.000304  0.000067 -0.001435  0.000575 -0.000168  0.000052
  4C   2pz        0.000995  0.000211  0.000580 -0.000715  0.001715  0.002758
  4C   2px       -0.002496 -0.002123  0.004558  0.002487 -0.002198  0.004253
  4C   2py        0.002923  0.001179 -0.000867 -0.002432  0.004015  0.003452
  4C   1dz2       0.000470  0.000508  0.000759  0.000026  0.001271  0.001002
  4C   1dxz      -0.000429 -0.000533  0.000321 -0.000381 -0.000552 -0.000532
  4C   1dyz      -0.000057 -0.000142 -0.000575 -0.000004 -0.001484 -0.001087
  4C   1dx2y2    -0.000849 -0.000893  0.000029 -0.000342 -0.000054 -0.000203
  4C   1dxy      -0.000074 -0.000190  0.001228 -0.000530  0.000196  0.000011
  5C   1s         0.638077  0.713491  0.051267  0.226316  0.042676  0.066194
  5C   2s         0.029652  0.035039  0.002918  0.014522  0.005396  0.005137
  5C   3s        -0.019686 -0.020175 -0.010845 -0.022361 -0.010181 -0.017555
  5C   1pz       -0.000276  0.000006  0.000297  0.001116 -0.000478 -0.000511
  5C   1px       -0.000089 -0.000103  0.000372  0.000808 -0.001788 -0.001455
  5C   1py       -0.000531  0.000006  0.000405  0.001764 -0.000172 -0.000374
  5C   2pz       -0.002483  0.000289  0.002701 -0.000872 -0.001107 -0.001292
  5C   2px       -0.001541  0.006197  0.003872  0.001534 -0.000355 -0.000583
  5C   2py       -0.004047 -0.001955  0.003585 -0.002242 -0.001922 -0.002200
  5C   1dz2      -0.000922 -0.001002 -0.000263 -0.000743 -0.000690 -0.000696
  5C   1dxz       0.000126  0.000313  0.000128  0.000562  0.000593  0.000541
  5C   1dyz       0.000694  0.001036  0.000563  0.001583  0.000276  0.000306
  5C   1dx2y2     0.000332  0.000146 -0.000274 -0.000616  0.000977  0.000907
  5C   1dxy      -0.000738 -0.000467  0.000027  0.000384  0.000107  0.000035
  6H   1s         0.000108  0.000761 -0.000694 -0.000301  0.003191 -0.004150
  6H   2s         0.000075  0.001200 -0.001213 -0.000712 -0.004609  0.003547
  6H   1pz        0.000169 -0.000154 -0.000264 -0.000007 -0.000378  0.000504
  6H   1px        0.000367 -0.000294 -0.000342  0.000074  0.001480 -0.001294
  6H   1py        0.000162 -0.000176 -0.000360 -0.000039 -0.001470  0.001651
  7H   1s        -0.003342  0.004021  0.000321 -0.001078 -0.000275  0.000058
  7H   2s         0.003859 -0.002949  0.001639  0.002541  0.000830 -0.001856
  7H   1pz        0.000955 -0.000956  0.000128  0.000471  0.000174 -0.000221
  7H   1px        0.000892 -0.000382 -0.000332  0.000024  0.000421 -0.000490
  7H   1py        0.001492 -0.001715  0.000384  0.000908  0.000165 -0.000224
  8H   1s        -0.001919 -0.000062  0.002035  0.004512 -0.000764  0.000026
  8H   2s        -0.000079  0.000007 -0.001022 -0.005868 -0.001376  0.000047
  8H   1pz        0.000153 -0.000308 -0.000248 -0.000730 -0.000015  0.000148
  8H   1px        0.000530  0.000169 -0.000920 -0.002710 -0.000075 -0.000068
  8H   1py        0.000072 -0.000655 -0.000092 -0.000270  0.000003  0.000307
  9H   1s         0.000150 -0.000753 -0.000696 -0.000304  0.003468  0.003922
  9H   2s         0.000144 -0.001189 -0.001213 -0.000716 -0.004841 -0.003223
  9H   1pz        0.000042  0.000024  0.000041  0.000040  0.001057  0.000929
  9H   1px        0.000403  0.000382 -0.000487  0.000053  0.000833  0.000488
  9H   1py       -0.000077 -0.000116  0.000277  0.000051  0.001818  0.001713
 10H   1s        -0.003108 -0.004202  0.000318 -0.001090 -0.000279 -0.000040
 10H   2s         0.003685  0.003155  0.001641  0.002550  0.000955  0.001796
 10H   1pz       -0.000277 -0.000569 -0.000257 -0.000353  0.000071  0.000059
 10H   1px        0.001439  0.001196 -0.000147  0.000424  0.000511  0.000532
 10H   1py       -0.001163 -0.001632 -0.000433 -0.000868 -0.000085 -0.000114
 11H   1s         0.000621  0.000017 -0.005430  0.001718 -0.000361  0.000012
 11H   2s         0.001571  0.000045  0.005105 -0.001918  0.002987 -0.000102
 11H   1pz       -0.000024 -0.000195 -0.000718  0.000228 -0.000207  0.000258
 11H   1px       -0.000114  0.000090 -0.002666  0.000850 -0.000803 -0.000093
 11H   1py        0.000001 -0.000413 -0.000265  0.000084 -0.000061  0.000531
                      6         7         8         9        10        11   
                  -0.90364  -0.80047  -0.80012  -0.66851  -0.66427  -0.58539
                   2.00000   2.00000   2.00000   2.00000   2.00000   2.00000
                  --------  --------  --------  --------  --------  --------
  0C   1s        -0.117021  0.173089 -0.002127  0.136346 -0.000073  0.021786
  0C   2s         0.234887 -0.362600  0.004456 -0.298743  0.000162 -0.046096
  0C   3s         0.033500 -0.058065  0.000714 -0.050708  0.000021 -0.068955
  0C   1pz        0.018571 -0.010374  0.048025  0.014620  0.094763  0.055331
  0C   1px        0.068990 -0.041018 -0.022405  0.054110 -0.045379  0.205502
  0C   1py        0.006846 -0.002796  0.100857  0.005474  0.199768  0.020412
  0C   2pz        0.004538 -0.002565  0.017390 -0.000269  0.026781  0.014350
  0C   2px        0.016859 -0.010430 -0.008192 -0.001063 -0.012916  0.053283
  0C   2py        0.001670 -0.000570  0.036763 -0.000074  0.057500  0.005298
  0C   1dz2      -0.005952  0.005435  0.002041  0.002255  0.001652 -0.000751
  0C   1dxz       0.002322 -0.000709  0.003947 -0.000537  0.003089  0.002652
  0C   1dyz       0.006983 -0.008411  0.003112 -0.003269  0.002374 -0.002614
  0C   1dx2y2     0.000440  0.003311 -0.003146  0.000741 -0.002445  0.006661
  0C   1dxy      -0.001748  0.003063  0.009256  0.001027  0.007335  0.002118
  1C   1s        -0.119691  0.084661 -0.148229 -0.068442 -0.117897  0.018340
  1C   2s         0.240230 -0.177838  0.311132  0.150270  0.259626 -0.041307
  1C   3s         0.039694 -0.021408  0.047832  0.029693  0.041698 -0.016978
  1C   1pz       -0.016386  0.050553  0.017943  0.090113 -0.038445 -0.049800
  1C   1px        0.049056  0.063439  0.069209  0.129663 -0.112094  0.126294
  1C   1py       -0.050311  0.068752  0.007721  0.119835 -0.023119 -0.151675
  1C   2pz       -0.004697  0.016883  0.007965  0.023842 -0.013253 -0.019954
  1C   2px        0.012389  0.028162  0.019198  0.043019 -0.025014  0.052663
  1C   2py       -0.014299  0.020393  0.007217  0.027688 -0.015215 -0.061736
  1C   1dz2      -0.006128  0.000733 -0.005498 -0.002523 -0.001148 -0.001189
  1C   1dxz       0.003667 -0.001810  0.005663  0.001782  0.001441 -0.004314
  1C   1dyz       0.006770 -0.007663  0.003253 -0.001819  0.004097  0.000056
  1C   1dx2y2     0.002076  0.007240  0.007178  0.006601 -0.002759 -0.001633
  1C   1dxy      -0.000058 -0.003917  0.002633 -0.000804  0.001714 -0.007753
  2C   1s        -0.122233 -0.085555 -0.148240 -0.065496  0.115700  0.024020
  2C   2s         0.245555  0.179612  0.311248  0.143949 -0.254861 -0.053485
  2C   3s         0.037203  0.021970  0.045556  0.015244 -0.040915 -0.062652
  2C   1pz       -0.036860 -0.009276 -0.019050  0.008485 -0.023305 -0.101464
  2C   1px       -0.021975  0.090007 -0.069327 -0.179550 -0.123941 -0.059422
  2C   1py       -0.060518 -0.054410 -0.006680  0.091054  0.006175 -0.170985
  2C   2pz       -0.008703 -0.000235 -0.002529  0.000865 -0.001852 -0.031183
  2C   2px       -0.005459  0.034911 -0.021906 -0.050134 -0.032546 -0.017258
  2C   2py       -0.014216 -0.014846  0.004558  0.022667  0.010589 -0.053029
  2C   1dz2      -0.006696 -0.003714 -0.006163 -0.001310  0.002474  0.001745
  2C   1dxz       0.002537 -0.003797  0.004260  0.004037  0.001438  0.001211
  2C   1dyz       0.006222  0.003548  0.002159 -0.000472 -0.002236  0.003775
  2C   1dx2y2     0.002527 -0.002980  0.008303  0.005396  0.000952 -0.005652
  2C   1dxy      -0.002610 -0.008980 -0.000636  0.004137  0.004241  0.005030
  3C   1s        -0.122369 -0.168898  0.002084  0.135741 -0.000069  0.018950
  3C   2s         0.245944  0.354411 -0.004373 -0.298756  0.000154 -0.042105
  3C   3s         0.039952  0.054677 -0.000675 -0.042085  0.000019 -0.028943
  3C   1pz       -0.019471 -0.010574  0.050904 -0.012585 -0.097809 -0.052186
  3C   1px       -0.072341 -0.041912 -0.023742 -0.046516  0.046723 -0.193862
  3C   1py       -0.007180 -0.002820  0.106649 -0.004731 -0.205089 -0.019240
  3C   2pz       -0.004778 -0.001619  0.018323 -0.001502 -0.026649 -0.019514
  3C   2px       -0.017753 -0.006960 -0.008637 -0.005512  0.012790 -0.072476
  3C   2py       -0.001759 -0.000209  0.038252 -0.000581 -0.056548 -0.007200
  3C   1dz2      -0.006207 -0.005228 -0.002154  0.002168  0.001690 -0.001098
  3C   1dxz       0.002344  0.000510 -0.004153 -0.000309  0.003161  0.003137
  3C   1dyz       0.007432  0.008374 -0.003264 -0.003419  0.002408 -0.002834
  3C   1dx2y2     0.000256 -0.003633  0.003309  0.001304 -0.002487  0.007627
  3C   1dxy      -0.001906 -0.003129 -0.009721  0.001187  0.007430  0.002385
  4C   1s        -0.119690  0.088290  0.146098 -0.068325  0.117965  0.018343
  4C   2s         0.240229 -0.185455 -0.306654  0.150015 -0.259776 -0.041315
  4C   3s         0.039686 -0.022577 -0.047298  0.029657 -0.041727 -0.016988
  4C   1pz        0.036110 -0.009301 -0.019050 -0.007593  0.023620  0.098466
  4C   1px        0.024201  0.089828 -0.071248  0.176876  0.118219  0.054487
  4C   1py        0.057593 -0.053505 -0.004702 -0.089405 -0.000141  0.169613
  4C   2pz        0.009523  0.000321 -0.003019  0.002124  0.001715  0.040430
  4C   2px        0.005547  0.035474 -0.022450  0.053444  0.030529  0.023388
  4C   2py        0.016072 -0.013934  0.003511 -0.018117 -0.009670  0.069282
  4C   1dz2      -0.006631  0.003900  0.006174 -0.001403  0.002611  0.001795
  4C   1dxz       0.002727  0.003725 -0.004315  0.003878  0.001301  0.001273
  4C   1dyz       0.006052 -0.003508 -0.002076 -0.000298 -0.002177  0.004203
  4C   1dx2y2     0.002816  0.002665 -0.008374  0.005009  0.000723 -0.005948
  4C   1dxy      -0.002275  0.009038  0.000510  0.003865  0.004112  0.004993
  5C   1s        -0.122228 -0.081880  0.150303 -0.065623 -0.115631  0.024020
  5C   2s         0.245543  0.171897 -0.315577  0.144229  0.254708 -0.053484
  5C   3s         0.037209  0.020847 -0.046077  0.015289  0.040905 -0.062647
  5C   1pz        0.018000  0.050554  0.017077 -0.092124  0.041262  0.049857
  5C   1px       -0.048070  0.063410  0.067930 -0.131182  0.115680 -0.132239
  5C   1py        0.053559  0.069623  0.005389 -0.121889  0.030081  0.151940
  5C   2pz        0.004122  0.017040  0.008062 -0.024557  0.014089  0.015793
  5C   2px       -0.011566  0.027218  0.018323 -0.037890  0.026611 -0.039890
  5C   2py        0.012533  0.021176  0.008099 -0.031398  0.016492  0.047354
  5C   1dz2      -0.006115 -0.000631  0.005474 -0.002477 -0.001020 -0.001079
  5C   1dxz       0.003622  0.001580 -0.005618  0.001855  0.001287 -0.004062
  5C   1dyz       0.007065  0.007617 -0.003379 -0.002071  0.004184 -0.000274
  5C   1dx2y2     0.001660 -0.007457 -0.007063  0.007066 -0.003005 -0.001479
  5C   1dxy       0.000003  0.003744 -0.002659 -0.000782  0.001700 -0.007488
  6H   1s         0.038612 -0.043029  0.075974  0.065529  0.116768 -0.131846
  6H   2s         0.009844 -0.003693  0.006954  0.011470  0.019755 -0.001215
  6H   1pz       -0.001490  0.001998 -0.001920  0.000149 -0.003411  0.001982
  6H   1px        0.004519 -0.002750  0.007603  0.006906  0.005868 -0.006330
  6H   1py       -0.004964  0.005202 -0.007265 -0.002921 -0.009488  0.006953
  7H   1s         0.038989  0.043084  0.075466  0.063238 -0.113106 -0.140193
  7H   2s         0.009409  0.004023  0.006734  0.010542 -0.019101 -0.005221
  7H   1pz       -0.003422 -0.002920 -0.005186 -0.003155  0.005418  0.004916
  7H   1px       -0.002115 -0.000388 -0.004121 -0.005408  0.001331  0.003138
  7H   1py       -0.005727 -0.005481 -0.008329 -0.003886  0.009925  0.008237
  8H   1s         0.038751  0.085166 -0.001053 -0.129951  0.000069 -0.131394
  8H   2s         0.009277  0.008052 -0.000101 -0.021052  0.000013 -0.002909
  8H   1pz       -0.001793 -0.003073  0.000793  0.003374 -0.001819  0.002474
  8H   1px       -0.006662 -0.011454 -0.000220  0.012536  0.000857  0.009188
  8H   1py       -0.000661 -0.001117  0.001608  0.001243 -0.003774  0.000913
  9H   1s         0.038609 -0.044884 -0.074883  0.065409 -0.116831 -0.131844
  9H   2s         0.009842 -0.003861 -0.006860  0.011452 -0.019763 -0.001214
  9H   1pz        0.003293 -0.002965 -0.005014  0.003157 -0.005408 -0.004522
  9H   1px        0.002179 -0.000485 -0.004146  0.005391 -0.001543 -0.003105
  9H   1py        0.005629 -0.005718 -0.008293  0.004132 -0.010227 -0.007890
 10H   1s         0.038989  0.041218 -0.076506  0.063356  0.113040 -0.140188
 10H   2s         0.009411  0.003857 -0.006832  0.010560  0.019092 -0.005219
 10H   1pz        0.001628  0.002015 -0.002080 -0.000147  0.003539 -0.002290
 10H   1px       -0.004546 -0.002600  0.007669 -0.006874 -0.005638  0.006617
 10H   1py        0.005066  0.004989 -0.007290  0.002677  0.009230 -0.007268
 11H   1s         0.039265 -0.092741  0.001142 -0.140565  0.000077 -0.147068
 11H   2s         0.009902 -0.010202  0.000127 -0.024883  0.000017 -0.008648
 11H   1pz        0.001822 -0.003347  0.000782 -0.003612  0.001766 -0.002721
 11H   1px        0.006768 -0.012472 -0.000199 -0.013421 -0.000831 -0.010107
 11H   1py        0.000672 -0.001219  0.001558 -0.001331  0.003660 -0.001003
                     12        13        14        15        16        17   
                  -0.54116  -0.51960  -0.49765  -0.49413  -0.43470  -0.43179
                   2.00000   2.00000   2.00000   2.00000   2.00000   2.00000
                  --------  --------  --------  --------  --------  --------
  0C   1s        -0.000001  0.076324  0.028125 -0.000031  0.000002  0.007766
  0C   2s         0.000004 -0.165877 -0.083285  0.000091 -0.000012 -0.005699
  0C   3s         0.000009 -0.343065 -0.121569  0.000142 -0.000024 -0.073466
  0C   1pz        0.120870  0.047654 -0.080720  0.038896  0.218291  0.059390
  0C   1px       -0.057716  0.177019 -0.299985 -0.017006 -0.049656  0.220537
  0C   1py        0.253549  0.017570 -0.029700  0.069407 -0.091998  0.021903
  0C   2pz        0.034228 -0.027771 -0.026673 -0.025389  0.096004  0.003236
  0C   2px       -0.016386 -0.103151 -0.098935  0.012754 -0.021876  0.012005
  0C   2py        0.072311 -0.010243 -0.009892 -0.058445 -0.040120  0.001188
  0C   1dz2       0.000908  0.001955  0.000439  0.002719  0.004956  0.001774
  0C   1dxz       0.001698 -0.004800 -0.000454  0.005101  0.009992 -0.006520
  0C   1dyz       0.001290  0.003677 -0.000292  0.003695 -0.000281  0.006592
  0C   1dx2y2    -0.001333 -0.011454 -0.000929 -0.003868 -0.001877 -0.016439
  0C   1dxy       0.003981 -0.003427 -0.000105  0.011303 -0.005196 -0.005265
  1C   1s        -0.002017 -0.081279 -0.002553 -0.017066  0.000121 -0.002131
  1C   2s         0.004351  0.183026 -0.003006  0.054375  0.000432 -0.001007
  1C   3s         0.001377  0.366418  0.001322  0.067840 -0.008348  0.032048
  1C   1pz       -0.122646  0.017712  0.073203 -0.045495  0.205764 -0.070797
  1C   1px       -0.218693 -0.094310 -0.056607  0.204372 -0.048602 -0.248398
  1C   1py       -0.142295  0.080007  0.167991 -0.187176 -0.125563 -0.021740
  1C   2pz       -0.032467 -0.025809 -0.017356 -0.033027  0.093758 -0.029052
  1C   2px       -0.056146  0.077156 -0.065622  0.024885 -0.022716 -0.062759
  1C   2py       -0.038589 -0.079981 -0.004574 -0.078093 -0.050290 -0.025598
  1C   1dz2       0.000852 -0.001845 -0.002414 -0.001504 -0.003940  0.000611
  1C   1dxz      -0.000497 -0.005446  0.000543  0.001036  0.008468 -0.005306
  1C   1dyz       0.001956  0.001001 -0.005749 -0.002934 -0.005827  0.003584
  1C   1dx2y2    -0.003815 -0.003960  0.010195  0.006493 -0.005811 -0.009849
  1C   1dxy       0.000598 -0.010125 -0.003957 -0.001219 -0.000855 -0.006026
  2C   1s         0.000412  0.081075  0.003159 -0.015120 -0.000395 -0.007230
  2C   2s        -0.001202 -0.182615  0.002140  0.050437 -0.000249  0.011525
  2C   3s        -0.002481 -0.363280 -0.006890  0.068254  0.003988  0.053350
  2C   1pz        0.006245 -0.051872 -0.091550 -0.138088  0.228953  0.060981
  2C   1px        0.271161 -0.032609 -0.003045 -0.116436 -0.049142  0.252163
  2C   1py       -0.099640 -0.085374 -0.172841 -0.226322 -0.091029  0.019149
  2C   2pz        0.002084  0.059103 -0.018311 -0.038019  0.097240  0.003455
  2C   2px        0.071802  0.044858 -0.070131  0.010222 -0.023929  0.063467
  2C   2py       -0.025726  0.094719 -0.005552 -0.081173 -0.045843 -0.016639
  2C   1dz2      -0.000055 -0.001655 -0.000650 -0.000383 -0.009217  0.001982
  2C   1dxz      -0.002342 -0.001288 -0.005570  0.003247 -0.001793 -0.003576
  2C   1dyz       0.000685 -0.006064  0.001262 -0.001170 -0.005620  0.005758
  2C   1dx2y2    -0.002646  0.008601 -0.005303  0.004535 -0.004754 -0.012708
  2C   1dxy      -0.003264 -0.006096 -0.008916  0.004385  0.004651 -0.001350
  3C   1s         0.000001 -0.079224 -0.027084  0.000032 -0.000001  0.010059
  3C   2s        -0.000004  0.175185  0.078943 -0.000091  0.000009 -0.010382
  3C   3s        -0.000009  0.351470  0.125254 -0.000142  0.000023 -0.086908
  3C   1pz        0.121307  0.046815 -0.076467  0.041236  0.207786 -0.067910
  3C   1px       -0.057889  0.173899 -0.284223 -0.018415 -0.042536 -0.252269
  3C   1py        0.254242  0.017266 -0.028129  0.077162 -0.134971 -0.025061
  3C   2pz        0.033267 -0.025161 -0.027439 -0.027083  0.093789 -0.005392
  3C   2px       -0.015894 -0.093481 -0.101792  0.013366 -0.019886 -0.020039
  3C   2py        0.069995 -0.009276 -0.010176 -0.059963 -0.054065 -0.001991
  3C   1dz2      -0.000891 -0.001773 -0.000697 -0.002855 -0.004787  0.001841
  3C   1dxz      -0.001666  0.004100  0.001068 -0.005352 -0.009706 -0.006665
  3C   1dyz      -0.001268 -0.003173 -0.000404 -0.003918  0.000812  0.006837
  3C   1dx2y2     0.001310  0.009596  0.002296  0.004088  0.001414 -0.016716
  3C   1dxy      -0.003916  0.002898  0.000584 -0.012012  0.007015 -0.005391
  4C   1s         0.002013 -0.081281 -0.002520  0.017063 -0.000122 -0.002131
  4C   2s        -0.004340  0.183032 -0.003115 -0.054348 -0.000433 -0.001007
  4C   3s        -0.001398  0.366424  0.001181 -0.067827  0.008401  0.032059
  4C   1pz        0.009603 -0.058302 -0.083565 -0.131645  0.208583 -0.063329
  4C   1px        0.272541 -0.056465  0.019004 -0.116342 -0.038097 -0.249810
  4C   1py       -0.093524 -0.094965 -0.172181 -0.218644 -0.124535 -0.027765
  4C   2pz        0.001714  0.056788 -0.017927 -0.037085  0.095004 -0.007320
  4C   2px        0.070830  0.037913 -0.065076  0.009810 -0.018139 -0.072340
  4C   2py       -0.025988  0.091413 -0.008585 -0.079587 -0.049794  0.012168
  4C   1dz2       0.000026  0.001565  0.000506  0.000169  0.009620  0.001730
  4C   1dxz       0.002152  0.000911  0.005983 -0.003542  0.002911 -0.003221
  4C   1dyz      -0.000852  0.006022 -0.001473  0.001040  0.006218  0.005236
  4C   1dx2y2     0.002632 -0.009096  0.005805 -0.004544  0.003139 -0.011537
  4C   1dxy       0.002727  0.005475  0.009298 -0.004655 -0.002485 -0.000891
  5C   1s        -0.000415  0.081073  0.003187  0.015118  0.000395 -0.007228
  5C   2s         0.001206 -0.182608  0.002041 -0.050454  0.000252  0.011520
  5C   3s         0.002515 -0.363277 -0.007042 -0.068255 -0.004038  0.053331
  5C   1pz       -0.124565  0.024481  0.069104 -0.050642  0.227229  0.073597
  5C   1px       -0.214719 -0.069124 -0.079388  0.209112 -0.055551  0.247642
  5C   1py       -0.147910  0.075277  0.164183 -0.194379 -0.091642  0.030497
  5C   2pz       -0.032644 -0.024184 -0.019385 -0.033957  0.098375  0.027772
  5C   2px       -0.057198  0.084815 -0.069534  0.025300 -0.019654  0.052491
  5C   2py       -0.038537 -0.081829 -0.008496 -0.079678 -0.045453  0.028159
  5C   1dz2      -0.000962  0.001941  0.002155  0.001423  0.004818  0.000727
  5C   1dxz       0.000438  0.005414 -0.000351 -0.001317 -0.007163 -0.005936
  5C   1dyz      -0.002097 -0.000751  0.005411  0.002861  0.006763  0.004115
  5C   1dx2y2     0.004115  0.003170 -0.009551 -0.006209  0.005759 -0.010968
  5C   1dxy      -0.001076  0.010420  0.003969  0.000993  0.003249 -0.006339
  6H   1s         0.009216  0.182447  0.134128 -0.189347 -0.014229  0.122202
  6H   2s         0.002469  0.057648  0.035420 -0.048846 -0.004260  0.044997
  6H   1pz       -0.002935 -0.002493 -0.000469  0.002816  0.005491 -0.003204
  6H   1px       -0.004447  0.006522  0.006821 -0.005829 -0.001900  0.000110
  6H   1py       -0.003767 -0.008299 -0.004242  0.008273 -0.002391 -0.006396
  7H   1s         0.001826 -0.169658 -0.143295 -0.198280  0.020902  0.122999
  7H   2s         0.000264 -0.056011 -0.038474 -0.051847  0.007878  0.045481
  7H   1pz        0.000040  0.004862  0.003956  0.005395  0.005100 -0.002684
  7H   1px        0.005989  0.002877  0.004524  0.002190 -0.001644  0.002820
  7H   1py       -0.002380  0.008362  0.005886  0.009413 -0.003583 -0.006252
  8H   1s         0.000005  0.220510 -0.186551  0.000212  0.000005 -0.257155
  8H   2s        -0.000003  0.066374 -0.044989  0.000055  0.000002 -0.096396
  8H   1pz        0.002663 -0.003403  0.002732  0.001408  0.005330  0.003016
  8H   1px       -0.001270 -0.012639  0.010142 -0.000663 -0.001100  0.011200
  8H   1py        0.005568 -0.001255  0.001010  0.002730 -0.003375  0.001111
  9H   1s        -0.009210  0.182437  0.134545  0.189059  0.014234  0.122227
  9H   2s        -0.002465  0.057648  0.035522  0.048766  0.004281  0.045003
  9H   1pz       -0.000143  0.004994  0.003601  0.004923  0.005819  0.002515
  9H   1px        0.005922  0.002767  0.004777  0.002013 -0.000681 -0.002674
  9H   1py       -0.002737  0.009220  0.005413  0.009041 -0.002270  0.006142
 10H   1s        -0.001815 -0.169659 -0.142856  0.198591 -0.020926  0.122983
 10H   2s        -0.000267 -0.056007 -0.038364  0.051933 -0.007902  0.045475
 10H   1pz       -0.002827 -0.002366 -0.000878  0.003120  0.005411  0.003418
 10H   1px       -0.004661  0.006393  0.006870 -0.006283 -0.000485 -0.000091
 10H   1py       -0.003438 -0.007441 -0.004734  0.008583 -0.003469  0.006522
 11H   1s         0.000003 -0.227437  0.202861 -0.000225  0.000015 -0.228581
 11H   2s         0.000005 -0.073924  0.051006 -0.000061  0.000003 -0.087947
 11H   1pz        0.002684 -0.003390  0.002912  0.001429  0.005776 -0.002547
 11H   1px       -0.001279 -0.012590  0.010810 -0.000669 -0.001297 -0.009463
 11H   1py        0.005603 -0.001250  0.001077  0.002733 -0.002590 -0.000939
                     18        19        20        21        22        23   
                  -0.42530  -0.33822  -0.33764  -0.15089  -0.14790  -0.02322
                   2.00000   2.00000   2.00000   0.00000   0.00000   0.00000
                  --------  --------  --------  --------  --------  --------
  0C   1s         0.000000  0.000665  0.000005  0.000002 -0.000714 -0.048976
  0C   2s        -0.000001 -0.001612 -0.000013 -0.000010  0.002096  0.145023
  0C   3s         0.000018  0.001615 -0.000005  0.000099 -0.009313  0.422325
  0C   1pz        0.098394 -0.001318  0.332073 -0.366928 -0.000071 -0.024166
  0C   1px       -0.050802  0.001654 -0.071658  0.079667  0.001282 -0.089849
  0C   1py        0.244782  0.001019 -0.178688  0.192555  0.000327 -0.008929
  0C   2pz        0.028771 -0.000553  0.182063 -0.355053 -0.001481 -0.056041
  0C   2px       -0.015297  0.001558 -0.039478  0.076916 -0.003995 -0.208280
  0C   2py        0.076140  0.000616 -0.096118  0.188574 -0.000214 -0.020703
  0C   1dz2       0.001895  0.013368  0.003592  0.003308 -0.021573  0.006142
  0C   1dxz       0.003488 -0.005578  0.007098  0.006631  0.008845 -0.010774
  0C   1dyz       0.003226  0.012270 -0.000327 -0.000345 -0.019726  0.005322
  0C   1dx2y2    -0.003174  0.008794 -0.001152 -0.001095 -0.014467 -0.023868
  0C   1dxy       0.010271 -0.001701 -0.004396 -0.004111  0.002696 -0.006524
  1C   1s         0.006503 -0.001518 -0.000698 -0.000573  0.001931 -0.049035
  1C   2s        -0.004505  0.003804  0.001625  0.001404 -0.005189  0.145379
  1C   3s        -0.068141 -0.000020  0.000235  0.000229  0.004230  0.407529
  1C   1pz       -0.123824  0.284690  0.170019  0.185785 -0.316603  0.025208
  1C   1px        0.047024 -0.067340 -0.038696 -0.042053  0.072534 -0.069774
  1C   1py       -0.220122 -0.146806 -0.084020 -0.094078  0.162915  0.087792
  1C   2pz       -0.030425  0.155036  0.093399  0.179572 -0.311779  0.053842
  1C   2px       -0.015608 -0.037241 -0.020828 -0.040995  0.074922 -0.155800
  1C   2py       -0.032945 -0.079113 -0.046211 -0.090894  0.156234  0.187697
  1C   1dz2       0.003332  0.004552 -0.013793  0.020671  0.008558  0.007247
  1C   1dxz       0.006732  0.010865 -0.007658  0.014160  0.013765  0.011713
  1C   1dyz       0.003919 -0.000912 -0.006973  0.009598  0.000612 -0.001892
  1C   1dx2y2    -0.000802 -0.002307 -0.003889  0.004717 -0.001688  0.003851
  1C   1dxy       0.016121 -0.006117  0.007103 -0.012093 -0.008723  0.025605
  2C   1s        -0.008207 -0.000205  0.000510 -0.000037 -0.000803 -0.050639
  2C   2s         0.009328  0.000511 -0.001243  0.000035  0.002196  0.149514
  2C   3s         0.073730  0.002884 -0.000769  0.000929 -0.007898  0.427740
  2C   1pz        0.079510  0.289126 -0.161755  0.178204  0.315596  0.060007
  2C   1px       -0.053760 -0.059247  0.035830 -0.037962 -0.068213  0.037885
  2C   1py        0.225215 -0.150871  0.082205 -0.092243 -0.164574  0.098673
  2C   2pz       -0.001070  0.156788 -0.088237  0.173404  0.311789  0.128201
  2C   2px       -0.028290 -0.033680  0.019156 -0.037996 -0.063967  0.079023
  2C   2py        0.031199 -0.082400  0.045212 -0.090143 -0.158381  0.210181
  2C   1dz2       0.004445 -0.006093  0.002814  0.002089  0.005650 -0.002297
  2C   1dxz       0.004998 -0.010169 -0.014517 -0.023540  0.015269 -0.005517
  2C   1dyz       0.006599 -0.000299  0.007927  0.011192 -0.002004 -0.016431
  2C   1dx2y2    -0.007545  0.001195  0.007870  0.011420 -0.003654  0.019107
  2C   1dxy       0.013582  0.005961  0.005226  0.009415 -0.008015 -0.016617
  3C   1s        -0.000001 -0.000345 -0.000004 -0.000005  0.000949 -0.051888
  3C   2s         0.000000  0.001063  0.000009  0.000017 -0.002822  0.152479
  3C   3s         0.000013 -0.000248 -0.000026 -0.000085  0.004910  0.442790
  3C   1pz       -0.130359  0.000944 -0.326214 -0.362196 -0.000026  0.031106
  3C   1px        0.056561 -0.002895  0.070399  0.078466  0.001421  0.115637
  3C   1py       -0.216043 -0.001121  0.175320  0.191746  0.000335  0.011485
  3C   2pz       -0.044805  0.000872 -0.177846 -0.351751 -0.001311  0.065802
  3C   2px        0.018705 -0.000280  0.038455  0.076160 -0.003373  0.244541
  3C   2py       -0.066965 -0.000478  0.095098  0.187191 -0.000165  0.024304
  3C   1dz2       0.002602  0.013748  0.003588 -0.003058  0.021718  0.006946
  3C   1dxz       0.004935 -0.005657  0.007082 -0.006125 -0.008726 -0.011943
  3C   1dyz       0.002986  0.012518 -0.000282  0.000295  0.019790  0.006303
  3C   1dx2y2    -0.003295  0.009268 -0.001179  0.001026  0.015136 -0.026070
  3C   1dxy       0.008798 -0.001676 -0.004236  0.003719 -0.002577 -0.007264
  4C   1s        -0.006505 -0.001521  0.000683  0.000567  0.001928 -0.049030
  4C   2s         0.004511  0.003806 -0.001594 -0.001382 -0.005175  0.145373
  4C   3s         0.068131  0.000022 -0.000232 -0.000415  0.004170  0.407305
  4C   1pz       -0.119765 -0.288996  0.167772  0.185798  0.318732 -0.052241
  4C   1px        0.062144  0.057956 -0.035781 -0.039369 -0.066198 -0.030497
  4C   1py       -0.218618  0.146677 -0.082334 -0.093489 -0.162482 -0.097730
  4C   2pz       -0.016962 -0.157618  0.091969  0.179703  0.315389 -0.114949
  4C   2px        0.034429  0.031254 -0.020021 -0.037772 -0.062993 -0.070927
  4C   2py       -0.027982  0.078929 -0.045358 -0.090306 -0.155221 -0.210122
  4C   1dz2       0.002716 -0.005975  0.002854 -0.002116 -0.005702 -0.002161
  4C   1dxz       0.004474 -0.010186 -0.014402  0.023303 -0.014979 -0.005857
  4C   1dyz       0.005649 -0.000045  0.007844 -0.011212  0.001960 -0.015458
  4C   1dx2y2    -0.008796  0.001327  0.007834 -0.011330  0.003267  0.017814
  4C   1dxy       0.013987  0.006136  0.005304 -0.009424  0.008283 -0.016384
  5C   1s         0.008209 -0.000200 -0.000511  0.000043 -0.000801 -0.050644
  5C   2s        -0.009332  0.000504  0.001238 -0.000061  0.002196  0.149519
  5C   3s        -0.073751  0.002837  0.000844 -0.000729 -0.007944  0.427990
  5C   1pz        0.084455 -0.285708 -0.164846  0.178452 -0.315011 -0.028213
  5C   1px       -0.035320  0.065561  0.035665 -0.039683  0.068881  0.080083
  5C   1py        0.227051  0.150687  0.083626 -0.092748  0.164433 -0.086985
  5C   2pz        0.011598 -0.155734 -0.089741  0.174228 -0.309324 -0.061293
  5C   2px        0.018786  0.034143  0.019683 -0.037698  0.071696  0.169289
  5C   2py        0.035878  0.082033  0.046080 -0.090387  0.158961 -0.185626
  5C   1dz2       0.002463  0.004448 -0.013853 -0.020848 -0.008875  0.007244
  5C   1dxz       0.007943  0.010902 -0.007739 -0.014335 -0.013987  0.012282
  5C   1dyz       0.002939 -0.001057 -0.007108 -0.009633 -0.000868 -0.002464
  5C   1dx2y2    -0.002393 -0.002526 -0.003850 -0.004681  0.001569  0.004791
  5C   1dxy       0.015691 -0.005902  0.007088  0.012078  0.008436  0.026732
  6H   1s        -0.215440  0.000666  0.002263 -0.002145  0.004399 -0.139327
  6H   2s        -0.081773  0.000450  0.001310 -0.001503  0.004594 -0.639345
  6H   1pz        0.000364  0.009116  0.005444  0.008215 -0.014362 -0.002470
  6H   1px       -0.008074 -0.002199 -0.001159 -0.002068  0.003250  0.006925
  6H   1py        0.005804 -0.004661 -0.002714 -0.004284  0.007204 -0.007620
  7H   1s         0.207150 -0.000232 -0.002016 -0.001457 -0.000478 -0.145671
  7H   2s         0.078878  0.000002 -0.000952 -0.001142 -0.000455 -0.666764
  7H   1pz       -0.005016  0.009234 -0.005109  0.007970  0.014225 -0.005312
  7H   1px       -0.005129 -0.001897  0.001163 -0.001648 -0.003055 -0.003288
  7H   1py       -0.006321 -0.004776  0.002680 -0.004153 -0.007343 -0.009101
  8H   1s         0.000017 -0.002901 -0.000015 -0.000005  0.000562 -0.146901
  8H   2s         0.000008 -0.001623 -0.000017 -0.000023  0.001743 -0.671042
  8H   1pz       -0.002788  0.000071 -0.010419 -0.016249 -0.000012 -0.002882
  8H   1px        0.001187  0.000061  0.002253  0.003521  0.000025 -0.010702
  8H   1py       -0.004403 -0.000020  0.005563  0.008600  0.000012 -0.001062
  9H   1s         0.215433  0.000678 -0.002257  0.002138  0.004398 -0.139334
  9H   2s         0.081772  0.000442 -0.001294  0.001500  0.004623 -0.639233
  9H   1pz        0.004045 -0.009273  0.005334  0.008326  0.014430  0.005207
  9H   1px        0.005600  0.001826 -0.001209 -0.001541 -0.003070  0.003246
  9H   1py        0.007161  0.004650 -0.002674 -0.004217 -0.007195  0.008630
 10H   1s        -0.207159 -0.000240  0.002015  0.001459 -0.000474 -0.145676
 10H   2s        -0.078876  0.000014  0.000964  0.001142 -0.000419 -0.666916
 10H   1pz       -0.001481 -0.009125 -0.005227  0.007956 -0.014185  0.002517
 10H   1px        0.008004  0.002097  0.001085 -0.001812  0.003135 -0.007100
 10H   1py       -0.005017  0.004770  0.002719 -0.004184  0.007342  0.008069
 11H   1s         0.000010 -0.003244 -0.000014 -0.000002  0.001950 -0.127786
 11H   2s         0.000005 -0.001434 -0.000014  0.000015  0.001432 -0.603447
 11H   1pz        0.002056 -0.000079  0.011013 -0.017053 -0.000026  0.002698
 11H   1px       -0.001089 -0.000076 -0.002381  0.003698 -0.000023  0.010019
 11H   1py        0.005401  0.000020 -0.005887  0.008993  0.000008  0.000994
                     24        25        26        27        28        29   
                  -0.01103   0.02217   0.02470   0.05815   0.05890   0.08294
                   0.00000   0.00000   0.00000   0.00000   0.00000   0.00000
                  --------  --------  --------  --------  --------  --------
  0C   1s         0.000002  0.000028  0.040357 -0.000420 -0.120468  0.089064
  0C   2s        -0.000002 -0.000081 -0.109066  0.001130  0.321793 -0.238704
  0C   3s        -0.000089 -0.000467 -0.581547  0.006651  1.924357 -0.562079
  0C   1pz        0.286129 -0.035639  0.062222  0.048335 -0.017823  0.017038
  0C   1px       -0.062160  0.015672  0.231001 -0.023680 -0.065512  0.063326
  0C   1py       -0.149747 -0.059626  0.022976  0.105124 -0.006862  0.006247
  0C   2pz        0.376914 -0.046926  0.124972  0.214849 -0.039524  0.136481
  0C   2px       -0.081415  0.019521  0.463989 -0.105327 -0.143893  0.507364
  0C   2py       -0.202139 -0.066390  0.046161  0.473188 -0.015858  0.050166
  0C   1dz2      -0.006332  0.002885 -0.004666 -0.004116  0.005694 -0.006645
  0C   1dxz      -0.012800  0.005454  0.010656 -0.007697 -0.000127  0.002418
  0C   1dyz       0.000725  0.003592 -0.007900 -0.006260 -0.009745  0.007582
  0C   1dx2y2     0.002129 -0.003852  0.024999  0.006348  0.005319 -0.000188
  0C   1dxy       0.007988  0.010807  0.007440 -0.019410  0.003788 -0.002030
  1C   1s         0.002030  0.033345  0.024349  0.106763  0.056325 -0.085100
  1C   2s        -0.005004 -0.088718 -0.065042 -0.284070 -0.148715  0.224805
  1C   3s        -0.011956 -0.485331 -0.353925 -1.688312 -0.910714  0.477823
  1C   1pz       -0.291295 -0.058367 -0.003746 -0.027839  0.034170  0.009985
  1C   1px        0.067147  0.113835  0.129361  0.005842  0.084274 -0.049007
  1C   1py        0.143621 -0.179394 -0.068648 -0.068231  0.025432  0.051332
  1C   2pz       -0.388107 -0.098399 -0.023592 -0.107627  0.172271  0.104436
  1C   2px        0.091369  0.236746  0.215686 -0.072178  0.344603 -0.349233
  1C   2py        0.188411 -0.326744 -0.152862 -0.210979  0.174134  0.368422
  1C   1dz2      -0.005201 -0.005555 -0.000828 -0.006883  0.000521  0.006164
  1C   1dxz       0.009478 -0.009923 -0.007782  0.008040  0.002026 -0.004042
  1C   1dyz      -0.007815 -0.002813  0.005405  0.002161  0.011758 -0.007426
  1C   1dx2y2    -0.006824  0.001680 -0.012580  0.012113 -0.014054 -0.000845
  1C   1dxy      -0.003231 -0.022695 -0.010640  0.003980  0.007229 -0.000718
  2C   1s        -0.000755  0.036139 -0.017680 -0.102886  0.062104  0.081955
  2C   2s         0.002144 -0.095868  0.045917  0.274244 -0.164452 -0.218611
  2C   3s         0.000588 -0.514698  0.274634  1.616317 -0.979172 -0.406076
  2C   1pz        0.292620 -0.110726  0.058067  0.024008 -0.020869 -0.035610
  2C   1px       -0.064280 -0.032850  0.085353 -0.032598 -0.099104 -0.021838
  2C   1py       -0.154987 -0.187987  0.078614  0.066820 -0.001348 -0.062920
  2C   2pz        0.389962 -0.209705  0.105559  0.047070 -0.051099 -0.259790
  2C   2px       -0.083018 -0.085006  0.116132 -0.185683 -0.416966 -0.147436
  2C   2py       -0.205997 -0.349832  0.163333  0.189112  0.073447 -0.448209
  2C   1dz2       0.011938  0.003043 -0.001906  0.006942 -0.004902 -0.006365
  2C   1dxz       0.002667  0.007102  0.003067 -0.006823 -0.007939  0.003227
  2C   1dyz       0.007993  0.010533 -0.008211 -0.001283  0.004898  0.005930
  2C   1dx2y2     0.004767 -0.011941  0.015164 -0.012885 -0.006915  0.003047
  2C   1dxy      -0.003897  0.018779  0.000158 -0.001408 -0.015922 -0.001815
  3C   1s         0.000001 -0.000031 -0.041826 -0.000430 -0.121346 -0.080401
  3C   2s        -0.000004  0.000086  0.110344  0.001158  0.323891  0.212573
  3C   3s        -0.000035  0.000505  0.602516  0.006549  1.896644  0.380168
  3C   1pz       -0.294794 -0.024005  0.064393 -0.041523  0.017088  0.020405
  3C   1px        0.064415  0.012563  0.239097  0.020466  0.062818  0.075798
  3C   1py        0.150472 -0.059805  0.023780 -0.091177  0.006558  0.007500
  3C   2pz       -0.393939 -0.026257  0.124450 -0.195503  0.038529  0.141517
  3C   2px        0.086091  0.014135  0.462116  0.095433  0.140360  0.525979
  3C   2py        0.200965 -0.068190  0.045969 -0.425346  0.015352  0.052073
  3C   1dz2      -0.006269 -0.002554  0.004587 -0.003966  0.005844  0.006157
  3C   1dxz      -0.012652 -0.004788 -0.009950 -0.007442  0.000261 -0.002311
  3C   1dyz       0.000490 -0.003610  0.007087 -0.005807 -0.010697 -0.007113
  3C   1dx2y2     0.002275  0.003728 -0.023065  0.005951  0.006516 -0.000101
  3C   1dxy       0.007079 -0.011149 -0.006812 -0.017857  0.004292  0.001849
  4C   1s        -0.002017 -0.033313  0.024393 -0.106387  0.057056 -0.085082
  4C   2s         0.004955  0.088633 -0.065156  0.283103 -0.150665  0.224758
  4C   3s         0.011961  0.484767 -0.354464  1.681960 -0.922297  0.477258
  4C   1pz       -0.292784 -0.098227  0.064334 -0.023565  0.013776 -0.030508
  4C   1px        0.061634 -0.034453  0.095253  0.022071  0.092967 -0.027133
  4C   1py        0.143103 -0.194003  0.091220 -0.066767 -0.007328 -0.058917
  4C   2pz       -0.390861 -0.186689  0.120442 -0.046719  0.031181 -0.245995
  4C   2px        0.081022 -0.091736  0.143169  0.156315  0.408624 -0.176369
  4C   2py        0.187440 -0.359000  0.188973 -0.189296 -0.097853 -0.420690
  4C   1dz2       0.011330 -0.003529  0.001772  0.007690 -0.004785  0.007207
  4C   1dxz       0.002931 -0.007030 -0.002919 -0.006518 -0.007748 -0.002082
  4C   1dyz       0.006960 -0.010449  0.009074 -0.001031  0.004293 -0.006023
  4C   1dx2y2     0.004878  0.011911 -0.016383 -0.013321 -0.006245 -0.002316
  4C   1dxy      -0.005073 -0.018481  0.000640 -0.000745 -0.015831  0.003567
  5C   1s         0.000764 -0.036157 -0.017635  0.103313  0.061396  0.081954
  5C   2s        -0.002186  0.095906  0.045798 -0.275346 -0.162565 -0.218605
  5C   3s        -0.000589  0.515112  0.274054 -1.623100 -0.968022 -0.406323
  5C   1pz        0.293054 -0.070286 -0.003856  0.033498 -0.031537  0.016852
  5C   1px       -0.062650  0.117571  0.115539  0.002800 -0.094659 -0.047788
  5C   1py       -0.154800 -0.173145 -0.058415  0.070260 -0.018393  0.055975
  5C   2pz        0.389224 -0.122135 -0.025409  0.122707 -0.160459  0.129408
  5C   2px       -0.085833  0.240754  0.180682  0.096754 -0.366230 -0.336637
  5C   2py       -0.206246 -0.317808 -0.133420  0.216408 -0.152697  0.400043
  5C   1dz2      -0.005726  0.005912  0.000345 -0.006729  0.000398 -0.006254
  5C   1dxz       0.009830  0.009578  0.007297  0.007209  0.001840  0.003403
  5C   1dyz      -0.008107  0.002863 -0.005231  0.001905  0.012259  0.006393
  5C   1dx2y2    -0.007294 -0.001696  0.012017  0.012302 -0.014644  0.002660
  5C   1dxy      -0.001751  0.022992  0.009194  0.003254  0.006758 -0.000204
  6H   1s         0.008282  0.125526  0.079153  0.069519  0.035491 -0.119557
  6H   2s         0.020501  0.910973  0.590971  0.967758  0.500392 -0.941782
  6H   1pz       -0.017643  0.003019  0.002378 -0.001461  0.008233 -0.003481
  6H   1px        0.003826 -0.009094 -0.004996 -0.013977  0.008203  0.008302
  6H   1py        0.009139  0.009660  0.006889  0.003350  0.012626 -0.010255
  7H   1s         0.000777  0.128232 -0.067745 -0.070919  0.044567  0.120122
  7H   2s         0.006248  0.927309 -0.495846 -0.928330  0.585001  0.934748
  7H   1pz        0.018109  0.006339 -0.003708 -0.005636  0.003061  0.006813
  7H   1px       -0.003797  0.004686 -0.001989 -0.012246 -0.012936  0.004595
  7H   1py       -0.009231  0.011456 -0.006089 -0.005270  0.011387  0.010764
  8H   1s         0.000010 -0.000080 -0.143412 -0.000309 -0.082251 -0.119593
  8H   2s         0.000030 -0.000703 -1.071291 -0.003825 -1.093346 -0.936151
  8H   1pz       -0.018106 -0.000155 -0.004112 -0.007581 -0.003254 -0.003527
  8H   1px        0.003945  0.000096 -0.015278  0.003605 -0.012201 -0.013104
  8H   1py        0.009375 -0.000649 -0.001517 -0.016230 -0.001154 -0.001301
  9H   1s        -0.008254 -0.125437  0.079343 -0.069313  0.035972 -0.119579
  9H   2s        -0.020410 -0.910082  0.592142 -0.964348  0.507124 -0.941604
  9H   1pz       -0.017637  0.006658 -0.004215  0.005509 -0.002465  0.006638
  9H   1px        0.003856  0.004435 -0.001796  0.012058  0.013286  0.003426
  9H   1py        0.009140  0.010993 -0.007577  0.005856 -0.010527  0.011421
 10H   1s        -0.000752 -0.128305 -0.067558  0.071207  0.044079  0.120091
 10H   2s        -0.006173 -0.928022 -0.494702  0.932401  0.578571  0.934759
 10H   1pz        0.018027  0.002594  0.001918  0.001414 -0.008532 -0.003083
 10H   1px       -0.004095 -0.009234 -0.004635  0.014101 -0.007451  0.009257
 10H   1py       -0.009262  0.010080  0.005417 -0.002739 -0.013381 -0.009387
 11H   1s         0.000011  0.000078  0.139058 -0.000283 -0.079932  0.118353
 11H   2s         0.000025  0.000703  1.083595 -0.003903 -1.147981  1.006486
 11H   1pz        0.018302 -0.001090 -0.004283  0.007910  0.003410 -0.003767
 11H   1px       -0.003970  0.000352 -0.015916 -0.003809  0.012784 -0.013994
 11H   1py       -0.009655 -0.000700 -0.001580  0.017396  0.001207 -0.001391
                     30        31        32        33        34        35   
                   0.14330   0.14511   0.14938   0.15341   0.25575   0.29383
                   0.00000   0.00000   0.00000   0.00000   0.00000   0.00000
                  --------  --------  --------  --------  --------  --------
  0C   1s         0.000273  0.075534 -0.000063 -0.064829  0.085923  0.000032
  0C   2s        -0.000796 -0.215769  0.000158  0.176221 -0.625228 -0.000237
  0C   3s        -0.006510 -1.805933  0.001845  2.173593  0.732441  0.000121
  0C   1pz       -0.127480 -0.085614  0.106346  0.023191 -0.027252  0.115016
  0C   1px        0.059157 -0.320090 -0.050000  0.086335 -0.101133 -0.055224
  0C   1py       -0.262295 -0.030689  0.218189  0.008466 -0.009997  0.244030
  0C   2pz       -0.683303 -0.346008  0.364568  0.091792 -0.015141 -0.242298
  0C   2px        0.319647 -1.296200 -0.173303  0.341879 -0.056606  0.115922
  0C   2py       -1.416223 -0.123134  0.769521  0.033441 -0.005562 -0.512358
  0C   1dz2       0.012347 -0.005779 -0.000514  0.003402  0.023285  0.009197
  0C   1dxz       0.023141 -0.000401 -0.000956  0.014500 -0.005294  0.017177
  0C   1dyz       0.017282  0.010934 -0.000864 -0.028328 -0.033716  0.013107
  0C   1dx2y2    -0.017944 -0.006499  0.000856  0.043690  0.008616 -0.013527
  0C   1dxy       0.052996 -0.004496 -0.002688  0.016874  0.010746  0.040525
  1C   1s        -0.086384 -0.043798 -0.002358 -0.025471  0.086101  0.001995
  1C   2s         0.238732  0.120451  0.013793  0.068603 -0.633305 -0.021324
  1C   3s         2.349415  1.184313 -0.242898  0.903337  0.731705  0.010614
  1C   1pz       -0.096887 -0.053927  0.047580  0.139479  0.019729 -0.126266
  1C   1px        0.101357  0.076468  0.219330  0.244602 -0.065227 -0.217733
  1C   1py       -0.236948 -0.139826 -0.002514  0.162286  0.070597 -0.150719
  1C   2pz       -0.319877 -0.384462  0.263742  0.676535  0.023986  0.146793
  1C   2px        0.493905  0.044324  1.038306  1.168131 -0.012064  0.258915
  1C   2py       -0.827506 -0.754766  0.059850  0.805860  0.055838  0.173998
  1C   1dz2       0.006844 -0.004151  0.006693  0.007458  0.024156  0.010099
  1C   1dxz      -0.022611 -0.003718  0.010336 -0.017914 -0.020824 -0.004166
  1C   1dyz      -0.008906 -0.023056  0.016631  0.011666 -0.028504  0.020329
  1C   1dx2y2    -0.016931  0.030317 -0.020405 -0.039358 -0.010223 -0.041078
  1C   1dxy      -0.027955 -0.017873  0.029030 -0.013110 -0.009312  0.012414
  2C   1s         0.026045 -0.036120  0.084312  0.034116  0.090718  0.002402
  2C   2s        -0.080255  0.099442 -0.232734 -0.091119 -0.651510 -0.013936
  2C   3s        -0.429434  0.936054 -2.490236 -1.161132  0.620560 -0.009372
  2C   1pz        0.104155 -0.072584  0.097826  0.026113  0.052804  0.006600
  2C   1px        0.192085  0.058056 -0.060740  0.303580  0.034605  0.255740
  2C   1py        0.124216 -0.163168  0.210212 -0.073790  0.089355 -0.095234
  2C   2pz        0.422030 -0.292574  0.381613  0.105230  0.054517 -0.002682
  2C   2px        0.956414  0.610599 -0.176545  1.363389  0.007981 -0.571356
  2C   2py        0.420462 -0.806912  0.803972 -0.361308  0.098662  0.232787
  2C   1dz2       0.001981  0.005534 -0.019458 -0.010067  0.029760 -0.000700
  2C   1dxz       0.016504  0.021381 -0.001756  0.011782 -0.009264 -0.024134
  2C   1dyz       0.001596 -0.008922 -0.007725 -0.010822 -0.020533  0.006613
  2C   1dx2y2     0.009038  0.021821  0.032190  0.035988 -0.018106 -0.027312
  2C   1dxy       0.028098  0.036201 -0.028968  0.001966  0.015760 -0.034525
  3C   1s         0.000294  0.089911 -0.000066  0.046083  0.084127 -0.000024
  3C   2s        -0.000876 -0.259536  0.000177 -0.121115 -0.634106  0.000194
  3C   3s        -0.006974 -2.282221  0.001648 -1.701917  0.857386 -0.000013
  3C   1pz       -0.058047  0.086866  0.147613  0.002638  0.024539  0.129286
  3C   1px        0.029011  0.321318 -0.070709  0.009998  0.091050 -0.061866
[...]
     13       0.026139   0.028435   0.024390  -0.041645   0.237242   0.225197
     14      -0.050402  -0.054847  -0.046943   0.080251   0.142534   0.131632
     15      -0.004847   0.015466   0.010035   0.017555   0.190028  -0.179996
     16      -0.011525   0.036865   0.023830   0.041902  -0.209416   0.195911
     17       0.022242  -0.071070  -0.045999  -0.080693  -0.067256   0.066050
     18      -0.032248   0.103465  -0.053609  -0.093429   0.186995   0.193110
     19      -0.076841   0.246347  -0.127684  -0.222579  -0.207147  -0.226711
     20       0.148171  -0.475041   0.246124   0.429343  -0.066686  -0.053154
     21       0.073437   0.079681  -0.054121   0.093029   0.087288  -0.089690
     22       0.174965   0.189811  -0.128858   0.221566   0.234445  -0.237055
     23      -0.337316  -0.365916   0.248520  -0.427308   0.140180  -0.164900
     24       0.105727  -0.023719   0.107569   0.000451  -0.275492  -0.293609
     25       0.251885  -0.056504   0.256287   0.001170  -0.027440  -0.037597
     26      -0.485600   0.108908  -0.494120  -0.002172  -0.073890  -0.060697
     27      -0.073338  -0.079708  -0.054410   0.092977   0.087264   0.088032
     28      -0.174689  -0.189949  -0.129579   0.221436   0.234594   0.237710
     29       0.336868   0.366250   0.249963  -0.427070   0.140228   0.165160
     30       0.032378  -0.103395  -0.053269  -0.093477   0.186965  -0.194262
     31       0.077153  -0.246331  -0.126956  -0.222703  -0.206997   0.225818
     32      -0.148712   0.474954   0.244693   0.429570  -0.066637   0.052056
     33      -0.105742   0.023717   0.107730   0.000496  -0.275373   0.294198
     34      -0.251881   0.056503   0.256658   0.001176  -0.027426   0.037605
     35       0.485647  -0.108921  -0.494856  -0.002163  -0.073857   0.060939
                 18         19         20         21         22         23    
      0      -0.014871  -0.067749  -0.085699   0.004156   0.012491  -0.001862
      1      -0.029127   0.053473  -0.043591  -0.018353  -0.048238  -0.015247
      2       0.054885   0.012988  -0.041263  -0.008612  -0.022303  -0.008310
      3       0.010270   0.085449  -0.035773   0.015152   0.033043  -0.025871
      4       0.030970  -0.005279   0.090253   0.010831   0.019143  -0.023454
      5      -0.055055   0.015894   0.039020   0.008922   0.017129  -0.017800
      6      -0.011286  -0.034306   0.071760  -0.019135   0.013757   0.051501
      7      -0.026641  -0.091898  -0.027335   0.007390  -0.000190  -0.021128
      8       0.057257  -0.055175   0.001438  -0.000337   0.002886   0.000259
      9       0.014925  -0.067883  -0.085937   0.004097  -0.012503   0.001811
     10       0.029289   0.053428  -0.043596  -0.018082   0.048346   0.015275
     11      -0.055167   0.012944  -0.041323  -0.008490   0.022359   0.008315
     12       0.011245  -0.034204   0.071865  -0.019288  -0.013719  -0.051468
     13       0.026552  -0.091808  -0.027121   0.007416   0.000145   0.021067
     14      -0.057128  -0.055080   0.001567  -0.000354  -0.002906  -0.000280
     15      -0.010280   0.085352  -0.035997   0.015020  -0.033057   0.025868
     16      -0.031050  -0.005149   0.090399   0.010776  -0.019222   0.023479
     17       0.055194   0.015923   0.039067   0.008862  -0.017175   0.017808
     18      -0.078484   0.387810   0.130204   0.299271   0.308833  -0.285101
     19      -0.179765   0.206279   0.219286   0.214894   0.217682  -0.209154
     20       0.351834   0.191320   0.142106   0.176600   0.180121  -0.170552
     21       0.077567  -0.035356   0.510570  -0.379611   0.123627   0.521850
     22       0.185058  -0.100491  -0.197074   0.146812  -0.043213  -0.202943
     23      -0.350279  -0.059673   0.009002  -0.006496   0.004536   0.008356
     24      -0.073657  -0.153900  -0.046403   0.081288  -0.111643  -0.028928
     25      -0.182283   0.413683  -0.254640  -0.360112   0.488349   0.149145
     26       0.352969   0.181018  -0.142199  -0.169080   0.228972   0.071063
     27      -0.077402  -0.035056   0.510887  -0.381008  -0.121743  -0.521073
     28      -0.184629  -0.100410  -0.196921   0.147319   0.042439   0.202583
     29       0.349504  -0.059652   0.009171  -0.006541  -0.004513  -0.008370
     30       0.078674   0.387612   0.129775   0.298157  -0.310379   0.284771
     31       0.180213   0.206344   0.219345   0.214136  -0.218879   0.208949
     32      -0.352586   0.191371   0.141978   0.175968  -0.181065   0.170379
     33       0.073275  -0.153831  -0.046088   0.081890   0.111168   0.028729
     34       0.181474   0.414041  -0.254816  -0.362774  -0.486190  -0.148493
     35      -0.351276   0.181254  -0.142243  -0.170336  -0.227944  -0.070764
                 24         25         26         27         28         29    
      0       0.012115   0.070124   0.045556  -0.090576   0.144890   0.077579
      1      -0.053660  -0.310484  -0.134736  -0.030648  -0.240498   0.196971
      2      -0.025191  -0.145795  -0.059965  -0.035614  -0.093198   0.119063
      3      -0.044283   0.256185  -0.122490   0.047600  -0.129937  -0.243235
      4      -0.031763   0.184199   0.005097   0.109049   0.089519  -0.195811
      5      -0.026117   0.151348  -0.024028   0.066927   0.018143  -0.154531
      6      -0.056328  -0.326203   0.081157   0.123927   0.281056   0.173427
      7       0.021814   0.126121   0.056032  -0.081855  -0.166220   0.065575
      8      -0.000952  -0.005604   0.046739  -0.015478  -0.025033   0.071788
      9      -0.012095   0.070061   0.045529  -0.090533  -0.145042  -0.077627
     10       0.053570  -0.310181  -0.134641  -0.030629   0.240813  -0.197220
     11       0.025153  -0.145673  -0.059930  -0.035596   0.093338  -0.119210
     12       0.056348  -0.326355   0.081051   0.124057  -0.280873  -0.173390
     13      -0.021774   0.126339   0.056126  -0.081832   0.166013  -0.065595
     14       0.000974  -0.005513   0.046761  -0.015440   0.024968  -0.071780
     15       0.044248   0.256143  -0.122507   0.047455   0.129943   0.243325
     16       0.031797   0.183963   0.004991   0.109012  -0.089562   0.196042
     17       0.026124   0.151205  -0.024082   0.066875  -0.018172   0.154665
     18       0.295672  -0.154274   0.181951  -0.354499  -0.079998   0.300644
     19       0.212405  -0.110551   0.244741  -0.162854   0.148259   0.192161
     20       0.174543  -0.090994   0.166557  -0.161655   0.059492   0.165150
     21       0.376526   0.195942  -0.144418  -0.477060  -0.359865  -0.097582
     22      -0.145612  -0.075851   0.163015   0.142952   0.074466   0.187012
     23       0.006452   0.003364   0.053103  -0.029713  -0.039724   0.075726
     24       0.080807  -0.042007  -0.087267  -0.133189  -0.036231  -0.181632
     25      -0.358039   0.186299   0.468861   0.060929  -0.291589   0.195816
     26      -0.168120   0.087558   0.224204   0.002603  -0.159154   0.062046
     27      -0.376545   0.196655  -0.144105  -0.477115   0.359648   0.097193
     28       0.145665  -0.075929   0.162946   0.143043  -0.074542  -0.186862
     29      -0.006422   0.003424   0.053140  -0.029664   0.039618  -0.075743
     30      -0.295679  -0.153655   0.182208  -0.354412   0.079773  -0.300973
     31      -0.212350  -0.110342   0.244832  -0.162725  -0.148479  -0.192197
     32      -0.174508  -0.090696   0.166651  -0.161557  -0.059652  -0.165219
     33      -0.080824  -0.042113  -0.087231  -0.133225   0.036245   0.181414
     34       0.358131   0.186890   0.468760   0.060911   0.291113  -0.195483
     35       0.168150   0.087731   0.224131   0.002581   0.158876  -0.061895
                 30         31         32         33         34         35    
      0       0.031592   0.002574   0.046989  -0.000614   0.049597  -0.036947
      1       0.003135  -0.001660   0.004752   0.003273   0.004916  -0.003668
      2       0.008505  -0.000300   0.012697   0.001564   0.013349  -0.009947
      3      -0.021873  -0.027717  -0.016632   0.030672   0.013912  -0.024662
      4       0.024142   0.031851   0.015848  -0.031363  -0.019589   0.027236
      5       0.007756   0.010481   0.004596  -0.009584  -0.007129   0.008753
      6      -0.010464  -0.011690   0.009660  -0.015375   0.005198   0.011453
      7      -0.027751  -0.034287   0.020493  -0.035598   0.022768   0.030319
      8      -0.016673  -0.020330   0.012734  -0.021812   0.012941   0.018220
      9       0.032889  -0.002580  -0.047037  -0.000611   0.049722   0.035541
     10       0.003264   0.001683  -0.004758   0.003261   0.004928   0.003528
     11       0.008855   0.000311  -0.012710   0.001559   0.013383   0.009568
     12      -0.010253   0.011567  -0.010011  -0.015463   0.004726  -0.011562
     13      -0.027321   0.033986  -0.021589  -0.035852   0.021601  -0.030848
     14      -0.016400   0.020143  -0.013376  -0.021959   0.012231  -0.018515
     15      -0.022268   0.027894   0.015794   0.030483   0.014880   0.024325
     16       0.024512  -0.032023  -0.014847  -0.031142  -0.020612  -0.026750
     17       0.007866  -0.010537  -0.004262  -0.009516  -0.007452  -0.008579
     18       0.264417   0.332586   0.180053  -0.328702  -0.178490   0.267280
     19      -0.291366  -0.367589  -0.196210   0.359342   0.201573  -0.294550
     20      -0.093511  -0.118195  -0.062540   0.114764   0.065661  -0.094541
     21       0.126196   0.148481  -0.094760   0.154210  -0.087350  -0.123623
     22       0.335124   0.397178  -0.247108   0.403514  -0.242363  -0.328206
     23       0.201306   0.238347  -0.148809   0.242875  -0.144730  -0.197154
     24      -0.397076   0.025581   0.550981  -0.000518  -0.554064  -0.384563
     25      -0.039420   0.000838   0.054779  -0.003892  -0.054996  -0.038177
     26      -0.106908   0.006003   0.148387  -0.002132  -0.149167  -0.103537
     27       0.124158  -0.147174   0.099454   0.155307  -0.082405   0.125602
     28       0.329844  -0.393755   0.259776   0.406461  -0.229320   0.333751
     29       0.198078  -0.236233   0.156366   0.244587  -0.136857   0.200417
     30       0.268733  -0.334433  -0.169774  -0.326433  -0.188989  -0.262956
     31      -0.296033   0.369559   0.184776   0.356793   0.213079   0.289623
     32      -0.095038   0.118871   0.058878   0.113990   0.069373   0.092972
     33      -0.381943  -0.025603  -0.551219  -0.000510  -0.553478   0.400329
     34      -0.037918  -0.000867  -0.054802  -0.003903  -0.054938   0.039742
     35      -0.102833  -0.006023  -0.148450  -0.002137  -0.149009   0.107782


-----------
IR SPECTRUM
-----------

 Mode    freq (cm**-1)   T**2         TX         TY         TZ
-------------------------------------------------------------------
   6:       397.68    0.000011  (  0.001637  -0.001917   0.002109)
   7:       397.72    0.000006  (  0.000218   0.002339  -0.000885)
   8:       599.97    0.000000  ( -0.000035   0.000006  -0.000107)
   9:       600.01    0.000000  (  0.000188   0.000020   0.000019)
  10:       667.05   80.165163  ( -1.697959  -4.042790   7.806276)
  11:       707.25    0.000007  (  0.000419   0.001612  -0.002152)
  12:       835.98    0.000014  (  0.000699   0.002200  -0.002867)
  13:       836.02    0.000001  (  0.000473  -0.000431   0.000811)
  14:       959.19    0.000015  ( -0.002248   0.002379   0.002079)
  15:       959.23    0.000007  ( -0.002390  -0.000915  -0.000531)
  16:       979.48    0.000006  ( -0.002370   0.000240  -0.000609)
  17:       992.41    0.000005  ( -0.002105  -0.000216  -0.000558)
  18:       992.89    0.000001  ( -0.000165   0.000286   0.000697)
  19:      1030.36    5.000259  (  0.697056   1.819841   1.096608)
  20:      1030.41    4.992485  (  2.081773  -0.810942   0.032880)
  21:      1135.45    0.000038  ( -0.005266  -0.003078  -0.000589)
  22:      1154.78    0.000000  ( -0.000243   0.000371   0.000257)
  23:      1154.84    0.000000  (  0.000420   0.000167   0.000215)
  24:      1318.71    0.000000  ( -0.000038   0.000186   0.000089)
  25:      1355.50    0.000003  (  0.001808  -0.000149   0.000055)
  26:      1460.43    5.975139  ( -0.121944   2.177386   1.104200)
  27:      1460.51    5.967096  ( -2.394922   0.100105  -0.470556)
  28:      1597.09    0.000001  ( -0.000220  -0.000542  -0.000503)
  29:      1597.12    0.000001  ( -0.000623   0.000323   0.000160)
  30:      3074.94    0.000188  ( -0.013443   0.001167  -0.002409)
  31:      3084.98    0.000474  (  0.002085  -0.019392  -0.009676)
  32:      3085.08    0.002733  ( -0.050454  -0.004071  -0.013081)
  33:      3099.68   33.733698  (  1.177090  -5.150663  -2.412226)
  34:      3099.78   33.747470  (  5.581727   0.565746   1.507223)
  35:      3109.35    0.005916  ( -0.073942  -0.007307  -0.019870)

The first frequency considered to be a vibration is 6
The total number of vibrations considered is 30


--------------------------
THERMOCHEMISTRY AT 298.15K
--------------------------

Temperature         ... 298.15 K
Pressure            ... 1.00 atm
Total Mass          ... 78.11 AMU

Throughout the following assumptions are being made:
  (1) The electronic state is orbitally nondegenerate
  (2) There are no thermally accessible electronically excited states
  (3) Hindered rotations indicated by low frequency modes are not
      treated as such but are treated as vibrations and this may
      cause some error
  (4) All equations used are the standard statistical mechanics
      equations for an ideal gas
  (5) All vibrations are strictly harmonic

freq.     397.68  E(vib)   ...       0.20 
freq.     397.72  E(vib)   ...       0.20 
freq.     599.97  E(vib)   ...       0.10 
freq.     600.01  E(vib)   ...       0.10 
freq.     667.05  E(vib)   ...       0.08 
freq.     707.25  E(vib)   ...       0.07 
freq.     835.98  E(vib)   ...       0.04 
freq.     836.02  E(vib)   ...       0.04 
freq.     959.19  E(vib)   ...       0.03 
freq.     959.23  E(vib)   ...       0.03 
freq.     979.48  E(vib)   ...       0.03 
freq.     992.41  E(vib)   ...       0.02 
freq.     992.89  E(vib)   ...       0.02 
freq.    1030.36  E(vib)   ...       0.02 
freq.    1030.41  E(vib)   ...       0.02 
freq.    1135.45  E(vib)   ...       0.01 
freq.    1154.78  E(vib)   ...       0.01 
freq.    1154.84  E(vib)   ...       0.01 
freq.    1318.71  E(vib)   ...       0.01 
freq.    1355.50  E(vib)   ...       0.01 
freq.    1460.43  E(vib)   ...       0.00 
freq.    1460.51  E(vib)   ...       0.00 
freq.    1597.09  E(vib)   ...       0.00 
freq.    1597.12  E(vib)   ...       0.00 
freq.    3074.94  E(vib)   ...       0.00 
freq.    3084.98  E(vib)   ...       0.00 
freq.    3085.08  E(vib)   ...       0.00 
freq.    3099.68  E(vib)   ...       0.00 
freq.    3099.78  E(vib)   ...       0.00 
freq.    3109.35  E(vib)   ...       0.00 

------------
INNER ENERGY
------------

The inner energy is: U= E(el) + E(ZPE) + E(vib) + E(rot) + E(trans)
    E(el)   - is the total energy from the electronic structure calculation
              = E(kin-el) + E(nuc-el) + E(el-el) + E(nuc-nuc)
    E(ZPE)  - the the zero temperature vibrational energy from the frequency calculation
    E(vib)  - the the finite temperature correction to E(ZPE) due to population
              of excited vibrational states
    E(rot)  - is the rotational thermal energy
    E(trans)- is the translational thermal energy

Summary of contributions to the inner energy U:
Electronic energy                ...   -232.02314787 Eh
Zero point energy                ...      0.09744605 Eh      61.15 kcal/mol
Thermal vibrational correction   ...      0.00168358 Eh       1.06 kcal/mol
Thermal rotational correction    ...      0.00141627 Eh       0.89 kcal/mol
Thermal translational correction ...      0.00141627 Eh       0.89 kcal/mol
-----------------------------------------------------------------------
Total thermal energy                   -231.92118569 Eh


Summary of corrections to the electronic energy:
(perhaps to be used in another calculation)
Total thermal correction                  0.00451613 Eh       2.83 kcal/mol
Non-thermal (ZPE) correction              0.09744605 Eh      61.15 kcal/mol
-----------------------------------------------------------------------
Total correction                          0.10196218 Eh      63.98 kcal/mol


--------
ENTHALPY
--------

The enthalpy is H = U + kB*T
                kB is Boltzmann's constant
Total free energy                 ...   -231.92118569 Eh 
Thermal Enthalpy correction       ...      0.00094421 Eh       0.59 kcal/mol
-----------------------------------------------------------------------
Total Enthalpy                    ...   -231.92024148 Eh


Note: Only C1 symmetry has been detected, increase convergence thresholds 
      if your molecule has a higher symmetry. Symmetry factor of 1.0 is   
      used for the rotational entropy correction. 
 

Note: Rotational entropy computed according to Herzberg 
Infrared and Raman Spectra, Chapter V,1, Van Nostrand Reinhold, 1945 
Point Group:  C1, Symmetry Number:   1  
Rotational constants in cm-1:     0.185682     0.185677     0.092840 

Vibrational entropy computed according to the QRRHO of S. Grimme
Chem.Eur.J. 2012 18 9955


-------
ENTROPY
-------

The entropy contributions are T*S = T*(S(el)+S(vib)+S(rot)+S(trans))
     S(el)   - electronic entropy
     S(vib)  - vibrational entropy
     S(rot)  - rotational entropy
     S(trans)- translational entropy
The entropies will be listed as mutliplied by the temperature to get
units of energy

Electronic entropy                ...      0.00000000 Eh      0.00 kcal/mol
Vibrational entropy               ...      0.00226991 Eh      1.42 kcal/mol
Rotational entropy                ...      0.01222266 Eh      7.67 kcal/mol
Translational entropy             ...      0.01852142 Eh     11.62 kcal/mol
-----------------------------------------------------------------------
Final entropy term                ...      0.03301399 Eh     20.72 kcal/mol

In case the symmetry of your molecule has not been determined correctly
or in case you have a reason to use a different symmetry number we print 
out the resulting rotational entropy values for sn=1,12 :
 --------------------------------------------------------
|  sn= 1 | S(rot)=       0.01222266 Eh      7.67 kcal/mol|
|  sn= 2 | S(rot)=       0.01156821 Eh      7.26 kcal/mol|
|  sn= 3 | S(rot)=       0.01118537 Eh      7.02 kcal/mol|
|  sn= 4 | S(rot)=       0.01091375 Eh      6.85 kcal/mol|
|  sn= 5 | S(rot)=       0.01070306 Eh      6.72 kcal/mol|
|  sn= 6 | S(rot)=       0.01053092 Eh      6.61 kcal/mol|
|  sn= 7 | S(rot)=       0.01038537 Eh      6.52 kcal/mol|
|  sn= 8 | S(rot)=       0.01025929 Eh      6.44 kcal/mol|
|  sn= 9 | S(rot)=       0.01014808 Eh      6.37 kcal/mol|
|  sn=10 | S(rot)=       0.01004861 Eh      6.31 kcal/mol|
|  sn=11 | S(rot)=       0.00995862 Eh      6.25 kcal/mol|
|  sn=12 | S(rot)=       0.00987646 Eh      6.20 kcal/mol|
 --------------------------------------------------------


-------------------
GIBBS FREE ENERGY
-------------------

The Gibbs free energy is G = H - T*S

Total enthalpy                    ...   -231.92024148 Eh 
Total entropy correction          ...     -0.03301399 Eh    -20.72 kcal/mol
-----------------------------------------------------------------------
Final Gibbs free energy         ...   -231.95325547 Eh

For completeness - the Gibbs free energy minus the electronic energy
G-E(el)                           ...      0.06989240 Eh     43.86 kcal/mol


Timings for individual modules:

Sum of individual times         ...      114.493 sec (=   1.908 min)
GTO integral calculation        ...        5.578 sec (=   0.093 min)   4.9 %
SCF iterations                  ...       49.320 sec (=   0.822 min)  43.1 %
SCF Gradient evaluation         ...       14.065 sec (=   0.234 min)  12.3 %
Geometry relaxation             ...        0.265 sec (=   0.004 min)   0.2 %
Analytical frequency calculation...       45.266 sec (=   0.754 min)  39.5 %
                             ****ORCA TERMINATED NORMALLY****
TOTAL RUN TIME: 0 days 0 hours 1 minutes 55 seconds 576 msec
