
                                 *****************
                                 * O   R   C   A *
                                 *****************

           --- An Ab Initio, DFT and Semiempirical electronic structure package ---

                  #######################################################
                  #                        -***-                        #
                  #          Department of theory and spectroscopy      #
                  #               Directorship: Frank Neese             #
                  #        Max Planck Institute fuer Kohlenforschung    #
                  #                Kaiser Wilhelm Platz 1               #
                  #                 D-45470 Muelheim/Ruhr               #
                  #                      Germany                        #
                  #                                                     #
                  #                  All rights reserved                #
                  #                        -***-                        #
                  #######################################################


                         Program Version 4.2.1 -  RELEASE  -


 With contributions from (in alphabetic order):
   Daniel Aravena         : Magnetic Suceptibility
   Michael Atanasov       : Ab Initio Ligand Field Theory (pilot matlab implementation)
   Alexander A. Auer      : GIAO ZORA, VPT2
   Ute Becker             : Parallelization
   Giovanni Bistoni       : ED, misc. LED, open-shell LED, HFLD
   Martin Brehm           : Molecular dynamics
   Dmytro Bykov           : SCF Hessian
   Vijay G. Chilkuri      : MRCI spin determinant printing, contributions to CSF-ICE
   Dipayan Datta          : RHF DLPNO-CCSD density
   Achintya Kumar Dutta   : EOM-CC, STEOM-CC
   Dmitry Ganyushin       : Spin-Orbit,Spin-Spin,Magnetic field MRCI
   Miquel Garcia          : C-PCM Hessian, Gaussian charge scheme
   Yang Guo               : DLPNO-NEVPT2, CIM, IAO-localization
   Andreas Hansen         : Spin unrestricted coupled pair/coupled cluster methods
   Benjamin Helmich-Paris : CASSCF linear response (MC-RPA)
   Lee Huntington         : MR-EOM, pCC
   Robert Izsak           : Overlap fitted RIJCOSX, COSX-SCS-MP3, EOM
   Christian Kollmar      : KDIIS, OOCD, Brueckner-CCSD(T), CCSD density
   Simone Kossmann        : Meta GGA functionals, TD-DFT gradient, OOMP2, MP2 Hessian
   Martin Krupicka        : AUTO-CI
   Lucas Lang             : DCDCAS
   Dagmar Lenk            : GEPOL surface, SMD
   Dimitrios Liakos       : Extrapolation schemes; Compound Job, initial MDCI parallelization
   Dimitrios Manganas     : Further ROCIS development; embedding schemes
   Dimitrios Pantazis     : SARC Basis sets
   Taras Petrenko         : DFT Hessian,TD-DFT gradient, ASA, ECA, R-Raman, ABS, FL, XAS/XES, NRVS
   Peter Pinski           : DLPNO-MP2, DLPNO-MP2 Gradient
   Christoph Reimann      : Effective Core Potentials
   Marius Retegan         : Local ZFS, SOC
   Christoph Riplinger    : Optimizer, TS searches, QM/MM, DLPNO-CCSD(T), (RO)-DLPNO pert. Triples
   Tobias Risthaus        : Range-separated hybrids, TD-DFT gradient, RPA, STAB
   Michael Roemelt        : Original ROCIS implementation
   Masaaki Saitow         : Open-shell DLPNO-CCSD energy and density
   Barbara Sandhoefer     : DKH picture change effects
   Avijit Sen             : IP-ROCIS
   Kantharuban Sivalingam : CASSCF convergence, NEVPT2, FIC-MRCI
   Bernardo de Souza      : ESD, SOC TD-DFT
   Georgi Stoychev        : AutoAux, RI-MP2 NMR
   Willem Van den Heuvel  : Paramagnetic NMR
   Boris Wezisla          : Elementary symmetry handling
   Frank Wennmohs         : Technical directorship


 We gratefully acknowledge several colleagues who have allowed us to
 interface, adapt or use parts of their codes:
   Stefan Grimme, W. Hujo, H. Kruse,             : VdW corrections, initial TS optimization,
                  C. Bannwarth                     DFT functionals, gCP, sTDA/sTD-DF
   Ed Valeev, F. Pavosevic, A. Kumar             : LibInt (2-el integral package), F12 methods
   Garnet Chan, S. Sharma, J. Yang, R. Olivares  : DMRG
   Ulf Ekstrom                                   : XCFun DFT Library
   Mihaly Kallay                                 : mrcc  (arbitrary order and MRCC methods)
   Andreas Klamt, Michael Diedenhofen            : otool_cosmo (COSMO solvation model)
   Jiri Pittner, Ondrej Demel                    : Mk-CCSD
   Frank Weinhold                                : gennbo (NPA and NBO analysis)
   Christopher J. Cramer and Donald G. Truhlar   : smd solvation model
   Lars Goerigk                                  : TD-DFT with DH, B97 family of functionals
   V. Asgeirsson, H. Jonsson                     : NEB implementation
   FAccTs GmbH                                   : IRC, NEB, NEB-TS, Multilevel, MM, QM/MM, CI optimization
   S Lehtola, MJT Oliveira, MAL Marques          : LibXC Library


 Your calculation uses the libint2 library for the computation of 2-el integrals
 For citations please refer to: http://libint.valeyev.net

 Your ORCA version has been built with support for libXC version: 4.2.3
 For citations please refer to: https://tddft.org/programs/libxc/

 This ORCA versions uses:
   CBLAS   interface :  Fast vector & matrix operations
   LAPACKE interface :  Fast linear algebra routines
   SCALAPACK package :  Parallel linear algebra routines


Your calculation utilizes the atom-pairwise dispersion correction
with the Becke-Johnson damping scheme (D3BJ)
Cite in your paper:
S.Grimme, S.Ehrlich, L.Goerigk, J Comput Chem, (2011), 32, 1456–1465 
S.Grimme, J.Antony, S.Ehrlich and H.Krieg, J.Chem.Phys., 132, (2010), 154104 
   

Your calculation employs the composite approach B97-3c by Grimme and coworkers.
For the correct reference, please check the publication list of the Grimme group:
http://www.thch.uni-bonn.de/tc/index.php?section=publikationen&subsection=grimme#2017
   

XCFun DFT library Copyright 2009-2010 Ulf Ekstrom and contributors.
See http://admol.org/xcfun for more information. This is free soft-
ware; see the source code for copying conditions. There is ABSOLUTELY
NO WARRANTY; not even for MERCHANTABILITY or FITNESS FOR A PARTICULAR
PURPOSE. For details see the documentation. Scientific users of this 
library should cite U. Ekstrom, L. Visscher, R. Bast, A. J. Thorvald-
sen and K. Ruud; J.Chem.Theor.Comp. 2010, DOI: 10.1021/ct100117s
XCFun Version 0.99 
----- Orbital basis set information -----
Your calculation utilizes the basis: def2-mTZVP
----- AuxJ basis set information -----
Your calculation utilizes the basis: def2-mTZVP/J
================================================================================
                                        WARNINGS
                       Please study these warnings very carefully!
================================================================================


WARNING: Geometry Optimization
  ===> : Switching off AutoStart
         For restart on a previous wavefunction, please use MOREAD

INFO   : the flag for use of LIBINT has been found!

================================================================================
                                       INPUT FILE
================================================================================
NAME = benzenetricarbonylchromium.inp
|  1> ! B97-3c Opt Freq TightOpt TightSCF
|  2> 
|  3> %pal
|  4>  nprocs 4
|  5> end
|  6> 
|  7> *xyz 0 1
|  8> C       -5.9008519029      2.6487978132     -0.0000000000                 
|  9> C       -4.5574825339      3.0395410442      0.0000000000                 
| 10> C       -6.2341430064      1.2900342385      0.0000000000                 
| 11> C       -5.2240647561      0.3220139813      0.0000000000                 
| 12> C       -3.8806954661      0.7127572405      0.0000000000                 
| 13> C       -3.5474043441      2.0715207215      0.0000000000                 
| 14> H       -6.6822767882      3.3976856295     -0.0000000000                 
| 15> H       -4.2996391112      4.0907187466     -0.0000000000                 
| 16> H       -5.4819079679     -0.7291637527      0.0000000000                 
| 17> H       -3.0992705740     -0.0361305061      0.0000000000                 
| 18> H       -2.5081359589      2.3738105646      0.0000000000                 
| 19> Cr      -4.8876344763      1.6682116369     -1.6745137387                 
| 20> H       -7.3342730975      0.9130881884      0.0238962443                 
| 21> C       -6.5281786991      1.0192959214     -2.7894922271                 
| 22> C       -3.4618455072      0.5643018427     -2.7548737262                 
| 23> C       -4.3416451647      3.2636815228     -2.9094338333                 
| 24> O       -7.4378720748      0.6582142950     -3.3559676168                 
| 25> O       -4.0478670319      4.1231328393     -3.5801867681                 
| 26> O       -2.6649648269     -0.0465462816     -3.2705267826                 
| 27> *
| 28> 
| 29>                          ****END OF INPUT****
================================================================================

                       *****************************
                       * Geometry Optimization Run *
                       *****************************

Geometry optimization settings:
Update method            Update   .... BFGS
Choice of coordinates    CoordSys .... Z-matrix Internals
Initial Hessian          InHess   .... Almoef's Model

Convergence Tolerances:
Energy Change            TolE     ....  1.0000e-06 Eh
Max. Gradient            TolMAXG  ....  1.0000e-04 Eh/bohr
RMS Gradient             TolRMSG  ....  3.0000e-05 Eh/bohr
Max. Displacement        TolMAXD  ....  1.0000e-03 bohr
RMS Displacement         TolRMSD  ....  6.0000e-04 bohr
Strict Convergence                ....  False
------------------------------------------------------------------------------
                        ORCA OPTIMIZATION COORDINATE SETUP
------------------------------------------------------------------------------

The optimization will be done in new redundant internal coordinates
Making redundant internal coordinates   ...  (new redundants) done
Evaluating the initial hessian          ...  (Almloef) done
Evaluating the coordinates              ...  done
Calculating the B-matrix                .... done
Calculating the G-matrix                .... done
Diagonalizing the G-matrix              .... done
The first mode is                       ....  231
The number of degrees of freedom        ....   51

    -----------------------------------------------------------------
                    Redundant Internal Coordinates


    -----------------------------------------------------------------
         Definition                    Initial Value    Approx d2E/dq
    -----------------------------------------------------------------
      1. B(C   1,C   0)                  1.3990         0.604381   
      2. B(C   2,C   0)                  1.3990         0.604381   
      3. B(C   3,C   2)                  1.3990         0.604381   
      4. B(C   4,C   3)                  1.3990         0.604381   
      5. B(C   5,C   4)                  1.3990         0.604381   
      6. B(C   5,C   1)                  1.3990         0.604381   
      7. B(H   6,C   0)                  1.0823         0.370378   
      8. B(H   7,C   1)                  1.0823         0.370378   
      9. B(H   8,C   3)                  1.0823         0.370378   
     10. B(H   9,C   4)                  1.0823         0.370378   
     11. B(H  10,C   5)                  1.0823         0.370378   
     12. B(Cr 11,C   2)                  2.1818         0.344868   
     13. B(Cr 11,C   1)                  2.1894         0.335310   
     14. B(Cr 11,C   3)                  2.1747         0.353903   
     15. B(Cr 11,C   0)                  2.1891         0.335700   
     16. B(Cr 11,C   5)                  2.1824         0.344064   
     17. B(Cr 11,C   4)                  2.1750         0.353489   
     18. B(H  12,C   2)                  1.1632         0.275231   
     19. B(C  13,Cr 11)                  2.0870         0.488441   
     20. B(C  14,Cr 11)                  2.1021         0.462181   
     21. B(C  15,Cr 11)                  2.0901         0.482887   
     22. B(O  16,C  13)                  1.1308         1.449895   
     23. B(O  17,C  15)                  1.1291         1.459222   
     24. B(O  18,C  14)                  1.1287         1.461169   
     25. A(H   6,C   0,Cr 11)          130.0984         0.355974   
     26. A(C   1,C   0,Cr 11)           71.3781         0.433860   
     27. A(C   1,C   0,H   6)          120.0000         0.353066   
     28. A(C   1,C   0,C   2)          120.0000         0.430104   
     29. A(C   2,C   0,Cr 11)           71.0477         0.433860   
     30. A(C   2,C   0,H   6)          120.0000         0.353066   
     31. A(C   0,C   1,Cr 11)           71.3535         0.433770   
     32. A(H   7,C   1,Cr 11)          130.1084         0.355904   
     33. A(C   5,C   1,H   7)          120.0000         0.353066   
     34. A(C   0,C   1,H   7)          120.0000         0.353066   
     35. A(C   0,C   1,C   5)          120.0000         0.430104   
     36. A(C   5,C   1,Cr 11)           71.0642         0.433770   
     37. A(C   3,C   2,H  12)          117.2984         0.335903   
     38. A(C   0,C   2,Cr 11)           71.6168         0.435970   
     39. A(C   3,C   2,Cr 11)           70.9953         0.435970   
     40. A(C   0,C   2,H  12)          122.6876         0.335903   
     41. A(Cr 11,C   2,H  12)          130.9698         0.340149   
     42. A(C   0,C   2,C   3)          120.0000         0.430104   
     43. A(C   2,C   3,C   4)          120.0000         0.430104   
     44. A(C   4,C   3,H   8)          120.0000         0.353066   
     45. A(C   2,C   3,Cr 11)           71.5414         0.438007   
     46. A(C   2,C   3,H   8)          120.0000         0.353066   
     47. A(H   8,C   3,Cr 11)          129.6467         0.359184   
     48. A(C   4,C   3,Cr 11)           71.2505         0.438007   
     49. A(C   5,C   4,H   9)          120.0000         0.353066   
     50. A(C   3,C   4,H   9)          120.0000         0.353066   
     51. A(C   3,C   4,C   5)          120.0000         0.430104   
     52. A(H   9,C   4,Cr 11)          129.6567         0.359113   
     53. A(C   3,C   4,Cr 11)           71.2257         0.437914   
     54. A(C   5,C   4,Cr 11)           71.5579         0.437914   
     55. A(C   1,C   5,C   4)          120.0000         0.430104   
     56. A(H  10,C   5,Cr 11)          129.8876         0.357466   
     57. A(C   4,C   5,Cr 11)           70.9873         0.435787   
     58. A(C   1,C   5,Cr 11)           71.6086         0.435787   
     59. A(C   1,C   5,H  10)          120.0000         0.353066   
     60. A(C   4,C   5,H  10)          120.0000         0.353066   
     61. A(C   0,Cr 11,C   3)           67.4613         0.441851   
     62. A(C   3,Cr 11,C  14)          100.1128         0.468333   
     63. A(C   2,Cr 11,C  14)          136.2234         0.466119   
     64. A(C   0,Cr 11,C  14)          160.4444         0.463826   
     65. A(C   5,Cr 11,C  13)          161.8248         0.470663   
     66. A(C   4,Cr 11,C  13)          129.6896         0.473005   
     67. A(C   1,Cr 11,C   2)           67.3332         0.439699   
     68. A(C   1,Cr 11,C  13)          136.2104         0.468444   
     69. A(C   0,Cr 11,C  13)          100.6092         0.468544   
     70. A(C   0,Cr 11,C   2)           37.3355         0.439791   
     71. A(C   4,Cr 11,C   5)           37.4548         0.443727   
     72. A(C   3,Cr 11,C   5)           67.5796         0.443821   
     73. A(C   2,Cr 11,C   5)           79.7553         0.441750   
     74. A(C   0,Cr 11,C   1)           37.2684         0.437567   
     75. A(C   1,Cr 11,C   5)           37.3271         0.439514   
     76. A(C   0,Cr 11,C   5)           67.3277         0.439606   
     77. A(C   2,Cr 11,C  13)           82.5885         0.470865   
     78. A(C   3,Cr 11,C  13)           95.5829         0.473107   
     79. A(C   3,Cr 11,C   4)           37.5238         0.445998   
     80. A(C   2,Cr 11,C   4)           67.5852         0.443915   
     81. A(C   1,Cr 11,C   4)           67.4501         0.441664   
     82. A(C   1,Cr 11,C  14)          128.2964         0.463727   
     83. A(C   0,Cr 11,C   4)           79.7551         0.441757   
     84. A(C  14,Cr 11,C  15)           85.4130         0.495974   
     85. A(C   4,Cr 11,C  14)           81.4297         0.468232   
     86. A(C   5,Cr 11,C  14)           94.2930         0.465919   
     87. A(C   5,Cr 11,C  15)           98.7342         0.469677   
     88. A(C   4,Cr 11,C  15)          132.0094         0.472013   
     89. A(C   3,Cr 11,C  15)          165.4354         0.472114   
     90. A(C   2,Cr 11,C  15)          138.3309         0.469878   
     91. A(C   1,Cr 11,C  15)           86.2376         0.467463   
     92. A(C   2,Cr 11,C   3)           37.4633         0.444009   
     93. A(C   0,Cr 11,C  15)          103.3516         0.467563   
     94. A(C  13,Cr 11,C  15)           97.2982         0.501097   
     95. A(C  13,Cr 11,C  14)           95.4694         0.497029   
     96. A(C   1,Cr 11,C   3)           79.7551         0.441758   
     97. L(Cr 11,C  13,O  16,C   2, 2) 180.2613         0.542869   
     98. L(Cr 11,C  13,O  16,C   2, 1) 177.7774         0.542869   
     99. L(Cr 11,C  14,O  18,C   4, 2) 180.6015         0.538014   
    100. L(Cr 11,C  14,O  18,C   4, 1) 176.2784         0.538014   
    101. L(Cr 11,C  15,O  17,C   1, 2) 180.0403         0.542353   
    102. L(Cr 11,C  15,O  17,C   1, 1) 180.2280         0.542353   
    103. D(C   5,C   1,C   0,H   6)    180.0000         0.029425   
    104. D(H   7,C   1,C   0,H   6)      0.0000         0.029425   
    105. D(C   5,C   1,C   0,Cr 11)    -53.8225         0.029425   
    106. D(C   5,C   1,C   0,C   2)      0.0000         0.029425   
    107. D(Cr 11,C   1,C   0,C   2)     53.8225         0.029425   
    108. D(Cr 11,C   1,C   0,H   6)   -126.1775         0.029425   
    109. D(H   7,C   1,C   0,C   2)    180.0000         0.029425   
    110. D(H   7,C   1,C   0,Cr 11)    126.1775         0.029425   
    111. D(H  12,C   2,C   0,Cr 11)   -127.4221         0.029425   
    112. D(H  12,C   2,C   0,C   1)    178.6013         0.029425   
    113. D(H  12,C   2,C   0,H   6)     -1.3987         0.029425   
    114. D(C   3,C   2,C   0,Cr 11)     53.9766         0.029425   
    115. D(C   3,C   2,C   0,C   1)      0.0000         0.029425   
    116. D(Cr 11,C   2,C   0,H   6)    126.0234         0.029425   
    117. D(Cr 11,C   2,C   0,C   1)    -53.9766         0.029425   
    118. D(C   3,C   2,C   0,H   6)    180.0000         0.029425   
    119. D(C   4,C   3,C   2,C   0)      0.0000         0.029425   
    120. D(C   4,C   3,C   2,Cr 11)     54.2674         0.029425   
    121. D(H   8,C   3,C   2,H  12)      1.3247         0.029425   
    122. D(H   8,C   3,C   2,Cr 11)   -125.7326         0.029425   
    123. D(H   8,C   3,C   2,C   0)    180.0000         0.029425   
    124. D(C   4,C   3,C   2,H  12)   -178.6753         0.029425   
    125. D(Cr 11,C   3,C   2,C   0)    -54.2674         0.029425   
    126. D(Cr 11,C   3,C   2,H  12)    127.0574         0.029425   
    127. D(H   9,C   4,C   3,C   2)    180.0000         0.029425   
    128. D(C   5,C   4,C   3,Cr 11)     54.4038         0.029425   
    129. D(C   5,C   4,C   3,C   2)      0.0000         0.029425   
    130. D(Cr 11,C   4,C   3,C   2)    -54.4038         0.029425   
    131. D(H   9,C   4,C   3,Cr 11)   -125.5962         0.029425   
    132. D(H   9,C   4,C   3,H   8)      0.0000         0.029425   
    133. D(Cr 11,C   4,C   3,H   8)    125.5962         0.029425   
    134. D(C   5,C   4,C   3,H   8)    180.0000         0.029425   
    135. D(Cr 11,C   5,C   1,C   0)     53.9574         0.029425   
    136. D(C   4,C   5,C   1,Cr 11)    -53.9574         0.029425   
    137. D(Cr 11,C   5,C   4,H   9)    125.7520         0.029425   
    138. D(H  10,C   5,C   4,Cr 11)   -125.7520         0.029425   
    139. D(Cr 11,C   5,C   1,H   7)   -126.0426         0.029425   
    140. D(H  10,C   5,C   4,C   3)    180.0000         0.029425   
    141. D(C   1,C   5,C   4,Cr 11)     54.2480         0.029425   
    142. D(H  10,C   5,C   1,C   0)    180.0000         0.029425   
    143. D(H  10,C   5,C   1,H   7)      0.0000         0.029425   
    144. D(Cr 11,C   5,C   4,C   3)    -54.2480         0.029425   
    145. D(C   4,C   5,C   1,H   7)    180.0000         0.029425   
    146. D(H  10,C   5,C   1,Cr 11)    126.0426         0.029425   
    147. D(C   1,C   5,C   4,H   9)    180.0000         0.029425   
    148. D(C   4,C   5,C   1,C   0)      0.0000         0.029425   
    149. D(C   1,C   5,C   4,C   3)      0.0000         0.029425   
    150. D(H  10,C   5,C   4,H   9)      0.0000         0.029425   
    151. D(C  13,Cr 11,C   0,C   1)   -165.1698         0.002158   
    152. D(C   1,Cr 11,C   3,H   8)   -180.0000         0.002230   
    153. D(C   5,Cr 11,C   0,C   2)   -103.2880         0.002158   
    154. D(C   4,Cr 11,C   0,H   6)    180.0000         0.002158   
    155. D(C   4,Cr 11,C   0,C   2)    -66.2991         0.002158   
    156. D(C  15,Cr 11,C   2,C   3)   -158.0013         0.002194   
    157. D(C  15,Cr 11,C   2,C   0)    -25.8010         0.002194   
    158. D(C   4,Cr 11,C   0,C   1)     66.0446         0.002158   
    159. D(C   0,Cr 11,C   3,C   4)   -102.9577         0.002230   
    160. D(C   5,Cr 11,C   0,C   1)     29.0557         0.002158   
    161. D(C   2,Cr 11,C   3,C   4)   -132.0643         0.002230   
    162. D(C   5,Cr 11,C   0,H   6)    143.0111         0.002158   
    163. D(C   4,Cr 11,C   3,H   8)   -113.8577         0.002230   
    164. D(C  13,Cr 11,C   0,C   2)     62.4865         0.002158   
    165. D(C   3,Cr 11,C   0,H   6)   -142.9007         0.002158   
    166. D(C  13,Cr 11,C   2,H  12)     -0.7486         0.002194   
    167. D(C   3,Cr 11,C   0,C   2)    -29.1998         0.002158   
    168. D(C   3,Cr 11,C   0,C   1)    103.1439         0.002158   
    169. D(C   5,Cr 11,C   2,H  12)   -176.4180         0.002194   
    170. D(C   5,Cr 11,C   2,C   3)    -66.3374         0.002194   
    171. D(C   2,Cr 11,C   0,H   6)   -113.7009         0.002158   
    172. D(C   2,Cr 11,C   0,C   1)    132.3437         0.002158   
    173. D(C   4,Cr 11,C   2,C   0)    102.9161         0.002194   
    174. D(C   1,Cr 11,C   0,H   6)    113.9554         0.002158   
    175. D(C   3,Cr 11,C   2,H  12)   -110.0806         0.002194   
    176. D(C   3,Cr 11,C   2,C   0)    132.2003         0.002194   
    177. D(C   1,Cr 11,C   0,C   2)   -132.3437         0.002158   
    178. D(C   1,Cr 11,C   2,H  12)    146.7339         0.002194   
    179. D(C   1,Cr 11,C   2,C   3)   -103.1855         0.002194   
    180. D(C   0,Cr 11,C   2,H  12)    117.7191         0.002194   
    181. D(C   0,Cr 11,C   2,C   3)   -132.2003         0.002194   
    182. D(C  15,Cr 11,C   1,H   7)      4.0066         0.002157   
    183. D(C  15,Cr 11,C   1,C   0)    117.9431         0.002157   
    184. D(C  14,Cr 11,C   5,H  10)     43.7604         0.002191   
    185. D(C  14,Cr 11,C   5,C   4)    -69.8959         0.002191   
    186. D(C  14,Cr 11,C   1,C   5)    -28.5685         0.002157   
    187. D(C  14,Cr 11,C   1,C   0)   -160.9185         0.002157   
    188. D(C  13,Cr 11,C   5,C   1)    -79.7591         0.002191   
    189. D(C  13,Cr 11,C   1,H   7)    -92.6182         0.002157   
    190. D(C  14,Cr 11,C   1,H   7)     85.1450         0.002157   
    191. D(C  15,Cr 11,C   5,H  10)    -42.2482         0.002191   
    192. D(C  15,Cr 11,C   1,C   5)   -109.7069         0.002157   
    193. D(C  13,Cr 11,C   1,C   5)    153.6683         0.002157   
    194. D(C   3,Cr 11,C   5,H  10)    142.9386         0.002191   
    195. D(C   3,Cr 11,C   5,C   4)     29.2824         0.002191   
    196. D(C   1,Cr 11,C   2,C   0)     29.0148         0.002194   
    197. D(C  13,Cr 11,C   1,C   0)     21.3183         0.002157   
    198. D(C   5,Cr 11,C   1,H   7)    113.7135         0.002157   
    199. D(C   2,Cr 11,C   5,C   1)    -65.8689         0.002191   
    200. D(C   5,Cr 11,C   1,C   0)   -132.3500         0.002157   
    201. D(C   1,Cr 11,C   5,C   4)    132.2126         0.002191   
    202. D(C   4,Cr 11,C   2,C   3)    -29.2841         0.002194   
    203. D(C   4,Cr 11,C   2,H  12)   -139.3648         0.002194   
    204. D(C   5,Cr 11,C   2,C   0)     65.8629         0.002194   
    205. D(C   4,Cr 11,C   1,H   7)    142.9035         0.002157   
    206. D(C   0,Cr 11,C   5,H  10)   -143.1440         0.002191   
    207. D(C  13,Cr 11,C   2,C   0)   -118.4677         0.002194   
    208. D(C  13,Cr 11,C   2,C   3)    109.3320         0.002194   
    209. D(C   0,Cr 11,C   5,C   4)    103.1998         0.002191   
    210. D(C  14,Cr 11,C   2,C   0)    151.3507         0.002194   
    211. D(C  14,Cr 11,C   2,C   3)     19.1504         0.002194   
    212. D(C  14,Cr 11,C   2,H  12)    -90.9302         0.002194   
    213. D(C   4,Cr 11,C   1,C   5)     29.1899         0.002157   
    214. D(C   4,Cr 11,C   1,C   0)   -103.1601         0.002157   
    215. D(C  15,Cr 11,C   2,H  12)     91.9181         0.002194   
    216. D(C   0,Cr 11,C   3,C   2)     29.1066         0.002230   
    217. D(C  15,Cr 11,C   4,C   3)    164.9636         0.002228   
    218. D(C   0,Cr 11,C   3,H   8)    143.1846         0.002230   
    219. D(C   1,Cr 11,C   3,C   2)     65.9220         0.002230   
    220. D(C   1,Cr 11,C   3,C   4)    -66.1423         0.002230   
    221. D(C   3,Cr 11,C   1,H   7)    180.0000         0.002157   
    222. D(C   3,Cr 11,C   1,C   5)     66.2865         0.002157   
    223. D(C   2,Cr 11,C   3,H   8)    114.0780         0.002230   
    224. D(C   4,Cr 11,C   3,C   2)    132.0643         0.002230   
    225. D(C  14,Cr 11,C   4,C   3)   -119.1937         0.002228   
    226. D(C   5,Cr 11,C   3,C   2)    102.8323         0.002230   
    227. D(C   5,Cr 11,C   3,C   4)    -29.2319         0.002230   
    228. D(C   5,Cr 11,C   3,H   8)   -143.0896         0.002230   
    229. D(C  13,Cr 11,C   4,H   9)     84.6561         0.002228   
    230. D(C   3,Cr 11,C   1,C   0)    -66.0635         0.002157   
    231. D(C   2,Cr 11,C   1,H   7)   -143.0002         0.002157   
    232. D(C   5,Cr 11,C   4,C   3)    132.0704         0.002228   
    233. D(C   2,Cr 11,C   1,C   5)    103.2863         0.002157   
    234. D(C   2,Cr 11,C   1,C   0)    -29.0637         0.002157   
    235. D(C   2,Cr 11,C   4,H   9)    143.0790         0.002228   
    236. D(C   2,Cr 11,C   4,C   5)   -102.8304         0.002228   
    237. D(C   0,Cr 11,C   1,H   7)   -113.9365         0.002157   
    238. D(C   1,Cr 11,C   4,H   9)   -143.1874         0.002228   
    239. D(C   0,Cr 11,C   1,C   5)    132.3500         0.002157   
    240. D(C   1,Cr 11,C   4,C   5)    -29.0968         0.002228   
    241. D(C   1,Cr 11,C   4,C   3)    102.9736         0.002228   
    242. D(C  15,Cr 11,C   0,H   6)     48.9975         0.002158   
    243. D(C   0,Cr 11,C   4,H   9)    180.0000         0.002228   
    244. D(C   2,Cr 11,C   4,C   3)     29.2400         0.002228   
    245. D(C   0,Cr 11,C   4,C   5)    -65.9094         0.002228   
    246. D(C  15,Cr 11,C   0,C   2)    162.6983         0.002158   
    247. D(C   3,Cr 11,C   4,C   5)   -132.0704         0.002228   
    248. D(C   3,Cr 11,C   4,H   9)    113.8390         0.002228   
    249. D(C   0,Cr 11,C   4,C   3)     66.1610         0.002228   
    250. D(C   5,Cr 11,C   4,H   9)   -114.0906         0.002228   
    251. D(C  13,Cr 11,C   4,C   3)    -29.1829         0.002228   
    252. D(C  13,Cr 11,C   4,C   5)   -161.2532         0.002228   
    253. D(C  15,Cr 11,C   3,H   8)   -163.9035         0.002230   
    254. D(C  15,Cr 11,C   0,C   1)    -64.9579         0.002158   
    255. D(C  14,Cr 11,C   4,C   5)    108.7359         0.002228   
    256. D(C  14,Cr 11,C   4,H   9)     -5.3547         0.002228   
    257. D(C  15,Cr 11,C   3,C   4)    -50.0458         0.002230   
    258. D(C  15,Cr 11,C   4,C   5)     32.8932         0.002228   
    259. D(C  15,Cr 11,C   4,H   9)    -81.1974         0.002228   
    260. D(C   0,Cr 11,C   5,C   1)    -29.0129         0.002191   
    261. D(C  15,Cr 11,C   3,C   2)     82.0184         0.002230   
    262. D(C  14,Cr 11,C   0,H   6)    163.9967         0.002158   
    263. D(C  14,Cr 11,C   3,H   8)    -52.5930         0.002230   
    264. D(C   1,Cr 11,C   5,H  10)   -114.1311         0.002191   
    265. D(C  14,Cr 11,C   3,C   4)     61.2647         0.002230   
    266. D(C   2,Cr 11,C   5,C   4)     66.3437         0.002191   
    267. D(C   2,Cr 11,C   5,H  10)    180.0000         0.002191   
    268. D(C   3,Cr 11,C   5,C   1)   -102.9303         0.002191   
    269. D(C  14,Cr 11,C   0,C   2)    -82.3024         0.002158   
    270. D(C  14,Cr 11,C   3,C   2)   -166.6710         0.002230   
    271. D(C   4,Cr 11,C   5,C   1)   -132.2126         0.002191   
    272. D(C   4,Cr 11,C   5,H  10)    113.6563         0.002191   
    273. D(C  13,Cr 11,C   3,H   8)     43.9941         0.002230   
    274. D(C  13,Cr 11,C   5,C   4)     52.4536         0.002191   
    275. D(C  13,Cr 11,C   5,H  10)    166.1098         0.002191   
    276. D(C  14,Cr 11,C   5,C   1)    157.8915         0.002191   
    277. D(C  14,Cr 11,C   0,C   1)     50.0414         0.002158   
    278. D(C  13,Cr 11,C   3,C   4)    157.8518         0.002230   
    279. D(C  15,Cr 11,C   5,C   1)     71.8828         0.002191   
    280. D(C  15,Cr 11,C   5,C   4)   -155.9045         0.002191   
    281. D(C  13,Cr 11,C   3,C   2)    -70.0839         0.002230   
    282. D(C  13,Cr 11,C   0,H   6)    -51.2144         0.002158   
    -----------------------------------------------------------------

Number of atoms                         .... 19
Number of degrees of freedom            .... 282

         *************************************************************
         *                GEOMETRY OPTIMIZATION CYCLE   1            *
         *************************************************************
---------------------------------
CARTESIAN COORDINATES (ANGSTROEM)
---------------------------------
  C     -5.900852    2.648798   -0.000000
  C     -4.557483    3.039541    0.000000
  C     -6.234143    1.290034    0.000000
  C     -5.224065    0.322014    0.000000
  C     -3.880695    0.712757    0.000000
  C     -3.547404    2.071521    0.000000
  H     -6.682277    3.397686   -0.000000
  H     -4.299639    4.090719   -0.000000
  H     -5.481908   -0.729164    0.000000
  H     -3.099271   -0.036131    0.000000
  H     -2.508136    2.373811    0.000000
  Cr    -4.887634    1.668212   -1.674514
  H     -7.334273    0.913088    0.023896
  C     -6.528179    1.019296   -2.789492
  C     -3.461846    0.564302   -2.754874
  C     -4.341645    3.263682   -2.909434
  O     -7.437872    0.658214   -3.355968
  O     -4.047867    4.123133   -3.580187
  O     -2.664965   -0.046546   -3.270527

----------------------------
CARTESIAN COORDINATES (A.U.)
----------------------------
  NO LB      ZA    FRAG     MASS         X           Y           Z
   0 C     6.0000    0    12.011  -11.150994    5.005502   -0.000000
   1 C     6.0000    0    12.011   -8.612394    5.743900    0.000000
   2 C     6.0000    0    12.011  -11.780823    2.437811    0.000000
   3 C     6.0000    0    12.011   -9.872052    0.608518    0.000000
   4 C     6.0000    0    12.011   -7.333452    1.346916    0.000000
   5 C     6.0000    0    12.011   -6.703623    3.914607    0.000000
   6 H     1.0000    0     1.008  -12.627673    6.420695   -0.000000
   7 H     1.0000    0     1.008   -8.125140    7.730338   -0.000000
   8 H     1.0000    0     1.008  -10.359305   -1.377920    0.000000
   9 H     1.0000    0     1.008   -5.856773   -0.068277    0.000000
  10 H     1.0000    0     1.008   -4.739690    4.485852    0.000000
  11 Cr   24.0000    0    52.000   -9.236291    3.152463   -3.164372
  12 H     1.0000    0     1.008  -13.859768    1.725487    0.045157
  13 C     6.0000    0    12.011  -12.336470    1.926190   -5.271376
  14 C     6.0000    0    12.011   -6.541940    1.066376   -5.205957
  15 C     6.0000    0    12.011   -8.204520    6.167464   -5.498033
  16 O     8.0000    0    15.999  -14.055541    1.243845   -6.341860
  17 O     8.0000    0    15.999   -7.649360    7.791592   -6.765572
  18 O     8.0000    0    15.999   -5.036054   -0.087960   -6.180400

--------------------------------
INTERNAL COORDINATES (ANGSTROEM)
--------------------------------
 C      0   0   0     0.000000000000     0.00000000     0.00000000
 C      1   0   0     1.399043078014     0.00000000     0.00000000
 C      1   2   0     1.399043034222   119.99999974     0.00000000
 C      3   1   2     1.399042990790   119.99999645     0.00000000
 C      4   3   1     1.399043010034   120.00000180     0.00000000
 C      5   4   3     1.399042947626   120.00000340     0.00000000
 H      1   2   3     1.082339047050   119.99999712   180.00000000
 H      2   1   3     1.082339037757   120.00000255   180.00000085
 H      4   3   1     1.082339018205   120.00000488   180.00000085
 H      5   4   3     1.082339003733   119.99999802   180.00000000
 H      6   5   4     1.082339099228   119.99999492   180.00000000
 Cr     4   3   1     2.174725206136    71.54138915   305.73262455
 H      3   1   2     1.163161885776   122.68760574   178.60126554
 C     12   4   3     2.087020359838    95.58287805   289.91610244
 C     12   4   3     2.102062967832   100.11276109   193.32897984
 C     12   4   3     2.090133040082   165.43542901    82.01842632
 O     14  12   4     1.130847622738   177.76810944    29.89606349
 O     16  12  14     1.129102146082   179.77003325   323.61587855
 O     15  12   4     1.128739263148   176.24812748   319.83790315

---------------------------
INTERNAL COORDINATES (A.U.)
---------------------------
 C      0   0   0     0.000000000000     0.00000000     0.00000000
 C      1   0   0     2.643808267005     0.00000000     0.00000000
 C      1   2   0     2.643808184249   119.99999974     0.00000000
 C      3   1   2     2.643808102175   119.99999645     0.00000000
 C      4   3   1     2.643808138541   120.00000180     0.00000000
 C      5   4   3     2.643808020608   120.00000340     0.00000000
 H      1   2   3     2.045324382973   119.99999712   180.00000000
 H      2   1   3     2.045324365412   120.00000255   180.00000085
 H      4   3   1     2.045324328464   120.00000488   180.00000085
 H      5   4   3     2.045324301116   119.99999802   180.00000000
 H      6   5   4     2.045324481576   119.99999492   180.00000000
 Cr     4   3   1     4.109635056133    71.54138915   305.73262455
 H      3   1   2     2.198057413532   122.68760574   178.60126554
 C     12   4   3     3.943896916012    95.58287805   289.91610244
 C     12   4   3     3.972323325459   100.11276109   193.32897984
 C     12   4   3     3.949779029215   165.43542901    82.01842632
 O     14  12   4     2.136992306170   177.76810944    29.89606349
 O     16  12  14     2.133693833318   179.77003325   323.61587855
 O     15  12   4     2.133008083953   176.24812748   319.83790315

---------------------
BASIS SET INFORMATION
---------------------
There are 4 groups of distinct atoms

 Group   1 Type C   : 11s6p1d contracted to 5s3p1d pattern {62111/411/1}
 Group   2 Type H   : 5s contracted to 3s pattern {311}
 Group   3 Type Cr  : 17s11p6d contracted to 6s4p3d pattern {842111/6311/411}
 Group   4 Type O   : 11s6p2d contracted to 5s3p2d pattern {62111/411/11}

Atom   0C    basis set group =>   1
Atom   1C    basis set group =>   1
Atom   2C    basis set group =>   1
Atom   3C    basis set group =>   1
Atom   4C    basis set group =>   1
Atom   5C    basis set group =>   1
Atom   6H    basis set group =>   2
Atom   7H    basis set group =>   2
Atom   8H    basis set group =>   2
Atom   9H    basis set group =>   2
Atom  10H    basis set group =>   2
Atom  11Cr   basis set group =>   3
Atom  12H    basis set group =>   2
Atom  13C    basis set group =>   1
Atom  14C    basis set group =>   1
Atom  15C    basis set group =>   1
Atom  16O    basis set group =>   4
Atom  17O    basis set group =>   4
Atom  18O    basis set group =>   4
---------------------------------
AUXILIARY/J BASIS SET INFORMATION
---------------------------------
There are 4 groups of distinct atoms

 Group   1 Type C   : 8s3p3d contracted to 6s3p3d pattern {311111/111/111}
 Group   2 Type H   : 5s2p contracted to 3s1p pattern {311/2}
 Group   3 Type Cr  : 19s5p5d3f3g contracted to 8s5p5d2f3g pattern {121111111/11111/11111/21/111}
 Group   4 Type O   : 8s3p3d contracted to 6s3p3d pattern {311111/111/111}

Atom   0C    basis set group =>   1
Atom   1C    basis set group =>   1
Atom   2C    basis set group =>   1
Atom   3C    basis set group =>   1
Atom   4C    basis set group =>   1
Atom   5C    basis set group =>   1
Atom   6H    basis set group =>   2
Atom   7H    basis set group =>   2
Atom   8H    basis set group =>   2
Atom   9H    basis set group =>   2
Atom  10H    basis set group =>   2
Atom  11Cr   basis set group =>   3
Atom  12H    basis set group =>   2
Atom  13C    basis set group =>   1
Atom  14C    basis set group =>   1
Atom  15C    basis set group =>   1
Atom  16O    basis set group =>   4
Atom  17O    basis set group =>   4
Atom  18O    basis set group =>   4


           ************************************************************
           *        Program running with 4 parallel MPI-processes     *
           *              working on a common directory               *
           ************************************************************
------------------------------------------------------------------------------
                           ORCA GTO INTEGRAL CALCULATION
                           -- RI-GTO INTEGRALS CHOSEN --
------------------------------------------------------------------------------

                         BASIS SET STATISTICS AND STARTUP INFO

Gaussian basis set:
 # of primitive gaussian shells          ...  283
 # of primitive gaussian functions       ...  533
 # of contracted shells                  ...  142
 # of contracted basis functions         ...  294
 Highest angular momentum                ...    2
 Maximum contraction depth               ...    8
Auxiliary gaussian basis set:
 # of primitive gaussian shells          ...  245
 # of primitive gaussian functions       ...  557
 # of contracted shells                  ...  191
 # of contracted aux-basis functions     ...  485
 Highest angular momentum                ...    4
 Maximum contraction depth               ...   12
Ratio of auxiliary to basis functions    ...  1.65
Integral package used                  ... LIBINT
 One Electron integrals                  ... done
 Ordering auxiliary basis shells         ... done
 Integral threshhold             Thresh  ...  2.500e-11
 Primitive cut-off               TCut    ...  2.500e-12
 Pre-screening matrix                    ... done
 Shell pair data                         ... 
 Ordering of the shell pairs             ... done (   0.001 sec) 8884 of 10153 pairs
 Determination of significant pairs      ... done (   0.000 sec)
 Creation of shell pair data             ... done (   0.001 sec)
 Storage of shell pair data              ... done (   0.001 sec)
 Shell pair data done in (   0.004 sec)
 Computing two index integrals           ... done
 Cholesky decomposition of the V-matrix  ... done


Timings:
 Total evaluation time                   ...   0.241 sec (  0.004 min)
 One electron matrix time                ...   0.059 sec (  0.001 min) = 24.6%
 Schwartz matrix evaluation time         ...   0.143 sec (  0.002 min) = 59.6%
 Two index repulsion integral time       ...   0.005 sec (  0.000 min) =  2.0%
 Cholesky decomposition of V             ...   0.009 sec (  0.000 min) =  3.6%
 Three index repulsion integral time     ...   0.000 sec (  0.000 min) =  0.0%



           ************************************************************
           *        Program running with 4 parallel MPI-processes     *
           *              working on a common directory               *
           ************************************************************
-------------------------------------------------------------------------------
                                 ORCA SCF
-------------------------------------------------------------------------------

------------
SCF SETTINGS
------------
Hamiltonian:
 Density Functional     Method          .... DFT(GTOs)
 Exchange Functional    Exchange        .... B973C
 Correlation Functional Correlation     .... B973C
 Gradients option       PostSCFGGA      .... off
   Density functional embedding theory  .... OFF
 RI-approximation to the Coulomb term is turned on
   Number of auxiliary basis functions  .... 485


General Settings:
 Integral files         IntName         .... benzenetricarbonylchromium
 Hartree-Fock type      HFTyp           .... RHF
 Total Charge           Charge          ....    0
 Multiplicity           Mult            ....    1
 Number of Electrons    NEL             ....  108
 Basis Dimension        Dim             ....  294
 Nuclear Repulsion      ENuc            ....   1019.5576773090 Eh

Convergence Acceleration:
 DIIS                   CNVDIIS         .... on
   Start iteration      DIISMaxIt       ....    12
   Startup error        DIISStart       ....  0.200000
   # of expansion vecs  DIISMaxEq       ....     5
   Bias factor          DIISBfac        ....   1.050
   Max. coefficient     DIISMaxC        ....  10.000
 Newton-Raphson         CNVNR           .... off
 SOSCF                  CNVSOSCF        .... off
 Level Shifting         CNVShift        .... on
   Level shift para.    LevelShift      ....    0.2500
   Turn off err/grad.   ShiftErr        ....    0.0010
 Zerner damping         CNVZerner       .... off
 Static damping         CNVDamp         .... on
   Fraction old density DampFac         ....    0.7000
   Max. Damping (<1)    DampMax         ....    0.9800
   Min. Damping (>=0)   DampMin         ....    0.0000
   Turn off err/grad.   DampErr         ....    0.1000
 Fernandez-Rico         CNVRico         .... off

SCF Procedure:
 Maximum # iterations   MaxIter         ....   125
 SCF integral mode      SCFMode         .... Direct
   Integral package                     .... LIBINT
 Reset frequency        DirectResetFreq ....    20
 Integral Threshold     Thresh          ....  2.500e-11 Eh
 Primitive CutOff       TCut            ....  2.500e-12 Eh

Convergence Tolerance:
 Convergence Check Mode ConvCheckMode   .... Total+1el-Energy
 Convergence forced     ConvForced      .... 0
 Energy Change          TolE            ....  1.000e-08 Eh
 1-El. energy change                    ....  1.000e-05 Eh
 DIIS Error             TolErr          ....  5.000e-07


Diagonalization of the overlap matrix:
Smallest eigenvalue                        ... 9.281e-06
Time for diagonalization                   ...    0.021 sec
Threshold for overlap eigenvalues          ... 1.000e-08
Number of eigenvalues below threshold      ... 0
Time for construction of square roots      ...    0.016 sec
Total time needed                          ...    0.037 sec

--------------------------------
INITIAL GUESS: MINIMAL BASIS EHT
--------------------------------
The minimal basis has 84 functions
EHT matrix was diagonalized
Basis set overlap was calculated now projecting the orbitals
Using GuessMode=FMatrix for the initial guess
C*T matrix was formed
Effective Fockian was calculated
Effective Fockian was diagonalized
Initial density was built
                      ------------------
                      INITIAL GUESS DONE
                      ------------------
-------------------
DFT GRID GENERATION
-------------------

General Integration Accuracy     IntAcc      ...  4.340
Radial Grid Type                 RadialGrid  ... Gauss-Chebyshev
Angular Grid (max. acc.)         AngularGrid ... Lebedev-194
Angular grid pruning method      GridPruning ... 3 (G Style)
Weight generation scheme         WeightScheme... Becke
Basis function cutoff            BFCut       ...    1.0000e-11
Integration weight cutoff        WCut        ...    1.0000e-14
Grids for H and He will be reduced by one unit

# of grid points (after initial pruning)     ...  54210 (   0.0 sec)
# of grid points (after weights+screening)   ...  49231 (   0.1 sec)
nearest neighbour list constructed           ...    0.0 sec
Grid point re-assignment to atoms done       ...    0.0 sec
Grid point division into batches done        ...    0.1 sec
Reduced shell lists constructed in    0.2 sec

Total number of grid points                  ...    49231
Total number of batches                      ...      780
Average number of points per batch           ...       63
Average number of grid points per atom       ...     2591
Average number of shells per batch           ...    96.90 (68.24%)
Average number of basis functions per batch  ...   212.49 (72.28%)
Average number of large shells per batch     ...    77.93 (80.42%)
Average number of large basis fcns per batch ...   170.40 (80.19%)
Maximum spatial batch extension              ...  15.50, 15.51, 22.17 au
Average spatial batch extension              ...   0.42,  0.42,  0.59 au

Time for grid setup =    0.321 sec

--------------
SCF ITERATIONS
--------------
ITER       Energy         Delta-E        Max-DP      RMS-DP      [F,P]     Damp
               ***  Starting incremental Fock matrix formation  ***
  0  -1610.2127363143   0.000000000000 7.67546289  0.11127445  0.5759404 0.7000
  1  -1609.9171694745   0.295566839806 2.91126383  0.03544987  0.4369883 0.7000
  2  -1612.2664091293  -2.349239654823 1.96595803  0.02250431  0.2233343 0.7000
                               ***Turning on DIIS***
  3  -1613.5265627673  -1.260153638039 1.30981288  0.01269266  0.1613186 0.7000
  4  -1614.4165020982  -0.889939330875 1.06650523  0.00911156  0.1316134 0.7000
  5  -1615.0238165820  -0.607314483804 0.71595137  0.00794933  0.1014497 0.7000
  6  -1615.4604655011  -0.436648919118 0.49086346  0.00598284  0.1149719 0.7000
  7  -1615.7882363259  -0.327770824806 1.16569268  0.01505876  0.0909345 0.0000
  8  -1616.5369657928  -0.748729466916 0.07111937  0.00085923  0.0106522 0.0000
  9  -1616.5371506165  -0.000184823653 0.00868455  0.00015693  0.0090814 0.0000
 10  -1616.5374792460  -0.000328629505 0.00813702  0.00010525  0.0114324 0.0000
 11  -1616.5376593514  -0.000180105425 0.00418504  0.00006317  0.0053999 0.0000
 12  -1616.5377036492  -0.000044297737 0.00239950  0.00004048  0.0012492 0.0000
 13  -1616.5377098343  -0.000006185119 0.00148572  0.00003222  0.0005578 0.0000
 14  -1616.5377116290  -0.000001794713 0.00200345  0.00002943  0.0003845 0.0000
 15  -1616.5377119827  -0.000000353697 0.00122024  0.00001831  0.0001750 0.0000
 16  -1616.5377124302  -0.000000447523 0.00068959  0.00000947  0.0001059 0.0000
 17  -1616.5377123304   0.000000099816 0.00031022  0.00000332  0.0000424 0.0000
 18  -1616.5377122153   0.000000115143 0.00010181  0.00000175  0.0001120 0.0000
 19  -1616.5377123482  -0.000000132968 0.00005319  0.00000055  0.0000057 0.0000
               *** Restarting incremental Fock matrix formation ***
                                   *** Resetting DIIS ***
 20  -1616.5377127060  -0.000000357724 0.00091430  0.00001471  0.0000057 0.0000
 21  -1616.5377128141  -0.000000108167 0.00004216  0.00000074  0.0000541 0.0000
 22  -1616.5377127288   0.000000085324 0.00004099  0.00000042  0.0000382 0.0000
 23  -1616.5377127704  -0.000000041598 0.00009925  0.00000151  0.0000027 0.0000
                            ***DIIS convergence achieved***

               *****************************************************
               *                     SUCCESS                       *
               *           SCF CONVERGED AFTER  24 CYCLES          *
               *****************************************************

Setting up the final grid:

General Integration Accuracy     IntAcc      ...  4.670
Radial Grid Type                 RadialGrid  ... Gauss-Chebyshev
Angular Grid (max. acc.)         AngularGrid ... Lebedev-302
Angular grid pruning method      GridPruning ... 3 (G Style)
Weight generation scheme         WeightScheme... Becke
Basis function cutoff            BFCut       ...    1.0000e-11
Integration weight cutoff        WCut        ...    1.0000e-14
Grids for H and He will be reduced by one unit

# of grid points (after initial pruning)     ... 104572 (   0.0 sec)
# of grid points (after weights+screening)   ...  94135 (   0.1 sec)
nearest neighbour list constructed           ...    0.0 sec
Grid point re-assignment to atoms done       ...    0.0 sec
Grid point division into batches done        ...    0.4 sec
Reduced shell lists constructed in    0.6 sec

Total number of grid points                  ...    94135
Total number of batches                      ...     1481
Average number of points per batch           ...       63
Average number of grid points per atom       ...     4954
Average number of shells per batch           ...    93.46 (65.82%)
Average number of basis functions per batch  ...   204.91 (69.70%)
Average number of large shells per batch     ...    74.32 (79.52%)
Average number of large basis fcns per batch ...   162.22 (79.17%)
Maximum spatial batch extension              ...  14.53, 14.75, 23.08 au
Average spatial batch extension              ...   0.38,  0.38,  0.49 au

Final grid set up in    0.8 sec
Final integration                            ... done (   0.6 sec)
Change in XC energy                          ...     0.000108255
Integrated number of electrons               ...   108.000077539
Previous integrated no of electrons          ...   108.001600350

----------------
TOTAL SCF ENERGY
----------------

Total Energy       :        -1616.53760455 Eh          -43988.22454 eV

Components:
Nuclear Repulsion  :         1019.55767731 Eh           27743.57486 eV
Electronic Energy  :        -2636.09528185 Eh          -71731.79939 eV
One Electron Energy:        -4243.82340565 Eh         -115480.30577 eV
Two Electron Energy:         1607.72812380 Eh           43748.50638 eV

Virial components:
Potential Energy   :        -3229.58864691 Eh          -87881.57490 eV
Kinetic Energy     :         1613.05104237 Eh           43893.35036 eV
Virial Ratio       :            2.00216147


DFT components:
N(Alpha)           :       54.000038769318 electrons
N(Beta)            :       54.000038769318 electrons
N(Total)           :      108.000077538636 electrons
E(XC)              :     -124.990289679651 Eh       
DFET-embed. en.    :        0.000000000000 Eh       

---------------
SCF CONVERGENCE
---------------

  Last Energy change         ...   -3.0099e-08  Tolerance :   1.0000e-08
  Last MAX-Density change    ...    3.9018e-05  Tolerance :   1.0000e-07
  Last RMS-Density change    ...    6.4466e-07  Tolerance :   5.0000e-09
  Last DIIS Error            ...    9.5171e-07  Tolerance :   5.0000e-07

             **** THE GBW FILE WAS UPDATED (benzenetricarbonylchromium.gbw) ****
             **** DENSITY FILE WAS UPDATED (benzenetricarbonylchromium.scfp) ****
             **** ENERGY FILE WAS UPDATED (benzenetricarbonylchromium.en.tmp) ****
             **** THE GBW FILE WAS UPDATED (benzenetricarbonylchromium.gbw) ****
             **** DENSITY FILE WAS UPDATED (benzenetricarbonylchromium.scfp) ****
----------------
ORBITAL ENERGIES
----------------

  NO   OCC          E(Eh)            E(eV) 
   0   2.0000    -214.371489     -5833.3448 
   1   2.0000     -24.309392      -661.4922 
   2   2.0000     -20.706369      -563.4490 
   3   2.0000     -20.702127      -563.3335 
   4   2.0000     -20.701231      -563.3091 
   5   2.0000     -18.812705      -511.9197 
   6   2.0000     -18.809996      -511.8460 
   7   2.0000     -18.809326      -511.8278 
   8   2.0000      -9.990172      -271.8464 
   9   2.0000      -9.987333      -271.7691 
  10   2.0000      -9.986855      -271.7561 
  11   2.0000      -9.938785      -270.4481 
  12   2.0000      -9.931035      -270.2372 
  13   2.0000      -9.930824      -270.2315 
  14   2.0000      -9.923464      -270.0312 
  15   2.0000      -9.922917      -270.0163 
  16   2.0000      -9.922292      -269.9993 
  17   2.0000      -2.710199       -73.7483 
  18   2.0000      -1.711830       -46.5813 
  19   2.0000      -1.698114       -46.2080 
  20   2.0000      -1.695549       -46.1382 
  21   2.0000      -1.054009       -28.6810 
  22   2.0000      -1.050980       -28.5986 
  23   2.0000      -1.049287       -28.5526 
  24   2.0000      -0.828494       -22.5445 
  25   2.0000      -0.720404       -19.6032 
  26   2.0000      -0.718954       -19.5637 
  27   2.0000      -0.578738       -15.7483 
  28   2.0000      -0.575213       -15.6523 
  29   2.0000      -0.507931       -13.8215 
  30   2.0000      -0.498750       -13.5717 
  31   2.0000      -0.490002       -13.3336 
  32   2.0000      -0.489090       -13.3088 
  33   2.0000      -0.436918       -11.8891 
  34   2.0000      -0.431307       -11.7365 
  35   2.0000      -0.418218       -11.3803 
  36   2.0000      -0.414402       -11.2764 
  37   2.0000      -0.409008       -11.1297 
  38   2.0000      -0.408839       -11.1251 
  39   2.0000      -0.404754       -11.0139 
  40   2.0000      -0.403600       -10.9825 
  41   2.0000      -0.401493       -10.9252 
  42   2.0000      -0.400599       -10.9009 
  43   2.0000      -0.399220       -10.8633 
  44   2.0000      -0.352569        -9.5939 
  45   2.0000      -0.344829        -9.3833 
  46   2.0000      -0.342526        -9.3206 
  47   2.0000      -0.335233        -9.1222 
  48   2.0000      -0.332098        -9.0369 
  49   2.0000      -0.286602        -7.7988 
  50   2.0000      -0.286211        -7.7882 
  51   2.0000      -0.171157        -4.6574 
  52   2.0000      -0.165027        -4.4906 
  53   2.0000      -0.161108        -4.3840 
  54   0.0000      -0.065917        -1.7937 
  55   0.0000      -0.062575        -1.7027 
  56   0.0000      -0.049665        -1.3515 
  57   0.0000      -0.044632        -1.2145 
  58   0.0000      -0.041977        -1.1422 
  59   0.0000      -0.030095        -0.8189 
  60   0.0000      -0.026404        -0.7185 
  61   0.0000      -0.023096        -0.6285 
  62   0.0000      -0.021814        -0.5936 
  63   0.0000      -0.015857        -0.4315 
  64   0.0000       0.003614         0.0984 
  65   0.0000       0.046042         1.2529 
  66   0.0000       0.053364         1.4521 
  67   0.0000       0.060980         1.6593 
  68   0.0000       0.070740         1.9249 
  69   0.0000       0.078080         2.1247 
  70   0.0000       0.080604         2.1933 
  71   0.0000       0.098147         2.6707 
  72   0.0000       0.109211         2.9718 
  73   0.0000       0.123612         3.3637 
  74   0.0000       0.129781         3.5315 
  75   0.0000       0.171466         4.6658 
  76   0.0000       0.176211         4.7949 
  77   0.0000       0.178059         4.8452 
  78   0.0000       0.178699         4.8626 
  79   0.0000       0.188963         5.1419 
  80   0.0000       0.192253         5.2315 
  81   0.0000       0.195323         5.3150 
  82   0.0000       0.200644         5.4598 
  83   0.0000       0.205827         5.6008 
  84   0.0000       0.210627         5.7314 
  85   0.0000       0.232111         6.3161 
  86   0.0000       0.236323         6.4307 
  87   0.0000       0.238761         6.4970 
  88   0.0000       0.250017         6.8033 
  89   0.0000       0.253413         6.8957 
  90   0.0000       0.268161         7.2970 
  91   0.0000       0.272740         7.4216 
  92   0.0000       0.275515         7.4971 
  93   0.0000       0.276589         7.5264 
  94   0.0000       0.290307         7.8996 
  95   0.0000       0.291557         7.9337 
  96   0.0000       0.300808         8.1854 
  97   0.0000       0.305722         8.3191 
  98   0.0000       0.308047         8.3824 
  99   0.0000       0.323139         8.7931 
 100   0.0000       0.329407         8.9636 
 101   0.0000       0.339866         9.2482 
 102   0.0000       0.346072         9.4171 
 103   0.0000       0.353863         9.6291 
 104   0.0000       0.358374         9.7518 
 105   0.0000       0.368526        10.0281 
 106   0.0000       0.373323        10.1586 
 107   0.0000       0.377696        10.2776 
 108   0.0000       0.385304        10.4847 
 109   0.0000       0.393755        10.7146 
 110   0.0000       0.405958        11.0467 
 111   0.0000       0.410998        11.1838 
 112   0.0000       0.415021        11.2933 
 113   0.0000       0.417625        11.3641 
 114   0.0000       0.423482        11.5235 
 115   0.0000       0.426012        11.5924 
 116   0.0000       0.431285        11.7359 
 117   0.0000       0.434053        11.8112 
 118   0.0000       0.443491        12.0680 
 119   0.0000       0.447424        12.1750 
 120   0.0000       0.453307        12.3351 
 121   0.0000       0.469806        12.7841 
 122   0.0000       0.472978        12.8704 
 123   0.0000       0.490674        13.3519 
 124   0.0000       0.495787        13.4911 
 125   0.0000       0.498112        13.5543 
 126   0.0000       0.503621        13.7042 
 127   0.0000       0.511502        13.9187 
 128   0.0000       0.513773        13.9805 
 129   0.0000       0.519809        14.1447 
 130   0.0000       0.525578        14.3017 
 131   0.0000       0.538067        14.6416 
 132   0.0000       0.598841        16.2953 
 133   0.0000       0.606505        16.5038 
 134   0.0000       0.617950        16.8153 
 135   0.0000       0.620768        16.8920 
 136   0.0000       0.673505        18.3270 
 137   0.0000       0.682532        18.5726 
 138   0.0000       0.688723        18.7411 
 139   0.0000       0.701221        19.0812 
 140   0.0000       0.702669        19.1206 
 141   0.0000       0.710686        19.3387 
 142   0.0000       0.727777        19.8038 
 143   0.0000       0.729747        19.8574 
 144   0.0000       0.738044        20.0832 
 145   0.0000       0.754656        20.5352 
 146   0.0000       0.761621        20.7248 
 147   0.0000       0.778661        21.1884 
 148   0.0000       0.784779        21.3549 
 149   0.0000       0.800632        21.7863 
 150   0.0000       0.818395        22.2697 
 151   0.0000       0.830489        22.5987 
 152   0.0000       0.836449        22.7609 
 153   0.0000       0.846541        23.0355 
 154   0.0000       0.856116        23.2961 
 155   0.0000       0.864206        23.5162 
 156   0.0000       0.913115        24.8471 
 157   0.0000       0.978412        26.6239 
 158   0.0000       1.020815        27.7778 
 159   0.0000       1.164405        31.6851 
 160   0.0000       1.180513        32.1234 
 161   0.0000       1.259249        34.2659 
 162   0.0000       1.277895        34.7733 
 163   0.0000       1.302658        35.4471 
 164   0.0000       1.305325        35.5197 
 165   0.0000       1.323728        36.0205 
 166   0.0000       1.328259        36.1438 
 167   0.0000       1.333170        36.2774 
 168   0.0000       1.340630        36.4804 
 169   0.0000       1.368223        37.2312 
 170   0.0000       1.378368        37.5073 
 171   0.0000       1.392431        37.8900 
 172   0.0000       1.398235        38.0479 
 173   0.0000       1.436333        39.0846 
 174   0.0000       1.440229        39.1906 
 175   0.0000       1.448047        39.4034 
 176   0.0000       1.449272        39.4367 
 177   0.0000       1.482049        40.3286 
 178   0.0000       1.491198        40.5776 
 179   0.0000       1.493646        40.6442 
 180   0.0000       1.498132        40.7662 
 181   0.0000       1.503163        40.9032 
 182   0.0000       1.511864        41.1399 
 183   0.0000       1.521475        41.4014 
 184   0.0000       1.531186        41.6657 
 185   0.0000       1.569375        42.7049 
 186   0.0000       1.578674        42.9579 
 187   0.0000       1.585415        43.1413 
 188   0.0000       1.599787        43.5324 
 189   0.0000       1.604845        43.6700 
 190   0.0000       1.609986        43.8099 
 191   0.0000       1.621410        44.1208 
 192   0.0000       1.624258        44.1983 
 193   0.0000       1.630688        44.3733 
 194   0.0000       1.631006        44.3819 
 195   0.0000       1.653759        45.0011 
 196   0.0000       1.660039        45.1719 
 197   0.0000       1.663125        45.2559 
 198   0.0000       1.666814        45.3563 
 199   0.0000       1.670986        45.4698 
 200   0.0000       1.678831        45.6833 
 201   0.0000       1.693810        46.0909 
 202   0.0000       1.698381        46.2153 
 203   0.0000       1.702709        46.3331 
 204   0.0000       1.706450        46.4349 
 205   0.0000       1.711417        46.5700 
 206   0.0000       1.719942        46.8020 
 207   0.0000       1.731870        47.1266 
 208   0.0000       1.736419        47.2504 
 209   0.0000       1.789152        48.6853 
 210   0.0000       1.827094        49.7178 
 211   0.0000       1.849449        50.3261 
 212   0.0000       1.870488        50.8986 
 213   0.0000       1.875236        51.0278 
 214   0.0000       1.904454        51.8228 
 215   0.0000       1.956927        53.2507 
 216   0.0000       1.971520        53.6478 
 217   0.0000       2.000017        54.4232 
 218   0.0000       2.034567        55.3634 
 219   0.0000       2.071892        56.3790 
 220   0.0000       2.084221        56.7145 
 221   0.0000       2.086783        56.7842 
 222   0.0000       2.109127        57.3923 
 223   0.0000       2.112767        57.4913 
 224   0.0000       2.130417        57.9716 
 225   0.0000       2.138720        58.1975 
 226   0.0000       2.148345        58.4594 
 227   0.0000       2.153183        58.5911 
 228   0.0000       2.160693        58.7954 
 229   0.0000       2.177614        59.2559 
 230   0.0000       2.184615        59.4464 
 231   0.0000       2.206433        60.0401 
 232   0.0000       2.211325        60.1732 
 233   0.0000       2.237696        60.8908 
 234   0.0000       2.256857        61.4122 
 235   0.0000       2.259739        61.4906 
 236   0.0000       2.270011        61.7701 
 237   0.0000       2.299485        62.5722 
 238   0.0000       2.342682        63.7476 
 239   0.0000       2.386599        64.9427 
 240   0.0000       2.401575        65.3502 
 241   0.0000       2.417123        65.7733 
 242   0.0000       2.428575        66.0849 
 243   0.0000       2.433658        66.2232 
 244   0.0000       2.519530        68.5599 
 245   0.0000       2.526234        68.7423 
 246   0.0000       2.528161        68.7947 
 247   0.0000       2.531038        68.8730 
 248   0.0000       2.541699        69.1631 
 249   0.0000       2.554785        69.5192 
 250   0.0000       2.559171        69.6386 
 251   0.0000       2.573988        70.0418 
 252   0.0000       2.587412        70.4071 
 253   0.0000       2.608101        70.9700 
 254   0.0000       2.616419        71.1964 
 255   0.0000       2.701687        73.5167 
 256   0.0000       2.717315        73.9419 
 257   0.0000       2.813580        76.5614 
 258   0.0000       2.827267        76.9338 
 259   0.0000       2.837012        77.1990 
 260   0.0000       2.875198        78.2381 
 261   0.0000       2.880039        78.3699 
 262   0.0000       2.888979        78.6131 
 263   0.0000       2.925831        79.6159 
 264   0.0000       2.929807        79.7241 
 265   0.0000       2.940108        80.0044 
 266   0.0000       2.942933        80.0813 
 267   0.0000       2.978145        81.0395 
 268   0.0000       3.019096        82.1538 
 269   0.0000       3.027446        82.3810 
 270   0.0000       3.060615        83.2836 
 271   0.0000       3.068885        83.5086 
 272   0.0000       3.082721        83.8851 
 273   0.0000       3.088138        84.0325 
 274   0.0000       3.109248        84.6069 
 275   0.0000       3.115347        84.7729 
 276   0.0000       3.378776        91.9412 
 277   0.0000       3.442876        93.6854 
 278   0.0000       3.502701        95.3133 
 279   0.0000       4.065920       110.6393 
 280   0.0000       4.078011       110.9683 
 281   0.0000       4.080113       111.0255 
 282   0.0000      21.387518       581.9839 
 283   0.0000      21.704758       590.6165 
 284   0.0000      21.719860       591.0274 
 285   0.0000      21.931287       596.7807 
 286   0.0000      21.955968       597.4523 
 287   0.0000      22.037152       599.6614 
 288   0.0000      22.045779       599.8961 
 289   0.0000      22.098608       601.3337 
 290   0.0000      22.132204       602.2479 
 291   0.0000      43.211327      1175.8400 
 292   0.0000      43.220695      1176.0949 
 293   0.0000      43.309159      1178.5021 

                    ********************************
                    * MULLIKEN POPULATION ANALYSIS *
                    ********************************

-----------------------
MULLIKEN ATOMIC CHARGES
-----------------------
   0 C :   -0.247441
   1 C :   -0.043394
   2 C :   -0.033285
   3 C :   -0.238111
   4 C :   -0.057187
   5 C :   -0.231133
   6 H :    0.191424
   7 H :    0.179866
   8 H :    0.189195
   9 H :    0.185941
  10 H :    0.187911
  11 Cr:   -0.490767
  12 H :    0.157538
  13 C :    0.312920
  14 C :    0.306961
  15 C :    0.311612
  16 O :   -0.231534
  17 O :   -0.226651
  18 O :   -0.223865
Sum of atomic charges:   -0.0000000

--------------------------------
MULLIKEN REDUCED ORBITAL CHARGES
--------------------------------
  0 C s       :     3.101963  s :     3.101963
      pz      :     1.019877  p :     3.100390
      px      :     1.047826
      py      :     1.032686
      dz2     :     0.004751  d :     0.045089
      dxz     :     0.006018
      dyz     :     0.006099
      dx2y2   :     0.012368
      dxy     :     0.015853
  1 C s       :     3.105805  s :     3.105805
      pz      :     0.965526  p :     2.890990
      px      :     0.947621
      py      :     0.977843
      dz2     :     0.005048  d :     0.046598
      dxz     :     0.008772
      dyz     :     0.004167
      dx2y2   :     0.015454
      dxy     :     0.013158
  2 C s       :     3.131865  s :     3.131865
      pz      :     0.960064  p :     2.854969
      px      :     0.947245
      py      :     0.947660
      dz2     :     0.004824  d :     0.046451
      dxz     :     0.004641
      dyz     :     0.008861
      dx2y2   :     0.013942
      dxy     :     0.014182
  3 C s       :     3.096518  s :     3.096518
      pz      :     1.016074  p :     3.096354
      px      :     0.959911
      py      :     1.120369
      dz2     :     0.004879  d :     0.045239
      dxz     :     0.007884
      dyz     :     0.004225
      dx2y2   :     0.015135
      dxy     :     0.013116
  4 C s       :     3.111727  s :     3.111727
      pz      :     0.961880  p :     2.898500
      px      :     0.970615
      py      :     0.966005
      dz2     :     0.005243  d :     0.046960
      dxz     :     0.006326
      dyz     :     0.006738
      dx2y2   :     0.012311
      dxy     :     0.016342
  5 C s       :     3.103640  s :     3.103640
      pz      :     1.011577  p :     3.082328
      px      :     1.115703
      py      :     0.955048
      dz2     :     0.004851  d :     0.045165
      dxz     :     0.004212
      dyz     :     0.007881
      dx2y2   :     0.014864
      dxy     :     0.013357
  6 H s       :     0.808576  s :     0.808576
  7 H s       :     0.820134  s :     0.820134
  8 H s       :     0.810805  s :     0.810805
  9 H s       :     0.814059  s :     0.814059
 10 H s       :     0.812089  s :     0.812089
 11 Crs       :     6.655158  s :     6.655158
      pz      :     4.259077  p :    12.601088
      px      :     4.181449
      py      :     4.160562
      dz2     :     1.600801  d :     5.234521
      dxz     :     0.625249
      dyz     :     0.614941
      dx2y2   :     1.215022
      dxy     :     1.178508
 12 H s       :     0.842462  s :     0.842462
 13 C s       :     3.440623  s :     3.440623
      pz      :     0.693744  p :     2.180502
      px      :     0.781742
      py      :     0.705016
      dz2     :     0.013352  d :     0.065955
      dxz     :     0.015546
      dyz     :     0.007386
      dx2y2   :     0.014744
      dxy     :     0.014928
 14 C s       :     3.450107  s :     3.450107
      pz      :     0.693392  p :     2.176570
      px      :     0.764138
      py      :     0.719040
      dz2     :     0.012434  d :     0.066362
      dxz     :     0.012992
      dyz     :     0.009710
      dx2y2   :     0.017781
      dxy     :     0.013444
 15 C s       :     3.442022  s :     3.442022
      pz      :     0.721597  p :     2.180198
      px      :     0.694820
      py      :     0.763781
      dz2     :     0.015987  d :     0.066168
      dxz     :     0.008809
      dyz     :     0.014929
      dx2y2   :     0.012968
      dxy     :     0.013476
 16 O s       :     3.816966  s :     3.816966
      pz      :     1.458179  p :     4.362981
      px      :     1.425835
      py      :     1.478967
      dz2     :     0.009912  d :     0.051587
      dxz     :     0.014275
      dyz     :     0.005825
      dx2y2   :     0.010808
      dxy     :     0.010767
 17 O s       :     3.815907  s :     3.815907
      pz      :     1.450625  p :     4.359351
      px      :     1.479118
      py      :     1.429609
      dz2     :     0.011239  d :     0.051393
      dxz     :     0.006887
      dyz     :     0.014485
      dx2y2   :     0.009096
      dxy     :     0.009687
 18 O s       :     3.815895  s :     3.815895
      pz      :     1.464023  p :     4.357236
      px      :     1.439477
      py      :     1.453735
      dz2     :     0.008974  d :     0.050734
      dxz     :     0.011429
      dyz     :     0.008051
      dx2y2   :     0.011442
      dxy     :     0.010838


                     *******************************
                     * LOEWDIN POPULATION ANALYSIS *
                     *******************************

----------------------
LOEWDIN ATOMIC CHARGES
----------------------
   0 C :   -0.152143
   1 C :   -0.107548
   2 C :   -0.101006
   3 C :   -0.150762
   4 C :   -0.106494
   5 C :   -0.145191
   6 H :    0.180112
   7 H :    0.178662
   8 H :    0.179558
   9 H :    0.178935
  10 H :    0.179063
  11 Cr:   -0.551291
  12 H :    0.177179
  13 C :    0.329126
  14 C :    0.333546
  15 C :    0.327829
  16 O :   -0.252483
  17 O :   -0.248722
  18 O :   -0.248371

-------------------------------
LOEWDIN REDUCED ORBITAL CHARGES
-------------------------------
  0 C s       :     2.877943  s :     2.877943
      pz      :     1.012465  p :     3.185534
      px      :     1.087007
      py      :     1.086063
      dz2     :     0.007653  d :     0.088665
      dxz     :     0.010610
      dyz     :     0.010816
      dx2y2   :     0.028249
      dxy     :     0.031338
  1 C s       :     2.882394  s :     2.882394
      pz      :     0.957477  p :     3.134288
      px      :     1.082866
      py      :     1.093946
      dz2     :     0.008332  d :     0.090865
      dxz     :     0.015954
      dyz     :     0.006668
      dx2y2   :     0.031209
      dxy     :     0.028702
  2 C s       :     2.891543  s :     2.891543
      pz      :     0.953718  p :     3.119161
      px      :     1.082655
      py      :     1.082788
      dz2     :     0.008171  d :     0.090301
      dxz     :     0.007226
      dyz     :     0.015994
      dx2y2   :     0.028874
      dxy     :     0.030036
  3 C s       :     2.877245  s :     2.877245
      pz      :     1.009394  p :     3.184346
      px      :     1.082433
      py      :     1.092519
      dz2     :     0.007918  d :     0.089171
      dxz     :     0.014455
      dyz     :     0.006970
      dx2y2   :     0.030811
      dxy     :     0.029018
  4 C s       :     2.882028  s :     2.882028
      pz      :     0.954542  p :     3.133068
      px      :     1.089595
      py      :     1.088932
      dz2     :     0.008779  d :     0.091398
      dxz     :     0.010931
      dyz     :     0.011740
      dx2y2   :     0.027758
      dxy     :     0.032190
  5 C s       :     2.876801  s :     2.876801
      pz      :     1.006313  p :     3.179544
      px      :     1.091685
      py      :     1.081546
      dz2     :     0.007800  d :     0.088846
      dxz     :     0.006924
      dyz     :     0.014461
      dx2y2   :     0.030546
      dxy     :     0.029115
  6 H s       :     0.819888  s :     0.819888
  7 H s       :     0.821338  s :     0.821338
  8 H s       :     0.820442  s :     0.820442
  9 H s       :     0.821065  s :     0.821065
 10 H s       :     0.820937  s :     0.820937
 11 Crs       :     6.206215  s :     6.206215
      pz      :     4.244217  p :    12.735336
      px      :     4.249313
      py      :     4.241807
      dz2     :     1.567548  d :     5.609740
      dxz     :     0.761150
      dyz     :     0.758359
      dx2y2   :     1.275928
      dxy     :     1.246755
 12 H s       :     0.822821  s :     0.822821
 13 C s       :     3.100604  s :     3.100604
      pz      :     0.762114  p :     2.431693
      px      :     0.951143
      py      :     0.718437
      dz2     :     0.025087  d :     0.138576
      dxz     :     0.036978
      dyz     :     0.014979
      dx2y2   :     0.030818
      dxy     :     0.030715
 14 C s       :     3.095605  s :     3.095605
      pz      :     0.749023  p :     2.431549
      px      :     0.888047
      py      :     0.794480
      dz2     :     0.023784  d :     0.139300
      dxz     :     0.029249
      dyz     :     0.021095
      dx2y2   :     0.033094
      dxy     :     0.032078
 15 C s       :     3.098103  s :     3.098103
      pz      :     0.813525  p :     2.435016
      px      :     0.700222
      py      :     0.921269
      dz2     :     0.029840  d :     0.139051
      dxz     :     0.017413
      dyz     :     0.037894
      dx2y2   :     0.027195
      dxy     :     0.026709
 16 O s       :     3.542551  s :     3.542551
      pz      :     1.487940  p :     4.516135
      px      :     1.553713
      py      :     1.474482
      dz2     :     0.028029  d :     0.193797
      dxz     :     0.061143
      dyz     :     0.020198
      dx2y2   :     0.042477
      dxy     :     0.041950
 17 O s       :     3.541201  s :     3.541201
      pz      :     1.505730  p :     4.514478
      px      :     1.466550
      py      :     1.542198
      dz2     :     0.030832  d :     0.193043
      dxz     :     0.022608
      dyz     :     0.068953
      dx2y2   :     0.036351
      dxy     :     0.034298
 18 O s       :     3.540595  s :     3.540595
      pz      :     1.484203  p :     4.513700
      px      :     1.531845
      py      :     1.497652
      dz2     :     0.028195  d :     0.194075
      dxz     :     0.045496
      dyz     :     0.031069
      dx2y2   :     0.035891
      dxy     :     0.053424


                      *****************************
                      * MAYER POPULATION ANALYSIS *
                      *****************************

  NA   - Mulliken gross atomic population
  ZA   - Total nuclear charge
  QA   - Mulliken gross atomic charge
  VA   - Mayer's total valence
  BVA  - Mayer's bonded valence
  FA   - Mayer's free valence

  ATOM       NA         ZA         QA         VA         BVA        FA
  0 C      6.2474     6.0000    -0.2474     4.0047     4.0047    -0.0000
  1 C      6.0434     6.0000    -0.0434     4.0448     4.0448     0.0000
  2 C      6.0333     6.0000    -0.0333     4.0380     4.0380    -0.0000
  3 C      6.2381     6.0000    -0.2381     4.0220     4.0220     0.0000
  4 C      6.0572     6.0000    -0.0572     4.0763     4.0763     0.0000
  5 C      6.2311     6.0000    -0.2311     4.0124     4.0124     0.0000
  6 H      0.8086     1.0000     0.1914     0.9303     0.9303    -0.0000
  7 H      0.8201     1.0000     0.1799     0.9415     0.9415     0.0000
  8 H      0.8108     1.0000     0.1892     0.9317     0.9317     0.0000
  9 H      0.8141     1.0000     0.1859     0.9422     0.9422    -0.0000
 10 H      0.8121     1.0000     0.1879     0.9328     0.9328     0.0000
 11 Cr    24.4908    24.0000    -0.4908     6.0841     6.0841    -0.0000
 12 H      0.8425     1.0000     0.1575     0.9493     0.9493    -0.0000
 13 C      5.6871     6.0000     0.3129     3.4396     3.4396    -0.0000
 14 C      5.6930     6.0000     0.3070     3.4079     3.4079    -0.0000
 15 C      5.6884     6.0000     0.3116     3.4210     3.4210    -0.0000
 16 O      8.2315     8.0000    -0.2315     2.3986     2.3986    -0.0000
 17 O      8.2267     8.0000    -0.2267     2.3984     2.3984    -0.0000
 18 O      8.2239     8.0000    -0.2239     2.3922     2.3922    -0.0000

  Mayer bond orders larger than 0.100000
B(  0-C ,  1-C ) :   1.2358 B(  0-C ,  2-C ) :   1.2341 B(  0-C ,  3-C ) :   0.1369 
B(  0-C ,  5-C ) :   0.1315 B(  0-C ,  6-H ) :   0.8876 B(  0-C , 11-Cr) :   0.3648 
B(  1-C ,  5-C ) :   1.2452 B(  1-C ,  7-H ) :   0.9163 B(  1-C , 11-Cr) :   0.5651 
B(  2-C ,  3-C ) :   1.2274 B(  2-C , 11-Cr) :   0.5482 B(  2-C , 12-H ) :   0.9195 
B(  2-C , 13-C ) :   0.1045 B(  3-C ,  4-C ) :   1.2495 B(  3-C ,  5-C ) :   0.1330 
B(  3-C ,  8-H ) :   0.8861 B(  3-C , 11-Cr) :   0.3742 B(  4-C ,  5-C ) :   1.2373 
B(  4-C ,  9-H ) :   0.9103 B(  4-C , 11-Cr) :   0.5750 B(  4-C , 14-C ) :   0.1079 
B(  5-C , 10-H ) :   0.8879 B(  5-C , 11-Cr) :   0.3643 B( 11-Cr, 13-C ) :   0.9827 
B( 11-Cr, 14-C ) :   0.9632 B( 11-Cr, 15-C ) :   0.9796 B( 11-Cr, 16-O ) :   0.1146 
B( 11-Cr, 17-O ) :   0.1180 B( 11-Cr, 18-O ) :   0.1157 B( 13-C , 16-O ) :   2.2339 
B( 14-C , 18-O ) :   2.2328 B( 15-C , 17-O ) :   2.2350 

-------
TIMINGS
-------

Total SCF time: 0 days 0 hours 0 min 17 sec 

Total time                  ....      17.812 sec
Sum of individual times     ....      17.553 sec  ( 98.5%)

Fock matrix formation       ....      14.875 sec  ( 83.5%)
  Split-RI-J                ....       6.135 sec  ( 41.2% of F)
  XC integration            ....       8.652 sec  ( 58.2% of F)
    Basis function eval.    ....       1.664 sec  ( 19.2% of XC)
    Density eval.           ....       2.982 sec  ( 34.5% of XC)
    XC-Functional eval.     ....       0.820 sec  (  9.5% of XC)
    XC-Potential eval.      ....       2.331 sec  ( 26.9% of XC)
Diagonalization             ....       1.005 sec  (  5.6%)
Density matrix formation    ....       0.042 sec  (  0.2%)
Population analysis         ....       0.051 sec  (  0.3%)
Initial guess               ....       0.059 sec  (  0.3%)
Orbital Transformation      ....       0.000 sec  (  0.0%)
Orbital Orthonormalization  ....       0.000 sec  (  0.0%)
DIIS solution               ....       0.437 sec  (  2.5%)
Grid generation             ....       1.084 sec  (  6.1%)


-------------------------------------------------------------------------------
                          DFT DISPERSION CORRECTION                            
                                                                               
                              DFTD3 V3.1  Rev 1                                
                          USING Becke-Johnson damping                          
-------------------------------------------------------------------------------
The B97-3c composite method is recognized
Using three-body term ABC
Active option DFTDOPT                   ...         4   

molecular C6(AA) [au] = 5657.368961 


            DFT-D V3
 parameters
 s6 scaling factor         :     1.0000 
[...]
     43      -0.000124   0.012618  -0.000481   0.000397  -0.001798  -0.002330
     44       0.000008   0.000828  -0.000175  -0.000335  -0.004760  -0.002045
     45       0.000165  -0.016928  -0.000158   0.000596   0.001587  -0.000972
     46      -0.000030   0.004025   0.000501   0.000229  -0.000512  -0.003630
     47       0.000006   0.000365   0.000346   0.000007   0.000662   0.005350
     48       0.000014  -0.001203  -0.000514   0.000181  -0.003695   0.002547
     49      -0.000054   0.004190  -0.000162   0.000086  -0.001266   0.001128
     50      -0.000005  -0.000298  -0.000435   0.000139  -0.003329   0.002373
     51      -0.000052   0.004250  -0.000081  -0.000109  -0.000091   0.001056
     52       0.000014  -0.001065  -0.000434  -0.000367   0.000472   0.004667
     53      -0.000007  -0.000018   0.000341   0.000308  -0.000402  -0.004091
     54       0.000042  -0.003034  -0.000062   0.000449  -0.003465  -0.001461
     55       0.000037  -0.003166   0.000088  -0.000397   0.002934   0.001497
     56      -0.000004  -0.000156   0.000084  -0.000421   0.003491   0.001584
                 48         49         50         51         52         53    
      0      -0.009231   0.002210   0.002652  -0.014055  -0.016348  -0.004683
      1      -0.006966  -0.006215  -0.002617   0.013089   0.014639   0.007690
      2       0.000533   0.000372   0.003700  -0.001361  -0.001367  -0.000563
      3       0.007687  -0.007020   0.000048  -0.008390  -0.004393  -0.016758
      4      -0.000026   0.003218   0.000880  -0.034312  -0.017426  -0.068483
      5      -0.001012  -0.000447   0.005751   0.002279   0.001085   0.004245
      6       0.001265  -0.003656  -0.000876   0.045431   0.049743  -0.038757
      7       0.003384   0.009577  -0.000060   0.013373   0.014761  -0.011362
      8       0.000717  -0.001221   0.005735   0.002882   0.002984  -0.002302
      9      -0.008977   0.007067   0.000869  -0.005363  -0.001429   0.004660
     10      -0.002120  -0.006417   0.003789  -0.022451   0.004063   0.016693
     11      -0.000572   0.000734   0.003511  -0.000389  -0.000043   0.000157
     12       0.007375   0.000125   0.000409  -0.037570   0.044320   0.009538
     13       0.007214   0.003531  -0.000390   0.035873  -0.042405  -0.008949
     14       0.000414   0.001034   0.005789   0.000567  -0.000463  -0.000076
     15      -0.004918   0.004496  -0.003787   0.018740  -0.013240   0.015910
     16      -0.004724  -0.010562  -0.000993   0.005085  -0.002147   0.006449
     17      -0.000132  -0.000216   0.003558  -0.000403   0.000097  -0.000292
     18       0.005601   0.008069   0.003630   0.166272   0.191098   0.072175
     19       0.008986  -0.002088  -0.002634  -0.158481  -0.181060  -0.074904
     20       0.001263  -0.005552  -0.011009   0.018001   0.020205   0.008040
     21      -0.000754   0.003026   0.000616   0.096143   0.048524   0.193429
     22       0.004567   0.003442   0.005198   0.390799   0.200382   0.785254
     23      -0.013347  -0.019214  -0.004687  -0.028344  -0.014458  -0.056624
     24       0.007122  -0.008205   0.000649   0.065435  -0.006158  -0.050394
     25      -0.006872  -0.003488   0.003743   0.269224  -0.043527  -0.202315
     26       0.004690   0.003996  -0.011286   0.007182  -0.000919  -0.005099
     27      -0.000324  -0.005700   0.004430   0.428669  -0.509178  -0.108328
     28      -0.003102   0.003963  -0.003274  -0.410089   0.486723   0.104621
     29      -0.009975   0.020805  -0.004352  -0.010724   0.012504   0.002650
     30      -0.007296  -0.001487  -0.003463  -0.223782   0.154820  -0.196358
     31      -0.000499   0.011141  -0.001934  -0.064340   0.041846  -0.060392
     32      -0.005894   0.001424  -0.011151   0.006734  -0.004253   0.005777
     33      -0.009711   0.004295  -0.000208   0.000001  -0.000150   0.000080
     34      -0.004334  -0.009717   0.000270  -0.000026   0.000075   0.000148
     35      -0.000107   0.000333   0.009896   0.000050  -0.000003   0.000005
     36       0.005388  -0.000829  -0.004767  -0.518457  -0.571246   0.444586
     37       0.001862  -0.003047  -0.002231  -0.152950  -0.167858   0.131692
     38       0.023324  -0.001761  -0.004629  -0.036649  -0.040204   0.031254
     39       0.496020  -0.047359  -0.354353   0.000263   0.000194  -0.000170
     40       0.181367  -0.016451  -0.129473   0.000067   0.000074  -0.000057
     41       0.404271  -0.038278  -0.286672   0.000112   0.000069  -0.000063
     42       0.172111  -0.375228   0.293590  -0.000201   0.000202   0.000024
     43      -0.150764   0.331187  -0.258799   0.000211  -0.000175  -0.000009
     44      -0.157479   0.344258  -0.267206   0.000102  -0.000080  -0.000001
     45       0.066726   0.092504   0.081146  -0.000072  -0.000030  -0.000063
     46       0.299522   0.421419   0.367921  -0.000205  -0.000100  -0.000295
     47      -0.235948  -0.331927  -0.287687   0.000090   0.000042   0.000106
     48      -0.348984   0.032909   0.246959  -0.000145  -0.000109   0.000086
     49      -0.127467   0.012529   0.090148  -0.000049  -0.000037   0.000038
     50      -0.281611   0.026701   0.198186  -0.000113  -0.000087   0.000069
     51      -0.046064  -0.065544  -0.056443   0.000033   0.000006   0.000037
     52      -0.210908  -0.296470  -0.256459   0.000120   0.000054   0.000161
     53       0.164321   0.231079   0.198808  -0.000092  -0.000038  -0.000124
     54      -0.120583   0.264385  -0.204696   0.000123  -0.000112  -0.000010
     55       0.106744  -0.232604   0.180327  -0.000116   0.000095   0.000013
     56       0.109532  -0.239556   0.184548  -0.000111   0.000098   0.000012
                  54         55         56    
      0      -0.050258  -0.000912  -0.031272
      1       0.048082   0.003580   0.029929
      2      -0.004828  -0.000214  -0.003148
      3       0.005851  -0.002941   0.005402
      4       0.012721  -0.019072   0.022645
      5      -0.000885   0.001387  -0.001620
      6      -0.011312  -0.019692  -0.021779
      7      -0.006249  -0.004302  -0.006324
      8      -0.000759  -0.001403  -0.001523
      9       0.009752  -0.012842  -0.011436
     10       0.032805  -0.056744  -0.046454
     11       0.000634  -0.000986  -0.000977
     12      -0.015698   0.002078   0.017279
     13       0.014807   0.002364  -0.016540
     14       0.000382   0.000005  -0.000421
     15      -0.028126  -0.057540   0.046993
     16      -0.009962  -0.015718   0.013687
     17       0.000653   0.001166  -0.001130
     18       0.570920   0.023885   0.345837
     19      -0.546133  -0.026284  -0.330831
     20       0.063033   0.002838   0.038792
     21      -0.040158   0.047283  -0.058889
     22      -0.144452   0.203733  -0.240110
     23       0.010828  -0.015409   0.018284
     24      -0.094281   0.155354   0.125679
     25      -0.377903   0.643080   0.515549
     26      -0.010870   0.018365   0.015383
     27       0.169965  -0.002444  -0.183371
     28      -0.162293  -0.004909   0.175462
     29      -0.004938  -0.000026   0.005522
     30       0.325592   0.651953  -0.521608
     31       0.096903   0.188169  -0.151583
     32      -0.010427  -0.020715   0.017240
     33       0.000188   0.000192  -0.000007
     34      -0.000194   0.000189   0.000002
     35       0.000002  -0.000002  -0.000143
     36       0.130110   0.210434   0.230795
     37       0.043218   0.059505   0.067868
     38       0.009556   0.015560   0.017200
     39      -0.000091  -0.000010  -0.000082
     40       0.000174  -0.000097  -0.000051
     41      -0.000018  -0.000010  -0.000151
     42      -0.000019  -0.000137   0.000083
     43       0.000044  -0.000160  -0.000059
     44       0.000005   0.000000  -0.000148
     45      -0.000162  -0.000129   0.000023
     46       0.000063  -0.000015   0.000092
     47      -0.000021   0.000005  -0.000154
     48       0.000033   0.000035   0.000077
     49      -0.000020   0.000027   0.000034
     50       0.000017   0.000023   0.000115
     51       0.000019   0.000027  -0.000019
     52      -0.000036   0.000033  -0.000082
     53       0.000023  -0.000018   0.000116
     54       0.000030   0.000023  -0.000070
     55      -0.000031   0.000023   0.000059
     56      -0.000016  -0.000001   0.000112


-----------
IR SPECTRUM
-----------

 Mode    freq (cm**-1)   T**2         TX         TY         TZ
-------------------------------------------------------------------
   7:        83.64    0.454299  ( -0.066536  -0.670714   0.003761)
   8:        86.50    0.466229  (  0.662347  -0.061111   0.154244)
   9:        99.06    1.640434  (  0.106710  -0.025875  -1.276079)
  10:       117.08    0.008832  (  0.086320   0.026119   0.026435)
  11:       118.06    0.020368  ( -0.050513   0.104283   0.083314)
  12:       296.75   16.759869  ( -0.086593   0.082091   4.092143)
  13:       317.47    3.743161  (  1.495630  -1.226259   0.050415)
  14:       317.94    3.711591  (  1.216524   1.493857   0.007081)
  15:       408.66    0.007383  (  0.018258  -0.070389   0.045777)
  16:       414.03    1.070147  (  0.788561   0.669564  -0.001751)
  17:       415.26    1.081265  (  0.666572  -0.796987   0.041929)
  18:       486.58    0.014127  (  0.067132   0.096443  -0.017858)
  19:       487.37    0.005619  (  0.045542  -0.017622   0.056870)
  20:       502.06   12.963095  (  0.082353  -0.042745  -3.599234)
  21:       555.33   16.049175  (  1.364040   3.766766   0.006753)
  22:       556.87   16.321402  (  3.817990  -1.319598   0.054918)
  23:       617.66    4.074566  ( -1.404994  -1.449049  -0.028585)
  24:       618.11    4.298976  ( -1.489163   1.440296  -0.083163)
  25:       650.18    7.931288  (  0.047412  -0.105927  -2.813862)
  26:       655.05   47.322821  (  6.078507  -3.205210   0.318130)
  27:       655.27   47.569009  (  3.192996   6.112942   0.075659)
  28:       691.47  127.028624  (  0.356451  -0.189193 -11.263471)
  29:       781.34   11.371744  (  0.051313  -0.079999  -3.370862)
  30:       856.49    4.863826  (  1.932147   1.063192   0.016055)
  31:       856.73    4.770467  (  1.058467  -1.909931   0.047733)
  32:       943.07    1.274301  (  0.899290  -0.679381   0.063417)
  33:       943.41    1.316029  (  0.694803   0.912794  -0.009259)
  34:       950.47    1.346701  (  0.056762  -0.054778  -1.157790)
  35:       983.33    4.623151  ( -0.049060   0.049705   2.149017)
  36:      1023.31    1.762195  ( -0.481797  -1.236468   0.034849)
  37:      1023.45    1.761310  ( -1.234224   0.483089  -0.068027)
  38:      1032.30    3.116168  ( -0.059088   0.059662   1.763269)
  39:      1167.38    0.009447  (  0.055199  -0.079803   0.005639)
  40:      1167.69    0.010033  (  0.082328   0.055523  -0.013135)
  41:      1175.16    0.004334  (  0.006026   0.003183   0.065480)
  42:      1362.30    0.000044  (  0.006561   0.000297  -0.000963)
  43:      1407.34    0.001552  (  0.001528  -0.002663   0.039282)
  44:      1475.24    6.174461  ( -1.437968  -2.026446   0.015020)
  45:      1475.56    6.073971  (  2.010952  -1.422153   0.086730)
  46:      1537.82    0.157934  (  0.363880  -0.158240   0.022036)
  47:      1538.00    0.158657  ( -0.150760  -0.368421   0.013931)
  48:      1954.09  844.194488  ( 26.495682  11.917763   0.374520)
  49:      1954.13  845.943456  (-11.913195  26.517210  -0.925646)
  50:      2013.90  996.574737  (  0.754097  -0.755485 -31.550520)
  51:      3160.30    1.615807  ( -0.000878   0.262416  -1.243762)
  52:      3161.11    3.326245  (  1.636930  -0.803788  -0.025106)
  53:      3161.46    3.328182  ( -0.839269  -1.614364  -0.132813)
  54:      3177.70    8.720548  ( -2.059363   2.116375  -0.023011)
  55:      3178.20    8.807994  ( -2.119893  -2.076969   0.015723)
  56:      3183.85    2.388362  (  0.078037  -0.027066   1.543224)

The first frequency considered to be a vibration is 7
The total number of vibrations considered is 50


--------------------------
THERMOCHEMISTRY AT 298.15K
--------------------------

Temperature         ... 298.15 K
Pressure            ... 1.00 atm
Total Mass          ... 214.14 AMU

Throughout the following assumptions are being made:
  (1) The electronic state is orbitally nondegenerate
  (2) There are no thermally accessible electronically excited states
  (3) Hindered rotations indicated by low frequency modes are not
      treated as such but are treated as vibrations and this may
      cause some error
  (4) All equations used are the standard statistical mechanics
      equations for an ideal gas
  (5) All vibrations are strictly harmonic

freq.      83.64  E(vib)   ...       0.48 
freq.      86.50  E(vib)   ...       0.48 
freq.      99.06  E(vib)   ...       0.46 
freq.     117.08  E(vib)   ...       0.44 
freq.     118.06  E(vib)   ...       0.44 
freq.     296.75  E(vib)   ...       0.27 
freq.     317.47  E(vib)   ...       0.25 
freq.     317.94  E(vib)   ...       0.25 
freq.     408.66  E(vib)   ...       0.19 
freq.     414.03  E(vib)   ...       0.19 
freq.     415.26  E(vib)   ...       0.19 
freq.     486.58  E(vib)   ...       0.15 
freq.     487.37  E(vib)   ...       0.15 
freq.     502.06  E(vib)   ...       0.14 
freq.     555.33  E(vib)   ...       0.12 
freq.     556.87  E(vib)   ...       0.12 
freq.     617.66  E(vib)   ...       0.09 
freq.     618.11  E(vib)   ...       0.09 
freq.     650.18  E(vib)   ...       0.08 
freq.     655.05  E(vib)   ...       0.08 
freq.     655.27  E(vib)   ...       0.08 
freq.     691.47  E(vib)   ...       0.07 
freq.     781.34  E(vib)   ...       0.05 
freq.     856.49  E(vib)   ...       0.04 
freq.     856.73  E(vib)   ...       0.04 
freq.     943.07  E(vib)   ...       0.03 
freq.     943.41  E(vib)   ...       0.03 
freq.     950.47  E(vib)   ...       0.03 
freq.     983.33  E(vib)   ...       0.02 
freq.    1023.31  E(vib)   ...       0.02 
freq.    1023.45  E(vib)   ...       0.02 
freq.    1032.30  E(vib)   ...       0.02 
freq.    1167.38  E(vib)   ...       0.01 
freq.    1167.69  E(vib)   ...       0.01 
freq.    1175.16  E(vib)   ...       0.01 
freq.    1362.30  E(vib)   ...       0.01 
freq.    1407.34  E(vib)   ...       0.00 
freq.    1475.24  E(vib)   ...       0.00 
freq.    1475.56  E(vib)   ...       0.00 
freq.    1537.82  E(vib)   ...       0.00 
freq.    1538.00  E(vib)   ...       0.00 
freq.    1954.09  E(vib)   ...       0.00 
freq.    1954.13  E(vib)   ...       0.00 
freq.    2013.90  E(vib)   ...       0.00 
freq.    3160.30  E(vib)   ...       0.00 
freq.    3161.11  E(vib)   ...       0.00 
freq.    3161.46  E(vib)   ...       0.00 
freq.    3177.70  E(vib)   ...       0.00 
freq.    3178.20  E(vib)   ...       0.00 
freq.    3183.85  E(vib)   ...       0.00 

------------
INNER ENERGY
------------

The inner energy is: U= E(el) + E(ZPE) + E(vib) + E(rot) + E(trans)
    E(el)   - is the total energy from the electronic structure calculation
              = E(kin-el) + E(nuc-el) + E(el-el) + E(nuc-nuc)
    E(ZPE)  - the the zero temperature vibrational energy from the frequency calculation
    E(vib)  - the the finite temperature correction to E(ZPE) due to population
              of excited vibrational states
    E(rot)  - is the rotational thermal energy
    E(trans)- is the translational thermal energy

Summary of contributions to the inner energy U:
Electronic energy                ...  -1616.72502974 Eh
Zero point energy                ...      0.12711154 Eh      79.76 kcal/mol
Thermal vibrational correction   ...      0.00823769 Eh       5.17 kcal/mol
Thermal rotational correction    ...      0.00141627 Eh       0.89 kcal/mol
Thermal translational correction ...      0.00141627 Eh       0.89 kcal/mol
-----------------------------------------------------------------------
Total thermal energy                  -1616.58684797 Eh


Summary of corrections to the electronic energy:
(perhaps to be used in another calculation)
Total thermal correction                  0.01107023 Eh       6.95 kcal/mol
Non-thermal (ZPE) correction              0.12711154 Eh      79.76 kcal/mol
-----------------------------------------------------------------------
Total correction                          0.13818177 Eh      86.71 kcal/mol


--------
ENTHALPY
--------

The enthalpy is H = U + kB*T
                kB is Boltzmann's constant
Total free energy                 ...  -1616.58684797 Eh 
Thermal Enthalpy correction       ...      0.00094421 Eh       0.59 kcal/mol
-----------------------------------------------------------------------
Total Enthalpy                    ...  -1616.58590376 Eh


Note: Only C1 symmetry has been detected, increase convergence thresholds 
      if your molecule has a higher symmetry. Symmetry factor of 1.0 is   
      used for the rotational entropy correction. 
 

Note: Rotational entropy computed according to Herzberg 
Infrared and Raman Spectra, Chapter V,1, Van Nostrand Reinhold, 1945 
Point Group:  C1, Symmetry Number:   1  
Rotational constants in cm-1:     0.031640     0.024654     0.024638 

Vibrational entropy computed according to the QRRHO of S. Grimme
Chem.Eur.J. 2012 18 9955


-------
ENTROPY
-------

The entropy contributions are T*S = T*(S(el)+S(vib)+S(rot)+S(trans))
     S(el)   - electronic entropy
     S(vib)  - vibrational entropy
     S(rot)  - rotational entropy
     S(trans)- translational entropy
The entropies will be listed as mutliplied by the temperature to get
units of energy

Electronic entropy                ...      0.00000000 Eh      0.00 kcal/mol
Vibrational entropy               ...      0.01396099 Eh      8.76 kcal/mol
Rotational entropy                ...      0.01463753 Eh      9.19 kcal/mol
Translational entropy             ...      0.01994970 Eh     12.52 kcal/mol
-----------------------------------------------------------------------
Final entropy term                ...      0.04854822 Eh     30.46 kcal/mol

In case the symmetry of your molecule has not been determined correctly
or in case you have a reason to use a different symmetry number we print 
out the resulting rotational entropy values for sn=1,12 :
 --------------------------------------------------------
|  sn= 1 | S(rot)=       0.01463753 Eh      9.19 kcal/mol|
|  sn= 2 | S(rot)=       0.01398307 Eh      8.77 kcal/mol|
|  sn= 3 | S(rot)=       0.01360024 Eh      8.53 kcal/mol|
|  sn= 4 | S(rot)=       0.01332862 Eh      8.36 kcal/mol|
|  sn= 5 | S(rot)=       0.01311793 Eh      8.23 kcal/mol|
|  sn= 6 | S(rot)=       0.01294578 Eh      8.12 kcal/mol|
|  sn= 7 | S(rot)=       0.01280024 Eh      8.03 kcal/mol|
|  sn= 8 | S(rot)=       0.01267416 Eh      7.95 kcal/mol|
|  sn= 9 | S(rot)=       0.01256295 Eh      7.88 kcal/mol|
|  sn=10 | S(rot)=       0.01246347 Eh      7.82 kcal/mol|
|  sn=11 | S(rot)=       0.01237348 Eh      7.76 kcal/mol|
|  sn=12 | S(rot)=       0.01229133 Eh      7.71 kcal/mol|
 --------------------------------------------------------


-------------------
GIBBS FREE ENERGY
-------------------

The Gibbs free energy is G = H - T*S

Total enthalpy                    ...  -1616.58590376 Eh 
Total entropy correction          ...     -0.04854822 Eh    -30.46 kcal/mol
-----------------------------------------------------------------------
Final Gibbs free energy         ...  -1616.63445197 Eh

For completeness - the Gibbs free energy minus the electronic energy
G-E(el)                           ...      0.09057777 Eh     56.84 kcal/mol


Timings for individual modules:

Sum of individual times         ...      852.051 sec (=  14.201 min)
GTO integral calculation        ...       11.094 sec (=   0.185 min)   1.3 %
SCF iterations                  ...      275.290 sec (=   4.588 min)  32.3 %
SCF Gradient evaluation         ...      120.571 sec (=   2.010 min)  14.2 %
Geometry relaxation             ...        5.057 sec (=   0.084 min)   0.6 %
Analytical frequency calculation...      440.039 sec (=   7.334 min)  51.6 %
                             ****ORCA TERMINATED NORMALLY****
TOTAL RUN TIME: 0 days 0 hours 14 minutes 17 seconds 581 msec
