
                                 *****************
                                 * O   R   C   A *
                                 *****************

           --- An Ab Initio, DFT and Semiempirical electronic structure package ---

                  #######################################################
                  #                        -***-                        #
                  #          Department of theory and spectroscopy      #
                  #               Directorship: Frank Neese             #
                  #        Max Planck Institute fuer Kohlenforschung    #
                  #                Kaiser Wilhelm Platz 1               #
                  #                 D-45470 Muelheim/Ruhr               #
                  #                      Germany                        #
                  #                                                     #
                  #                  All rights reserved                #
                  #                        -***-                        #
                  #######################################################


                         Program Version 4.2.1 -  RELEASE  -


 With contributions from (in alphabetic order):
   Daniel Aravena         : Magnetic Suceptibility
   Michael Atanasov       : Ab Initio Ligand Field Theory (pilot matlab implementation)
   Alexander A. Auer      : GIAO ZORA, VPT2
   Ute Becker             : Parallelization
   Giovanni Bistoni       : ED, misc. LED, open-shell LED, HFLD
   Martin Brehm           : Molecular dynamics
   Dmytro Bykov           : SCF Hessian
   Vijay G. Chilkuri      : MRCI spin determinant printing, contributions to CSF-ICE
   Dipayan Datta          : RHF DLPNO-CCSD density
   Achintya Kumar Dutta   : EOM-CC, STEOM-CC
   Dmitry Ganyushin       : Spin-Orbit,Spin-Spin,Magnetic field MRCI
   Miquel Garcia          : C-PCM Hessian, Gaussian charge scheme
   Yang Guo               : DLPNO-NEVPT2, CIM, IAO-localization
   Andreas Hansen         : Spin unrestricted coupled pair/coupled cluster methods
   Benjamin Helmich-Paris : CASSCF linear response (MC-RPA)
   Lee Huntington         : MR-EOM, pCC
   Robert Izsak           : Overlap fitted RIJCOSX, COSX-SCS-MP3, EOM
   Christian Kollmar      : KDIIS, OOCD, Brueckner-CCSD(T), CCSD density
   Simone Kossmann        : Meta GGA functionals, TD-DFT gradient, OOMP2, MP2 Hessian
   Martin Krupicka        : AUTO-CI
   Lucas Lang             : DCDCAS
   Dagmar Lenk            : GEPOL surface, SMD
   Dimitrios Liakos       : Extrapolation schemes; Compound Job, initial MDCI parallelization
   Dimitrios Manganas     : Further ROCIS development; embedding schemes
   Dimitrios Pantazis     : SARC Basis sets
   Taras Petrenko         : DFT Hessian,TD-DFT gradient, ASA, ECA, R-Raman, ABS, FL, XAS/XES, NRVS
   Peter Pinski           : DLPNO-MP2, DLPNO-MP2 Gradient
   Christoph Reimann      : Effective Core Potentials
   Marius Retegan         : Local ZFS, SOC
   Christoph Riplinger    : Optimizer, TS searches, QM/MM, DLPNO-CCSD(T), (RO)-DLPNO pert. Triples
   Tobias Risthaus        : Range-separated hybrids, TD-DFT gradient, RPA, STAB
   Michael Roemelt        : Original ROCIS implementation
   Masaaki Saitow         : Open-shell DLPNO-CCSD energy and density
   Barbara Sandhoefer     : DKH picture change effects
   Avijit Sen             : IP-ROCIS
   Kantharuban Sivalingam : CASSCF convergence, NEVPT2, FIC-MRCI
   Bernardo de Souza      : ESD, SOC TD-DFT
   Georgi Stoychev        : AutoAux, RI-MP2 NMR
   Willem Van den Heuvel  : Paramagnetic NMR
   Boris Wezisla          : Elementary symmetry handling
   Frank Wennmohs         : Technical directorship


 We gratefully acknowledge several colleagues who have allowed us to
 interface, adapt or use parts of their codes:
   Stefan Grimme, W. Hujo, H. Kruse,             : VdW corrections, initial TS optimization,
                  C. Bannwarth                     DFT functionals, gCP, sTDA/sTD-DF
   Ed Valeev, F. Pavosevic, A. Kumar             : LibInt (2-el integral package), F12 methods
   Garnet Chan, S. Sharma, J. Yang, R. Olivares  : DMRG
   Ulf Ekstrom                                   : XCFun DFT Library
   Mihaly Kallay                                 : mrcc  (arbitrary order and MRCC methods)
   Andreas Klamt, Michael Diedenhofen            : otool_cosmo (COSMO solvation model)
   Jiri Pittner, Ondrej Demel                    : Mk-CCSD
   Frank Weinhold                                : gennbo (NPA and NBO analysis)
   Christopher J. Cramer and Donald G. Truhlar   : smd solvation model
   Lars Goerigk                                  : TD-DFT with DH, B97 family of functionals
   V. Asgeirsson, H. Jonsson                     : NEB implementation
   FAccTs GmbH                                   : IRC, NEB, NEB-TS, Multilevel, MM, QM/MM, CI optimization
   S Lehtola, MJT Oliveira, MAL Marques          : LibXC Library


 Your calculation uses the libint2 library for the computation of 2-el integrals
 For citations please refer to: http://libint.valeyev.net

 Your ORCA version has been built with support for libXC version: 4.2.3
 For citations please refer to: https://tddft.org/programs/libxc/

 This ORCA versions uses:
   CBLAS   interface :  Fast vector & matrix operations
   LAPACKE interface :  Fast linear algebra routines
   SCALAPACK package :  Parallel linear algebra routines


Your calculation utilizes the geometrical counterpoise correction gCP
Please cite in your paper:
H.Kruse, S. Grimme J.Chem.Phys., 136, (2012), 154101 
   

Your calculation utilizes the atom-pairwise dispersion correction
based on tight binding partial charges (D4)
Cite in your paper:
E.Caldeweyher, C.Bannwarth, S.Grimme, J.Chem.Phys., (2017), 147, 034112.
E.Caldeweyher, S.Ehlert, A.Hansen, H.Neugebauer, S.Grimme, J.Chem.Phys., (2018), in progress.
   

----- Orbital basis set information -----
Your calculation utilizes the basis: def2-SVP
   F. Weigend and R. Ahlrichs, Phys. Chem. Chem. Phys. 7, 3297 (2005).

----- AuxJ basis set information -----
Your calculation utilizes the auxiliary basis: def2/J
   F. Weigend, Phys. Chem. Chem. Phys. 8, 1057 (2006).

================================================================================
                                        WARNINGS
                       Please study these warnings very carefully!
================================================================================


WARNING: Geometry Optimization
  ===> : Switching off AutoStart
         For restart on a previous wavefunction, please use MOREAD

INFO   : the flag for use of LIBINT has been found!

================================================================================
                                       INPUT FILE
================================================================================
NAME = BF3.inp
|  1> ! revPBE D4 gCP(DFT/SVP) def2-SVP Opt Freq TightOpt TightSCF Grid4 FinalGrid5 LargePrint
|  2> 
|  3> %pal
|  4>  nprocs 4
|  5> end
|  6> 
|  7> *xyz 0 1
|  8>   B      0.008024    1.967276    0.000008
|  9>   F      1.157843    1.744483    0.330357
| 10>   F     -0.565118    1.207757   -0.758604
| 11>   F     -0.568604    2.949606    0.428239
| 12> *
| 13> 
| 14>                          ****END OF INPUT****
================================================================================

                       *****************************
                       * Geometry Optimization Run *
                       *****************************

Geometry optimization settings:
Update method            Update   .... BFGS
Choice of coordinates    CoordSys .... Z-matrix Internals
Initial Hessian          InHess   .... Almoef's Model

Convergence Tolerances:
Energy Change            TolE     ....  1.0000e-06 Eh
Max. Gradient            TolMAXG  ....  1.0000e-04 Eh/bohr
RMS Gradient             TolRMSG  ....  3.0000e-05 Eh/bohr
Max. Displacement        TolMAXD  ....  1.0000e-03 bohr
RMS Displacement         TolRMSD  ....  6.0000e-04 bohr
Strict Convergence                ....  False
------------------------------------------------------------------------------
                        ORCA OPTIMIZATION COORDINATE SETUP
------------------------------------------------------------------------------

The optimization will be done in new redundant internal coordinates
Making redundant internal coordinates   ...  (new redundants) done
Evaluating the initial hessian          ...  (Almloef) done
Evaluating the coordinates              ...  done
Calculating the B-matrix                .... done
Calculating the G-matrix                .... done
Diagonalizing the G-matrix              .... done
The first mode is                       ....    1
The number of degrees of freedom        ....    6

    -----------------------------------------------------------------
                    Redundant Internal Coordinates


    -----------------------------------------------------------------
         Definition                    Initial Value    Approx d2E/dq
    -----------------------------------------------------------------
      1. B(F   1,B   0)                  1.2169         1.137498   
      2. B(F   2,B   0)                  1.2169         1.137495   
      3. B(F   3,B   0)                  1.2169         1.137493   
      4. A(F   1,B   0,F   3)          119.9992         0.540681   
      5. A(F   2,B   0,F   3)          120.0019         0.540681   
      6. A(F   1,B   0,F   2)          119.9989         0.540681   
      7. I(F   1,F   3,F   2,B   0)     -0.0024         0.199266   
    -----------------------------------------------------------------

Number of atoms                         .... 4
Number of degrees of freedom            .... 7

         *************************************************************
         *                GEOMETRY OPTIMIZATION CYCLE   1            *
         *************************************************************
---------------------------------
CARTESIAN COORDINATES (ANGSTROEM)
---------------------------------
  B      0.008024    1.967276    0.000008
  F      1.157843    1.744483    0.330357
  F     -0.565118    1.207757   -0.758604
  F     -0.568604    2.949606    0.428239

----------------------------
CARTESIAN COORDINATES (A.U.)
----------------------------
  NO LB      ZA    FRAG     MASS         X           Y           Z
   0 B     5.0000    0    10.810    0.015163    3.717613    0.000015
   1 F     9.0000    0    18.998    2.188006    3.296595    0.624284
   2 F     9.0000    0    18.998   -1.067918    2.282330   -1.433554
   3 F     9.0000    0    18.998   -1.074506    5.573948    0.809254

--------------------------------
INTERNAL COORDINATES (ANGSTROEM)
--------------------------------
 B      0   0   0     0.000000000000     0.00000000     0.00000000
 F      1   0   0     1.216902179886     0.00000000     0.00000000
 F      1   2   0     1.216903048755   119.99887299     0.00000000
 F      1   2   3     1.216903393308   119.99920473   180.00275129

---------------------------
INTERNAL COORDINATES (A.U.)
---------------------------
 B      0   0   0     0.000000000000     0.00000000     0.00000000
 F      1   0   0     2.299611851756     0.00000000     0.00000000
 F      1   2   0     2.299613493681   119.99887299     0.00000000
 F      1   2   3     2.299614144792   119.99920473   180.00275129

---------------------
BASIS SET INFORMATION
---------------------
There are 2 groups of distinct atoms

 Group   1 Type B   : 7s4p1d contracted to 3s2p1d pattern {511/31/1}
 Group   2 Type F   : 7s4p1d contracted to 3s2p1d pattern {511/31/1}

Atom   0B    basis set group =>   1
Atom   1F    basis set group =>   2
Atom   2F    basis set group =>   2
Atom   3F    basis set group =>   2

-------------------------
BASIS SET IN INPUT FORMAT
-------------------------

 # Basis set for element : B 
 NewGTO B 
 S 5 
   1     839.3183008600     -0.0056288836
   2     126.2646484300     -0.0418327946
   3      28.6206007630     -0.1841748812
   4       7.8793722710     -0.4683965503
   5       2.4088857172     -0.4445793088
 S 1 
   1       0.2510510904      1.0000000000
 S 1 
   1       0.0836488661      1.0000000000
 P 3 
   1       6.0332223619     -0.0540325004
   2       1.2499157866     -0.3019403439
   3       0.3387167635     -0.7717079166
 P 1 
   1       0.0964156324      1.0000000000
 D 1 
   1       0.5000000000      1.0000000000
  end;

 # Basis set for element : F 
 NewGTO F 
 S 5 
   1    2894.8325990000     -0.0053493212
   2     435.4193912000     -0.0399677344
   3      98.8433288660     -0.1794126179
   4      27.4851980010     -0.4683246868
   5       8.5405498171     -0.4472416053
 S 1 
   1       1.0654578038      1.0000000000
 S 1 
   1       0.3324734675      1.0000000000
 P 3 
   1      22.6966339240     -0.0647821482
   2       4.9872339257     -0.3403578536
   3       1.3491613954     -0.7348581537
 P 1 
   1       0.3482988198      1.0000000000
 D 1 
   1       1.4000000000      1.0000000000
  end;

---------------------------------
AUXILIARY/J BASIS SET INFORMATION
---------------------------------
There are 2 groups of distinct atoms

 Group   1 Type B   : 12s5p4d2f1g contracted to 6s4p3d1f1g pattern {711111/2111/211/2/1}
 Group   2 Type F   : 12s5p4d2f1g contracted to 6s4p3d1f1g pattern {711111/2111/211/2/1}

Atom   0B    basis set group =>   1
Atom   1F    basis set group =>   2
Atom   2F    basis set group =>   2
Atom   3F    basis set group =>   2

-------------------------------------
AUXILIARY/J BASIS SET IN INPUT FORMAT
-------------------------------------

 # Auxiliary/J basis set for element : B 
 NewAuxJGTO B 
 S 7 
   1    1322.2016723000      0.0130721780
   2     458.2370653000      0.0281065289
   3     168.0023641000      0.0968125842
   4      64.9577690000      0.2258335225
   5      26.3871856000      0.3821491110
   6      11.2108611000      0.3266991672
   7       4.9554460000      0.0770367109
 S 1 
   1       2.2652825000     -1.0000000000
 S 1 
   1       1.0638086000      1.0000000000
 S 1 
   1       0.5095187000      1.0000000000
 S 1 
   1       0.2469859000      1.0000000000
 S 1 
   1       0.1202089000      1.0000000000
 P 2 
   1       9.3560736000     -0.5615847160
   2       3.9743131000     -0.4920798837
 P 1 
   1       1.6645147000      1.0000000000
 P 1 
   1       0.6913035000     -1.0000000000
 P 1 
   1       0.2863135000      1.0000000000
 D 2 
   1       2.1120313000      0.3924108444
   2       0.7780769000      0.6972711530
 D 1 
   1       0.3277101000      1.0000000000
 D 1 
   1       0.1449465000      1.0000000000
 F 2 
   1       1.0582718000      0.7745907102
   2       0.4010000000      0.3199796706
 G 1 
   1       0.6514300000     -1.0000000000
  end;

 # Auxiliary/J basis set for element : F 
 NewAuxJGTO F 
 S 7 
   1    3514.9201549000      0.0176189594
   2    1231.2458815000      0.0358663858
   3     454.1367336000      0.1239867649
   4     175.8376258000      0.2758620517
   5      71.2081775000      0.4252764982
   6      30.0316883000      0.2651963387
   7      13.1259023000     -0.0078514564
 S 1 
   1       5.9126861000     -1.0000000000
 S 1 
   1       2.7284431000      1.0000000000
 S 1 
   1       1.2813993000      1.0000000000
 S 1 
   1       0.6082793000      1.0000000000
 S 1 
   1       0.2897894000      1.0000000000
 P 2 
   1      49.3740409000     -0.8404235528
   2      13.4874956000     -0.2331250081
 P 1 
   1       3.9664900000      1.0000000000
 P 1 
   1       1.2226629000     -1.0000000000
 P 1 
   1       0.3830317000      1.0000000000
 D 2 
   1      29.9719140000     -0.2160273306
   2       6.7860915000     -0.8915140390
 D 1 
   1       1.8137313000     -1.0000000000
 D 1 
   1       0.5157840000     -1.0000000000
 F 2 
   1       2.8301877000      0.5762078303
   2       0.9155962000      0.5762078303
 G 1 
   1       1.6097500000     -1.0000000000
  end;



           ************************************************************
           *        Program running with 4 parallel MPI-processes     *
           *              working on a common directory               *
           ************************************************************
------------------------------------------------------------------------------
                           ORCA GTO INTEGRAL CALCULATION
                           -- RI-GTO INTEGRALS CHOSEN --
------------------------------------------------------------------------------

                         BASIS SET STATISTICS AND STARTUP INFO

Gaussian basis set:
 # of primitive gaussian shells          ...   48
 # of primitive gaussian functions       ...   96
 # of contracted shells                  ...   24
 # of contracted basis functions         ...   56
 Highest angular momentum                ...    2
 Maximum contraction depth               ...    5
Auxiliary gaussian basis set:
 # of primitive gaussian shells          ...   96
 # of primitive gaussian functions       ...  280
 # of contracted shells                  ...   60
 # of contracted aux-basis functions     ...  196
 Highest angular momentum                ...    4
 Maximum contraction depth               ...    7
Ratio of auxiliary to basis functions    ...  3.50
Integral package used                  ... LIBINT
 One Electron integrals                  ... done
 Ordering auxiliary basis shells         ... done
 Integral threshhold             Thresh  ...  2.500e-11
 Primitive cut-off               TCut    ...  2.500e-12
 Pre-screening matrix                    ... done
 Shell pair data                         ... 
 Ordering of the shell pairs             ... done (   0.000 sec) 297 of 300 pairs
 Determination of significant pairs      ... done (   0.000 sec)
 Creation of shell pair data             ... done (   0.000 sec)
 Storage of shell pair data              ... done (   0.007 sec)
 Shell pair data done in (   0.007 sec)
 Computing two index integrals           ... done
 Cholesky decomposition of the V-matrix  ... done


Timings:
 Total evaluation time                   ...   0.249 sec (  0.004 min)
 One electron matrix time                ...   0.024 sec (  0.000 min) =  9.5%
 Schwartz matrix evaluation time         ...   0.194 sec (  0.003 min) = 77.8%
 Two index repulsion integral time       ...   0.004 sec (  0.000 min) =  1.4%
 Cholesky decomposition of V             ...   0.002 sec (  0.000 min) =  0.6%
 Three index repulsion integral time     ...   0.000 sec (  0.000 min) =  0.0%



           ************************************************************
           *        Program running with 4 parallel MPI-processes     *
           *              working on a common directory               *
           ************************************************************
-------------------------------------------------------------------------------
                                 ORCA SCF
-------------------------------------------------------------------------------

------------
SCF SETTINGS
------------
Hamiltonian:
 Density Functional     Method          .... DFT(GTOs)
 Exchange Functional    Exchange        .... PBE
   PBE kappa parameter   XKappa         ....  1.245000
   PBE mue parameter    XMuePBE         ....  0.219520
 Correlation Functional Correlation     .... PBE
   PBE beta parameter  CBetaPBE         ....  0.066725
 LDA part of GGA corr.  LDAOpt          .... PW91-LDA
 Gradients option       PostSCFGGA      .... off
   Density functional embedding theory  .... OFF
   NL short-range parameter             ....  3.700000
 RI-approximation to the Coulomb term is turned on
   Number of auxiliary basis functions  .... 196


General Settings:
 Integral files         IntName         .... BF3
 Hartree-Fock type      HFTyp           .... RHF
 Total Charge           Charge          ....    0
 Multiplicity           Mult            ....    1
 Number of Electrons    NEL             ....   32
 Basis Dimension        Dim             ....   56
 Nuclear Repulsion      ENuc            ....    119.7140979291 Eh

Convergence Acceleration:
 DIIS                   CNVDIIS         .... on
   Start iteration      DIISMaxIt       ....    12
   Startup error        DIISStart       ....  0.200000
   # of expansion vecs  DIISMaxEq       ....     5
   Bias factor          DIISBfac        ....   1.050
   Max. coefficient     DIISMaxC        ....  10.000
 Newton-Raphson         CNVNR           .... off
 SOSCF                  CNVSOSCF        .... on
   Start iteration      SOSCFMaxIt      ....   150
   Startup grad/error   SOSCFStart      ....  0.003300
 Level Shifting         CNVShift        .... on
   Level shift para.    LevelShift      ....    0.2500
   Turn off err/grad.   ShiftErr        ....    0.0010
 Zerner damping         CNVZerner       .... off
 Static damping         CNVDamp         .... on
   Fraction old density DampFac         ....    0.7000
   Max. Damping (<1)    DampMax         ....    0.9800
   Min. Damping (>=0)   DampMin         ....    0.0000
   Turn off err/grad.   DampErr         ....    0.1000
 Fernandez-Rico         CNVRico         .... off

SCF Procedure:
 Maximum # iterations   MaxIter         ....   125
 SCF integral mode      SCFMode         .... Direct
   Integral package                     .... LIBINT
 Reset frequency        DirectResetFreq ....    20
 Integral Threshold     Thresh          ....  2.500e-11 Eh
 Primitive CutOff       TCut            ....  2.500e-12 Eh

Convergence Tolerance:
 Convergence Check Mode ConvCheckMode   .... Total+1el-Energy
 Convergence forced     ConvForced      .... 0
 Energy Change          TolE            ....  1.000e-08 Eh
 1-El. energy change                    ....  1.000e-05 Eh
 Orbital Gradient       TolG            ....  1.000e-05
 Orbital Rotation angle TolX            ....  1.000e-05
 DIIS Error             TolErr          ....  5.000e-07


Diagonalization of the overlap matrix:
Smallest eigenvalue                        ... 1.055e-02
Time for diagonalization                   ...    0.001 sec
Threshold for overlap eigenvalues          ... 1.000e-08
Number of eigenvalues below threshold      ... 0
Time for construction of square roots      ...    0.001 sec
Total time needed                          ...    0.001 sec

-------------------
DFT GRID GENERATION
-------------------

General Integration Accuracy     IntAcc      ...  4.670
Radial Grid Type                 RadialGrid  ... Gauss-Chebyshev
Angular Grid (max. acc.)         AngularGrid ... Lebedev-302
Angular grid pruning method      GridPruning ... 3 (G Style)
Weight generation scheme         WeightScheme... Becke
Basis function cutoff            BFCut       ...    1.0000e-11
Integration weight cutoff        WCut        ...    1.0000e-14
Grids for H and He will be reduced by one unit

# of grid points (after initial pruning)     ...  24944 (   0.0 sec)
# of grid points (after weights+screening)   ...  24499 (   0.0 sec)
nearest neighbour list constructed           ...    0.0 sec
Grid point re-assignment to atoms done       ...    0.0 sec
Grid point division into batches done        ...    0.1 sec
Reduced shell lists constructed in    0.2 sec

Total number of grid points                  ...    24499
Total number of batches                      ...      384
Average number of points per batch           ...       63
Average number of grid points per atom       ...     6125
Average number of shells per batch           ...    15.76 (65.68%)
Average number of basis functions per batch  ...    38.40 (68.58%)
Average number of large shells per batch     ...    14.15 (89.80%)
Average number of large basis fcns per batch ...    34.84 (90.71%)
Maximum spatial batch extension              ...  17.85, 24.39, 22.51 au
Average spatial batch extension              ...   0.95,  1.12,  1.18 au

Time for grid setup =    0.185 sec

------------------------------
INITIAL GUESS: MODEL POTENTIAL
------------------------------
Loading Hartree-Fock densities                     ... done
Calculating cut-offs                               ... done
Setting up the integral package                    ... done
Initializing the effective Hamiltonian             ... done
Starting the Coulomb interaction                   ... done (   0.0 sec)
Reading the grid                                   ... done
Mapping shells                                     ... done
Starting the XC term evaluation                    ... done (   0.0 sec)
  promolecular density results
     # of electrons  =     32.000035847
     EX              =    -34.101351099
     EC              =     -1.094344550
     EX+EC           =    -35.195695649
Transforming the Hamiltonian                       ... done (   0.0 sec)
Diagonalizing the Hamiltonian                      ... done (   0.0 sec)
Back transforming the eigenvectors                 ... done (   0.0 sec)
Now organizing SCF variables                       ... done
                      ------------------
                      INITIAL GUESS DONE (   0.3 sec)
                      ------------------
----------------------
INITIAL GUESS ORBITALS
----------------------
                      0         1         2         3         4         5   
                 -24.44816 -24.44816 -24.44805  -6.70626  -1.28151  -1.23473
                   2.00000   2.00000   2.00000   2.00000   2.00000   2.00000
                  --------  --------  --------  --------  --------  --------
  0B   1s        -0.000000 -0.000000 -0.000012 -0.987180  0.150594  0.000001
  0B   2s        -0.000430 -0.000168 -0.012782  0.070611  0.252392  0.000001
  0B   3s        -0.000194 -0.000076 -0.005774 -0.012125 -0.019007 -0.000000
  0B   1pz        0.000283 -0.000449 -0.000004  0.000000  0.000001 -0.129545
  0B   1px        0.000796  0.000091 -0.000028 -0.000000 -0.000012  0.011314
  0B   1py       -0.000075 -0.000714  0.000012 -0.000000  0.000001 -0.196848
  0B   2pz       -0.001731  0.002749  0.000022 -0.000000  0.000000 -0.000314
  0B   2px       -0.004875 -0.000560  0.000171  0.000000  0.000000  0.000027
  0B   2py        0.000461  0.004374 -0.000073  0.000000 -0.000000 -0.000477
  0B   1dz2      -0.000762  0.000783  0.000460 -0.003139 -0.014862 -0.013523
  0B   1dxz       0.000620  0.001803 -0.000520  0.003357  0.015898 -0.028923
  0B   1dyz      -0.001731  0.000193 -0.000718  0.005460  0.025853 -0.005102
  0B   1dx2y2     0.002427  0.000762 -0.000256  0.001158  0.005484 -0.009970
  0B   1dxy      -0.000829  0.002462  0.000320 -0.002290 -0.010845 -0.041067
  1F   1s         0.820874  0.098191  0.542420  0.000871  0.168362 -0.012288
  1F   2s        -0.033109 -0.003959 -0.021724  0.002174  0.343447 -0.025197
  1F   3s         0.016315  0.001988  0.014655 -0.014599  0.167848 -0.011235
  1F   1pz       -0.000431 -0.000109 -0.000158  0.000341  0.022277 -0.012179
  1F   1px       -0.001524 -0.000178 -0.000552  0.001188  0.077534 -0.004727
  1F   1py        0.000305 -0.000050  0.000108 -0.000230 -0.015023 -0.014945
  1F   2pz       -0.000327 -0.001264 -0.000995  0.002432 -0.002747  0.000897
  1F   2px       -0.001614 -0.000212 -0.003501  0.008466 -0.009563 -0.000520
  1F   2py        0.000513 -0.001722  0.000695 -0.001640  0.001853  0.001635
  1F   1dz2      -0.000016  0.000166 -0.000157 -0.000614 -0.003567 -0.000920
  1F   1dxz      -0.000047  0.000337  0.000177  0.000710  0.004085 -0.002391
  1F   1dyz       0.000138  0.000092 -0.000104 -0.000388 -0.001208 -0.000484
  1F   1dx2y2    -0.000131  0.000084  0.000350  0.001372  0.007146 -0.000931
  1F   1dxy      -0.000051  0.000493 -0.000126 -0.000478 -0.002753 -0.003092
  2F   1s        -0.460482  0.656821  0.578133  0.000871  0.168350 -0.210765
  2F   2s         0.018581 -0.026494 -0.023165  0.002174  0.343424 -0.432167
  2F   3s        -0.008944  0.013000  0.015359 -0.014599  0.167839 -0.192712
  2F   1pz       -0.000584  0.000806  0.000409 -0.000783 -0.051150  0.053370
  2F   1px       -0.000371  0.000661  0.000306 -0.000592 -0.038646  0.049219
  2F   1py       -0.000628  0.000775  0.000411 -0.000784 -0.051211  0.047963
  2F   2pz       -0.000591  0.000770  0.002357 -0.005586  0.006310  0.005895
  2F   2px        0.001028  0.001672  0.001717 -0.004220  0.004767  0.003593
  2F   2py       -0.001498  0.000101  0.002399 -0.005592  0.006318  0.006432
  2F   1dz2       0.000033 -0.000094  0.000073  0.000287  0.001019 -0.000287
  2F   1dxz       0.000274  0.000165  0.000199  0.000832  0.004708 -0.004923
  2F   1dyz      -0.000180 -0.000153  0.000277  0.001062  0.006170 -0.004272
  2F   1dx2y2     0.000342  0.000328 -0.000098 -0.000325 -0.001489 -0.000699
  2F   1dxy       0.000232 -0.000039  0.000262  0.001065  0.005099 -0.004030
  3F   1s        -0.302870 -0.732498  0.591110  0.000871  0.168349  0.223056
  3F   2s         0.012223  0.029551 -0.023689  0.002174  0.343422  0.457369
  3F   3s        -0.005837 -0.014388  0.015615 -0.014599  0.167839  0.203949
  3F   1pz        0.000266  0.000493 -0.000241  0.000442  0.028873  0.027634
  3F   1px       -0.000216 -0.000726  0.000320 -0.000596 -0.038882 -0.050503
  3F   1py        0.000523  0.001168 -0.000550  0.001015  0.066234  0.071565
  3F   2pz        0.001196  0.000053 -0.001366  0.003153 -0.003562  0.003933
  3F   2px        0.001368 -0.001370  0.001756 -0.004246  0.004796 -0.004010
  3F   2py        0.000912  0.000920 -0.003082  0.007233 -0.008171  0.008231
  3F   1dz2      -0.000184  0.000086 -0.000114 -0.000471 -0.002837 -0.003167
  3F   1dxz      -0.000088 -0.000124 -0.000169 -0.000689 -0.003033 -0.002043
  3F   1dyz      -0.000300  0.000107  0.000190  0.000715  0.004404  0.003106
  3F   1dx2y2     0.000296 -0.000253 -0.000197 -0.000753 -0.003670 -0.001595
  3F   1dxy      -0.000360  0.000053 -0.000285 -0.001170 -0.006276 -0.006163
                      6         7         8         9        10        11   
                  -1.23473  -0.62848  -0.61454  -0.61454  -0.57536  -0.50545
                   2.00000   2.00000   2.00000   2.00000   2.00000   2.00000
                  --------  --------  --------  --------  --------  --------
  0B   1s         0.000005  0.183003 -0.000014  0.000016  0.000005 -0.000002
  0B   2s         0.000007  0.398697 -0.000028  0.000031  0.000008 -0.000003
  0B   3s        -0.000001 -0.066838  0.000005 -0.000005 -0.000001  0.000001
  0B   1pz        0.070480  0.000004  0.159112  0.176759 -0.225493 -0.055639
  0B   1px        0.222624 -0.000042 -0.136802  0.332426  0.094595 -0.001451
  0B   1py       -0.033587  0.000014  0.317347  0.054681  0.153842 -0.080656
  0B   2pz        0.000171 -0.000000  0.007190  0.007989  0.044831 -0.046368
  0B   2px        0.000541 -0.000003 -0.006182  0.015023 -0.018808 -0.001216
  0B   2py       -0.000081  0.000000  0.014343  0.002472 -0.030583 -0.067222
  0B   1dz2       0.011893 -0.012247  0.004002  0.007156  0.000000 -0.026127
  0B   1dxz      -0.012295  0.013101  0.014278 -0.000889  0.000002 -0.051303
  0B   1dyz       0.027690  0.021303 -0.002011  0.012660  0.000002 -0.012678
  0B   1dx2y2    -0.040593  0.004520  0.010436 -0.015913  0.000000 -0.013260
  0B   1dxy       0.011158 -0.008937  0.015934  0.011017 -0.000000 -0.076321
  1F   1s        -0.250462 -0.065937 -0.026783  0.065414 -0.000001 -0.000078
  1F   2s        -0.513564 -0.136916 -0.053141  0.129790 -0.000003 -0.000174
  1F   3s        -0.229008 -0.174823 -0.097085  0.237106 -0.000003 -0.000967
  1F   1pz       -0.027338  0.093656  0.173074 -0.057941 -0.271637  0.274587
  1F   1px       -0.096998  0.325935  0.156829 -0.384098  0.113961  0.004110
  1F   1py        0.019572 -0.063147  0.157249  0.151252  0.185311  0.399959
  1F   2pz       -0.003078 -0.042069 -0.084817  0.013447  0.146803 -0.156628
  1F   2px       -0.010535 -0.146404 -0.058597  0.143687 -0.061589 -0.001568
  1F   2py        0.001966  0.028365 -0.088290 -0.068641 -0.100150 -0.228620
  1F   1dz2       0.003579 -0.005104  0.000905  0.006277 -0.005513  0.002473
  1F   1dxz      -0.003897  0.005839  0.008326 -0.003295 -0.009743  0.005103
  1F   1dyz       0.000358 -0.001562  0.001223  0.000899  0.004318  0.001127
  1F   1dx2y2    -0.006355  0.010093  0.005390 -0.008365  0.006112  0.001519
  1F   1dxy       0.002861 -0.003935  0.007192  0.007471  0.006657  0.007391
  2F   1s         0.135882 -0.065928 -0.043257 -0.055914 -0.000001  0.003991
  2F   2s         0.278622 -0.136898 -0.085827 -0.110941 -0.000003  0.008856
  2F   3s         0.124246 -0.174790 -0.156793 -0.202659 -0.000004  0.048470
  2F   1pz       -0.035469 -0.215002 -0.158492 -0.223498 -0.271639  0.173158
  2F   1px       -0.012996 -0.162464 -0.285567 -0.040543  0.113953 -0.070137
  2F   1py       -0.043998 -0.215253 -0.056723 -0.302660  0.185304  0.296900
  2F   2pz       -0.003697  0.096578  0.057864  0.084693  0.146804 -0.073212
  2F   2px       -0.004129  0.072980  0.131777 -0.004153 -0.061585  0.059482
  2F   2py       -0.002881  0.096691  0.003788  0.126691 -0.100146 -0.143866
  2F   1dz2       0.000432  0.001354 -0.000087  0.000883  0.012660 -0.001188
  2F   1dxz       0.000770  0.006716  0.009000  0.001933  0.002456 -0.000683
  2F   1dyz       0.004650  0.008828  0.002088  0.010349  0.002332 -0.005536
  2F   1dx2y2    -0.003202 -0.002066  0.006081 -0.006881  0.002676  0.004536
  2F   1dxy       0.001408  0.007122  0.006163  0.003164 -0.006837 -0.002557
  3F   1s         0.114597 -0.065923  0.070054 -0.009515  0.000000 -0.003912
  3F   2s         0.234977 -0.136889  0.138997 -0.018880  0.000001 -0.008679
  3F   3s         0.104783 -0.174774  0.253911 -0.034482  0.000004 -0.047502
  3F   1pz        0.025362  0.121357 -0.136067  0.146457 -0.271647  0.218844
  3F   1px       -0.008279 -0.163433  0.233191  0.170815  0.113958  0.083498
  3F   1py        0.042269  0.278388 -0.342867  0.109640  0.185307  0.269526
  3F   2pz        0.000940 -0.054514  0.048214 -0.074511  0.146807 -0.110791
  3F   2px       -0.003769  0.073416 -0.091461 -0.095107 -0.061586 -0.066842
  3F   2py        0.003696 -0.125053  0.126925 -0.050736 -0.100148 -0.121346
  3F   1dz2      -0.000164 -0.004075  0.004967  0.003185 -0.007146 -0.000101
  3F   1dxz      -0.000850 -0.004185  0.003318  0.000074  0.007287 -0.002093
  3F   1dyz       0.003950  0.006341 -0.006217  0.007055 -0.006650  0.004983
  3F   1dx2y2    -0.003575 -0.005137  0.003616 -0.007758 -0.008788 -0.005454
  3F   1dxy      -0.000660 -0.008896  0.009684  0.005294  0.000180 -0.001372
                     12        13        14        15        16        17   
                  -0.50545  -0.49094  -0.49093  -0.45432  -0.00668   0.01819
                   2.00000   2.00000   2.00000   2.00000   0.00000   0.00000
                  --------  --------  --------  --------  --------  --------
  0B   1s        -0.000001 -0.000000  0.000000  0.000001  0.000019  0.065194
  0B   2s         0.000001 -0.000000  0.000001  0.000001 -0.000000 -0.126607
  0B   3s        -0.000000  0.000000  0.000000  0.000001  0.000300  1.584775
  0B   1pz        0.025633  0.000003  0.000000 -0.000001 -0.574630  0.000117
  0B   1px        0.092580 -0.000007 -0.000002 -0.000003  0.241064 -0.000041
  0B   1py       -0.019354  0.000004  0.000000  0.000004  0.392018 -0.000080
  0B   2pz        0.021364  0.000001  0.000000  0.000003  0.419320 -0.000104
  0B   2px        0.077160 -0.000008 -0.000000 -0.000003 -0.175910  0.000045
  0B   2py       -0.016132  0.000007  0.000001  0.000004 -0.286062  0.000063
  0B   1dz2       0.020066  0.034792  0.031580 -0.000001  0.000006  0.027373
  0B   1dxz      -0.025963 -0.020129  0.031649  0.000001 -0.000007 -0.029278
  0B   1dyz       0.049925  0.022936 -0.009879 -0.000000 -0.000010 -0.047616
  0B   1dx2y2    -0.075303  0.029918 -0.014736  0.000003 -0.000002 -0.010097
  0B   1dxy       0.015373 -0.007382 -0.027884  0.000003  0.000005  0.019976
  1F   1s         0.004562  0.000000 -0.000000 -0.000001 -0.000014 -0.070747
  1F   2s         0.010122  0.000000 -0.000001 -0.000002 -0.000031 -0.159031
  1F   3s         0.055408 -0.000003 -0.000002 -0.000001 -0.000072 -0.390051
  1F   1pz       -0.075979  0.127313 -0.430114 -0.239263  0.213098 -0.024647
  1F   1px       -0.281093 -0.053386  0.180429  0.000703 -0.089416 -0.085618
  1F   1py        0.061467 -0.086895  0.293405 -0.351189 -0.145377  0.016624
  1F   2pz        0.030607 -0.076374  0.258025  0.146196 -0.185061  0.017715
  1F   2px        0.116037  0.032031 -0.108239 -0.000429  0.077647  0.061510
  1F   2py       -0.026484  0.052127 -0.176014  0.214587  0.126251 -0.011949
  1F   1dz2       0.002530  0.002144 -0.004750 -0.002935 -0.005473  0.003002
  1F   1dxz      -0.002781  0.002425 -0.008800 -0.005894 -0.009674 -0.003336
  1F   1dyz       0.001482 -0.000841  0.003969 -0.001345  0.004287 -0.001667
  1F   1dx2y2    -0.005443 -0.001232  0.005605 -0.001660  0.006067 -0.003903
  1F   1dxy       0.002061 -0.002011  0.005907 -0.008661  0.006610  0.002260
  2F   1s        -0.002212  0.000000  0.000000  0.000001 -0.000014 -0.070748
  2F   2s        -0.004908  0.000000  0.000000  0.000002 -0.000031 -0.159036
  2F   3s        -0.026868 -0.000001  0.000000 -0.000000 -0.000072 -0.390054
  2F   1pz       -0.070175  0.308811  0.325315  0.019704  0.213114  0.056460
  2F   1px       -0.415588 -0.129512 -0.136484 -0.348045 -0.089391  0.042705
  2F   1py        0.152609 -0.210719 -0.221933  0.242943 -0.145370  0.056604
  2F   2pz        0.025840 -0.185256 -0.195156 -0.012040 -0.185072 -0.040557
  2F   2px        0.226633  0.077694  0.081876  0.212664  0.077630 -0.030685
  2F   2py       -0.101437  0.126409  0.133138 -0.148446  0.126247 -0.040672
  2F   1dz2       0.000112 -0.008121 -0.008640 -0.000555  0.012569  0.000799
  2F   1dxz       0.005691 -0.002025 -0.001249  0.005419  0.002437 -0.003638
  2F   1dyz      -0.001121 -0.001219 -0.001854 -0.004273  0.002314 -0.005203
  2F   1dx2y2     0.005558 -0.001340 -0.002184  0.008233  0.002657  0.000237
  2F   1dxy       0.004048  0.004577  0.004486  0.002683 -0.006789 -0.001502
  3F   1s        -0.002351 -0.000000 -0.000000 -0.000001 -0.000014 -0.070748
  3F   2s        -0.005215  0.000000 -0.000000 -0.000003 -0.000032 -0.159036
  3F   3s        -0.028547  0.000004  0.000000  0.000001 -0.000073 -0.390046
  3F   1pz       -0.160986 -0.436141  0.104802  0.219525  0.213096 -0.031943
  3F   1px       -0.412579  0.183007 -0.043938  0.347369 -0.089391  0.042963
  3F   1py        0.017836  0.297513 -0.071482  0.108188 -0.145395 -0.073139
  3F   2pz        0.100505  0.261638 -0.062871 -0.134137 -0.185059  0.022956
  3F   2px        0.224172 -0.109782  0.026359 -0.212251  0.077631 -0.030871
  3F   2py        0.009411 -0.178481  0.042881 -0.066108  0.126261  0.052541
  3F   1dz2      -0.003554 -0.006356  0.002195  0.003491 -0.007095  0.002652
  3F   1dxz      -0.001732  0.006738 -0.001171  0.000475  0.007234  0.000072
  3F   1dyz      -0.002625 -0.006073  0.001387  0.005617 -0.006603 -0.004355
  3F   1dx2y2     0.003298 -0.008032  0.001803 -0.006574 -0.008724  0.001285
  3F   1dxy      -0.006805  0.000052 -0.000508  0.005979  0.000180  0.003950
                     18        19        20        21        22        23   
                   0.15251   0.15252   0.20375   0.37698   0.46283   0.46285
                   0.00000   0.00000   0.00000   0.00000   0.00000   0.00000
                  --------  --------  --------  --------  --------  --------
  0B   1s        -0.000002 -0.000001 -0.000007 -0.351194  0.000023 -0.000003
  0B   2s        -0.000008 -0.000002 -0.000048 -2.196921  0.000152 -0.000020
  0B   3s         0.000028 -0.000000  0.000032  1.233749 -0.000063  0.000009
  0B   1pz       -0.029605  0.051034  0.711055 -0.000042 -0.367647 -0.683332
  0B   1px       -0.088917 -0.006958 -0.298295 -0.000060 -1.171617  0.054061
  0B   1py        0.011283  0.079089 -0.485089  0.000038  0.181555 -1.034889
  0B   2pz        0.472767 -0.815136  0.901920 -0.000016 -0.127409 -0.236795
  0B   2px        1.419972  0.111097 -0.378365 -0.000035 -0.406034  0.018733
  0B   2py       -0.180191 -1.263166 -0.615299  0.000016  0.062921 -0.358618
  0B   1dz2      -0.004145  0.004462  0.000001 -0.096876  0.078746  0.090382
  0B   1dxz       0.003891  0.009895 -0.000001  0.103620 -0.082749  0.192139
  0B   1dyz      -0.009407  0.001470 -0.000002  0.168535  0.184122  0.034825
  0B   1dx2y2     0.013631  0.003745  0.000000  0.035727 -0.270496  0.065100
  0B   1dxy      -0.004153  0.013784  0.000001 -0.070695  0.073001  0.273697
  1F   1s        -0.070741 -0.005410  0.000000  0.048533 -0.078829  0.003500
  1F   2s        -0.131111 -0.010027 -0.000001  0.146965 -0.251247  0.011154
  1F   3s        -0.698718 -0.053438  0.000007  0.085156 -0.042099  0.001871
  1F   1pz        0.016181 -0.113700 -0.003130  0.077335 -0.085455  0.121175
  1F   1px        0.025861  0.002315  0.001314  0.269156 -0.315560  0.013665
  1F   1py        0.007808 -0.168089  0.002135 -0.052157  0.068770  0.169220
  1F   2pz       -0.000676  0.128425 -0.029797 -0.067904  0.059873 -0.105894
  1F   2px        0.031688  0.002046  0.012495 -0.236348  0.224340 -0.009658
  1F   2py       -0.020469  0.186994  0.020328  0.045801 -0.050179 -0.149285
  1F   1dz2       0.003337  0.000961  0.007881  0.007279 -0.020037 -0.010434
  1F   1dxz      -0.003962  0.001115  0.013928 -0.008524  0.021170 -0.023676
  1F   1dyz       0.000326  0.000348 -0.006172  0.007668 -0.001614 -0.005114
  1F   1dx2y2    -0.006196 -0.000074 -0.008736 -0.018673  0.034735 -0.007946
  1F   1dxy       0.002442  0.002270 -0.009516  0.005723 -0.016449 -0.032679
  2F   1s         0.040055 -0.058559  0.000000  0.048539  0.042439  0.066519
  2F   2s         0.074240 -0.108530 -0.000001  0.146986  0.135264  0.212012
  2F   3s         0.395616 -0.578397  0.000007  0.085149  0.022643  0.035532
  2F   1pz        0.001868 -0.019473 -0.003130 -0.177597 -0.120227 -0.170468
  2F   1px        0.144911  0.083437  0.001312 -0.134171  0.059131 -0.224477
  2F   1py       -0.086369 -0.079858  0.002135 -0.177824 -0.212584 -0.111824
  2F   2pz        0.020545 -0.011328 -0.029793  0.155945  0.086837  0.120316
  2F   2px       -0.144877 -0.118268  0.012502  0.117813 -0.066279  0.175056
  2F   2py        0.119202  0.056130  0.020330  0.156142  0.168041  0.068704
  2F   1dz2       0.000159 -0.000469 -0.018096 -0.005298 -0.003067 -0.000827
  2F   1dxz       0.003553 -0.002892 -0.003510 -0.010236  0.004062 -0.032460
  2F   1dyz       0.002477 -0.005438 -0.003332 -0.012571 -0.032088 -0.019678
  2F   1dx2y2     0.001000  0.002037 -0.003825  0.005010  0.030073 -0.011857
  2F   1dxy       0.002807 -0.002964  0.009774 -0.015814 -0.003392 -0.024538
  3F   1s         0.030685  0.063969  0.000000  0.048539  0.036378 -0.070017
  3F   2s         0.056874  0.118561 -0.000001  0.146988  0.115945 -0.223161
  3F   3s         0.303058  0.631831  0.000007  0.085149  0.019411 -0.037399
  3F   1pz        0.090630 -0.054199 -0.003130  0.100266  0.149703 -0.054759
  3F   1px        0.155646 -0.060214  0.001312 -0.134991  0.078038  0.219045
  3F   1py        0.037140 -0.042414  0.002135  0.229979  0.171456 -0.214981
  3F   2pz       -0.111090  0.040175 -0.029797 -0.088041 -0.122517  0.030569
  3F   2px       -0.160797  0.094786  0.012502  0.118530 -0.080947 -0.168959
  3F   2py       -0.063962  0.000597  0.020323 -0.201940 -0.129817  0.148717
  3F   1dz2      -0.001959 -0.002148  0.010215  0.005277 -0.004530 -0.020461
  3F   1dxz      -0.001034 -0.001892 -0.010416  0.010997  0.003809 -0.011303
  3F   1dyz       0.000685  0.004544  0.009506 -0.007729 -0.030928  0.012571
  3F   1dx2y2     0.000141 -0.003352  0.012561  0.010991  0.030129 -0.003045
  3F   1dxy      -0.003710 -0.004417 -0.000258  0.015387 -0.005779 -0.038849
                     24        25        26        27        28        29   
                   0.94262   0.94262   0.96613   0.97441   0.97441   1.07707
                   0.00000   0.00000   0.00000   0.00000   0.00000   0.00000
                  --------  --------  --------  --------  --------  --------
  0B   1s         0.000013 -0.000009  0.176538 -0.000005 -0.000002 -0.000000
  0B   2s         0.000270 -0.000177  3.471007 -0.000095 -0.000036  0.000002
  0B   3s        -0.000027  0.000012 -0.496035  0.000016  0.000005 -0.000001
  0B   1pz        0.327640  0.463740  0.000024  0.000000  0.000030 -0.000013
  0B   1px       -0.417632  0.749806  0.000042  0.000049 -0.000001  0.000008
  0B   1py        0.737076  0.218683 -0.000060 -0.000032  0.000042 -0.000022
  0B   2pz       -0.018835 -0.026645  0.000000 -0.000002  0.000003 -0.000003
  0B   2px        0.023996 -0.043072  0.000009  0.000008  0.000004  0.000004
  0B   2py       -0.042360 -0.012571 -0.000002 -0.000006  0.000008 -0.000011
  0B   1dz2       0.028437  0.068880 -0.275162  0.004998  0.589305  0.620992
  0B   1dxz       0.129849  0.007178  0.294337  0.464307  0.075908 -0.245955
  0B   1dyz      -0.031624  0.112095  0.478673 -0.284019  0.132161  0.339692
  0B   1dx2y2     0.111184 -0.132481  0.101485 -0.387720  0.156793  0.438667
  0B   1dxy       0.132029  0.116468 -0.200814 -0.199265 -0.301964 -0.179978
  1F   1s        -0.048309  0.087086 -0.075502  0.000008  0.000001  0.000001
  1F   2s        -0.186290  0.335836 -0.224010  0.000032  0.000005  0.000004
  1F   3s        -0.111032  0.200086 -0.758237  0.000033  0.000007  0.000001
  1F   1pz        0.277331  0.039692  0.084992  0.423264  0.199680  0.050365
  1F   1px        0.167832 -0.304126  0.295781 -0.177582 -0.083768 -0.021131
  1F   1py        0.303298  0.245217 -0.057341 -0.288746 -0.136236 -0.034360
  1F   2pz        0.398730 -0.088015  0.343366  0.262900  0.124030  0.110868
  1F   2px        0.455717 -0.823314  1.195106 -0.110384 -0.052045 -0.046514
  1F   2py        0.304221  0.377270 -0.231592 -0.179343 -0.084622 -0.075610
  1F   1dz2      -0.005678  0.013761 -0.011031 -0.026364  0.025442  0.034825
  1F   1dxz       0.011346 -0.013374  0.012289 -0.017199 -0.017351 -0.000482
  1F   1dyz      -0.005313  0.011193  0.005671  0.002572  0.018391  0.010866
  1F   1dx2y2     0.018021 -0.030494  0.014700  0.004562  0.024077  0.013435
  1F   1dxy      -0.001196  0.012556 -0.008322  0.019366 -0.004282 -0.015734
  2F   1s        -0.051265 -0.085373 -0.075511  0.000002 -0.000003  0.000001
  2F   2s        -0.197691 -0.329242 -0.224047  0.000005 -0.000013  0.000002
  2F   3s        -0.117815 -0.196051 -0.758260  0.000018 -0.000010  0.000010
  2F   1pz       -0.099465 -0.207566 -0.195174 -0.038680 -0.466407  0.273865
  2F   1px       -0.415602  0.047577 -0.147432  0.016225  0.195661 -0.114887
  2F   1py        0.109741 -0.333513 -0.195422  0.026399  0.318191 -0.186831
  2F   2pz       -0.297969 -0.545153 -0.788557 -0.023999 -0.289752  0.602805
  2F   2px       -0.623060 -0.172968 -0.595747  0.010087  0.121530 -0.252886
  2F   2py       -0.053654 -0.692728 -0.789516  0.016405  0.197642 -0.411216
  2F   1dz2       0.004241  0.007691 -0.002669 -0.005281 -0.029492 -0.048136
  2F   1dxz       0.013212  0.015865  0.013428  0.028876 -0.008200 -0.026255
  2F   1dyz       0.011016  0.023182  0.019127 -0.019360 -0.003904  0.001537
  2F   1dx2y2    -0.000499 -0.010149 -0.001047 -0.026207 -0.004153  0.004023
  2F   1dxy       0.016159  0.023871  0.005995 -0.009834  0.016980  0.033174
  3F   1s         0.099563 -0.001709 -0.075518 -0.000003  0.000004 -0.000001
  3F   2s         0.383964 -0.006602 -0.224075 -0.000012  0.000014 -0.000004
  3F   3s         0.228625 -0.003864 -0.758277  0.000002  0.000028 -0.000013
  3F   1pz       -0.125226  0.242358  0.110187 -0.384571  0.266717 -0.324233
  3F   1px        0.180693  0.376966 -0.148356  0.161328 -0.111907  0.136016
  3F   1py       -0.294635  0.123428  0.252758  0.262353 -0.181980  0.221200
  3F   2pz       -0.345529  0.286678  0.445166 -0.238891  0.165678 -0.713650
  3F   2px        0.479379  0.436027 -0.599422  0.100210 -0.069501  0.299381
  3F   2py       -0.801250  0.152083  1.021172  0.162989 -0.113098  0.486887
  3F   1dz2       0.011067  0.001845 -0.009699  0.031750  0.016235 -0.022659
  3F   1dxz       0.019371 -0.000056 -0.000689 -0.002081  0.027123  0.040984
  3F   1dyz      -0.016412  0.003555  0.015908  0.010916 -0.011752 -0.032082
  3F   1dx2y2     0.020094 -0.004176 -0.005024  0.013624 -0.016684 -0.042867
  3F   1dxy       0.029715  0.002976 -0.014750 -0.013653 -0.018935 -0.007014
                     30        31        32        33        34        35   
                   1.07707   1.13973   1.13974   1.19274   1.23335   1.26539
                   0.00000   0.00000   0.00000   0.00000   0.00000   0.00000
                  --------  --------  --------  --------  --------  --------
  0B   1s        -0.000000  0.000002  0.000003 -0.000000 -0.000003  0.087131
  0B   2s        -0.000010 -0.000002 -0.000046 -0.000049  0.000158 -0.845481
  0B   3s        -0.000000 -0.000007 -0.000031 -0.000008  0.000009 -0.143341
  0B   1pz       -0.000006  0.570120 -0.344615  0.000101 -0.264715 -0.000015
  0B   1px       -0.000025 -0.096724 -1.002263 -0.000004  0.111051  0.000084
  0B   1py        0.000011  0.895181  0.111177  0.000143  0.180579 -0.000007
  0B   2pz        0.000001  0.198094 -0.119748  0.000045  0.517799  0.000053
  0B   2px       -0.000011 -0.033618 -0.348265  0.000015 -0.217226 -0.000030
  0B   2py       -0.000001  0.311034  0.038629  0.000072 -0.353247 -0.000033
  0B   1dz2       0.419449  0.217743 -0.209799  0.000035  0.000013 -0.310184
  0B   1dxz       0.545356  0.494538  0.184201  0.000083 -0.000012  0.331778
  0B   1dyz      -0.208071  0.064466 -0.468296  0.000026 -0.000029  0.539589
  0B   1dx2y2    -0.300591  0.198185  0.673262  0.000027 -0.000011  0.114418
  0B   1dxy      -0.423384  0.680343 -0.218496  0.000116  0.000000 -0.226351
  1F   1s        -0.000001  0.002356  0.024908 -0.000002  0.000009 -0.109020
  1F   2s        -0.000002  0.022941  0.242345 -0.000016  0.000057 -0.635403
  1F   3s        -0.000014 -0.108241 -1.142697  0.000023 -0.000085  0.710902
  1F   1pz       -0.345344 -0.236787  0.059305 -0.296166 -0.402515 -0.093851
  1F   1px        0.144875  0.012749  0.127043  0.000853  0.168886 -0.326573
  1F   1py        0.235591 -0.354932  0.008760 -0.434674  0.274597  0.063315
  1F   2pz       -0.760074 -0.466346  0.375777 -0.410133 -0.664748 -0.124186
  1F   2px        0.318875  0.109826  1.143635  0.001171  0.278927 -0.432057
  1F   2py        0.518522 -0.751121 -0.152468 -0.601937  0.453495  0.083782
  1F   1dz2      -0.022806 -0.012619 -0.025998 -0.011521 -0.013780 -0.008318
  1F   1dxz      -0.049352 -0.017315  0.032453 -0.023132 -0.024354  0.007064
  1F   1dyz       0.023424 -0.004633  0.000190 -0.005277  0.010788  0.064902
  1F   1dx2y2     0.032874 -0.001239  0.047544 -0.006517  0.015280 -0.036589
  1F   1dxy       0.031377 -0.031649 -0.017806 -0.033991  0.016640 -0.005045
  2F   1s        -0.000000  0.020394 -0.014512 -0.000001  0.000010 -0.109005
  2F   2s        -0.000002  0.198416 -0.141134  0.000010  0.000059 -0.635309
  2F   3s         0.000009 -0.935512  0.665206 -0.000120 -0.000084  0.710714
  2F   1pz        0.216293 -0.080192  0.032598  0.024402 -0.402547  0.215426
  2F   1px       -0.090737  0.151653  0.323071 -0.430750  0.168847  0.162789
  2F   1py       -0.147556 -0.210836 -0.150862  0.300647  0.274600  0.215743
  2F   2pz        0.476045 -0.641669  0.405656  0.033699 -0.664802  0.284940
  2F   2px       -0.199688 -0.045372  0.924403 -0.596504  0.278847  0.215330
  2F   2py       -0.324766 -0.912683  0.026190  0.416195  0.453490  0.285402
  2F   1dz2      -0.041286  0.002918  0.000273 -0.002182  0.031647 -0.039513
  2F   1dxz       0.013412  0.017428 -0.035297  0.021268  0.006138  0.002830
  2F   1dyz      -0.020775  0.046733 -0.015160 -0.016756  0.005827  0.014705
  2F   1dx2y2    -0.026700 -0.022901 -0.018522  0.032306  0.006687  0.022158
  2F   1dxy       0.013208  0.018634 -0.024592  0.010530 -0.017086 -0.058469
  3F   1s        -0.000001 -0.022757 -0.010423 -0.000007  0.000011 -0.109001
  3F   2s        -0.000006 -0.221395 -0.101358 -0.000057  0.000070 -0.635284
  3F   3s         0.000023  1.043790  0.477683  0.000202 -0.000112  0.710665
  3F   1pz        0.129050 -0.135476  0.181603  0.271672 -0.402514 -0.121671
  3F   1px       -0.054132 -0.087625  0.345334  0.429871  0.168860  0.163762
  3F   1py       -0.088040 -0.144643  0.053868  0.133875  0.274629 -0.278977
  3F   2pz        0.284028 -0.580005  0.238943  0.376109 -0.664736 -0.160964
  3F   2px       -0.119120  0.221963  0.899567  0.595292  0.278857  0.216608
  3F   2py       -0.193772 -0.986628 -0.202900  0.185235  0.453563 -0.368997
  3F   1dz2       0.039796  0.015369  0.020259  0.013703 -0.017862 -0.013294
  3F   1dxz       0.004351  0.012762  0.007640  0.001865  0.018209  0.055489
  3F   1dyz       0.009404 -0.040419  0.002791  0.022034 -0.016624  0.026714
  3F   1dx2y2     0.011238  0.029300 -0.011499 -0.025788 -0.021968  0.036987
  3F   1dxy      -0.020061  0.030723  0.036708  0.023464  0.000449  0.018910
                     36        37        38        39        40        41   
                   1.39867   1.39867   1.50449   1.75547   1.75550   2.80026
                   0.00000   0.00000   0.00000   0.00000   0.00000   0.00000
                  --------  --------  --------  --------  --------  --------
  0B   1s        -0.000003 -0.000011 -0.225031  0.000002  0.000007  0.000000
  0B   2s        -0.000033 -0.000097 -3.370552  0.000009  0.000032  0.000007
  0B   3s        -0.000011 -0.000057 -0.962538  0.000003  0.000015  0.000001
  0B   1pz       -0.594067  0.252214 -0.000035 -0.034316  0.018158 -0.000004
  0B   1px       -0.044876  0.974509 -0.000015  0.002285  0.058660  0.000002
  0B   1py       -0.843206 -0.229555  0.000041 -0.051706 -0.009455 -0.000000
  0B   2pz        0.625297 -0.265466  0.000025 -0.177908  0.094105 -0.000003
  0B   2px        0.047228 -1.025701  0.000031  0.011886  0.303957 -0.000001
  0B   2py        0.887537  0.241611 -0.000035 -0.268091 -0.048974 -0.000004
  0B   1dz2      -0.144773  0.104375  0.395513 -0.244767  0.210197 -0.000004
  0B   1dxz      -0.273503 -0.148996 -0.423053 -0.515585 -0.226340 -0.000002
  0B   1dyz      -0.076854  0.268171 -0.688009 -0.097209  0.495006 -0.000001
  0B   1dx2y2    -0.059460 -0.409936 -0.145909 -0.170078 -0.729302  0.000001
  0B   1dxy      -0.415733  0.070732  0.288622 -0.738076  0.191267 -0.000000
  1F   1s         0.007861 -0.164506 -0.127128  0.006803  0.182263  0.000001
  1F   2s         0.050748 -1.062018 -0.919953  0.040080  1.073754  0.000003
  1F   3s        -0.113054  2.365841  2.448378 -0.032190 -0.861928 -0.000005
  1F   1pz       -0.198430  0.094286  0.046261 -0.044386  0.147681 -0.040072
  1F   1px       -0.016655  0.360359  0.161020  0.019086  0.507569  0.000118
  1F   1py       -0.280625 -0.083402 -0.031187 -0.076798 -0.095625 -0.058812
  1F   2pz       -0.307603 -0.073384 -0.227751  0.173246  0.112294 -0.057119
  1F   2px        0.010646 -0.203781 -0.792709  0.014915  0.412835  0.000170
  1F   2py       -0.457442  0.017712  0.153617  0.244778 -0.089238 -0.083833
  1F   1dz2      -0.000890  0.021558  0.039175  0.040619 -0.042714  0.152847
  1F   1dxz       0.001495 -0.025362 -0.043556  0.086303  0.041065  0.307045
  1F   1dyz      -0.001208  0.026587 -0.022504  0.021748  0.064717  0.069982
  1F   1dx2y2     0.002867 -0.058332 -0.050344  0.024588  0.019105  0.086452
  1F   1dxy      -0.000398  0.017042  0.029509  0.123265 -0.034786  0.451208
  2F   1s        -0.146395  0.075437 -0.127139  0.154445 -0.097026  0.000001
  2F   2s        -0.945094  0.486999 -0.920022  0.909869 -0.571601  0.000008
  2F   3s         2.105348 -1.084840  2.448521 -0.730396  0.458802 -0.000012
  2F   1pz       -0.218876  0.094809 -0.106245 -0.285952  0.174796  0.003301
  2F   1px       -0.030762  0.332838 -0.080284 -0.175803  0.196111 -0.058295
  2F   1py       -0.301929 -0.065699 -0.106347 -0.311036  0.135619  0.040690
  2F   2pz        0.107916 -0.084436  0.523019 -0.223384  0.156777  0.004703
  2F   2px        0.297469  0.355259  0.395126 -0.305107 -0.098554 -0.083096
  2F   2py       -0.024766 -0.342224  0.523683 -0.139806  0.290405  0.058002
  2F   1dz2      -0.016111  0.008273  0.010937 -0.035892  0.013117  0.028858
  2F   1dxz      -0.027261  0.014339 -0.047402  0.079351  0.042142 -0.282292
  2F   1dyz      -0.033187  0.016871 -0.067935  0.027934 -0.090085  0.222652
  2F   1dx2y2     0.014684 -0.007126  0.002821  0.073855  0.093364 -0.428901
  2F   1dxy      -0.045192  0.023431 -0.018835  0.000470  0.045242 -0.139804
  3F   1s         0.138531  0.089055 -0.127143 -0.161249 -0.085243 -0.000001
  3F   2s         0.894318  0.574917 -0.920052 -0.949954 -0.502180 -0.000005
  3F   3s        -1.992216 -1.280707  2.448584  0.762572  0.403067  0.000004
  3F   1pz       -0.209133  0.076857  0.059952 -0.188624 -0.047971  0.036770
  3F   1px        0.000094  0.334382 -0.080775  0.191358  0.183051  0.058178
  3F   1py       -0.306605 -0.092957  0.137571 -0.394175 -0.182888  0.018119
  3F   2pz       -0.090294  0.280940 -0.295280 -0.063570 -0.208936  0.052415
  3F   2px       -0.330018  0.324183  0.397535  0.297780 -0.120001  0.082930
  3F   2py        0.070602  0.212474 -0.677284 -0.276313 -0.232479  0.025830
  3F   1dz2      -0.012742 -0.008387  0.034681  0.059312 -0.025404 -0.181880
  3F   1dxz      -0.030424 -0.019588  0.000262 -0.030729 -0.023969 -0.024821
  3F   1dyz       0.018607  0.011645 -0.057063 -0.024247 -0.104151 -0.292696
  3F   1dx2y2    -0.029765 -0.018766  0.016249 -0.053942  0.078360  0.342408
  3F   1dxy      -0.039820 -0.025939  0.051202  0.069410 -0.060515 -0.311439
                     42        43        44        45        46        47   
                   2.80750   2.80751   2.81764   2.83269   2.83269   2.93861
                   0.00000   0.00000   0.00000   0.00000   0.00000   0.00000
                  --------  --------  --------  --------  --------  --------
  0B   1s         0.000001 -0.000001  0.000001  0.000000  0.000000 -0.009439
  0B   2s        -0.000003 -0.000006  0.000005  0.000009  0.000008  0.259667
  0B   3s         0.000004 -0.000002  0.000002  0.000000 -0.000002 -0.107185
  0B   1pz        0.000001  0.000002 -0.000004  0.013992  0.007942 -0.000024
  0B   1px       -0.000003 -0.000001 -0.000000 -0.001667  0.024262  0.000015
  0B   1py        0.000002  0.000003 -0.000007  0.021534 -0.003275  0.000021
  0B   2pz        0.000003 -0.000001  0.000009 -0.023288 -0.013216 -0.000001
  0B   2px        0.000007  0.000001  0.000004  0.002779 -0.040375  0.000002
  0B   2py        0.000002 -0.000003  0.000010 -0.035845  0.005455 -0.000001
  0B   1dz2      -0.010061 -0.023434 -0.000010  0.007992  0.007285  0.110110
  0B   1dxz      -0.019797  0.004738 -0.000001  0.017493 -0.007076 -0.117784
  0B   1dyz       0.009129 -0.010028 -0.000002  0.002769  0.016685 -0.191529
  0B   1dx2y2     0.012857 -0.012744 -0.000001  0.006424 -0.024265 -0.040626
  0B   1dxy       0.012997  0.008727 -0.000009  0.024535  0.007145  0.080353
  1F   1s        -0.000001 -0.000000 -0.000002 -0.000823  0.012271  0.015683
  1F   2s        -0.000008 -0.000001 -0.000011 -0.004545  0.067803  0.100117
  1F   3s        -0.000001  0.000004  0.000007  0.002464 -0.036778 -0.073740
  1F   1pz        0.022168  0.000982 -0.000008  0.021650  0.016618  0.019654
  1F   1px       -0.009308 -0.000409 -0.000008 -0.003589  0.052528  0.068422
  1F   1py       -0.015126 -0.000655 -0.000005  0.033936 -0.007949 -0.013256
  1F   2pz        0.036845  0.001630 -0.000011  0.034154  0.022833  0.026645
  1F   2px       -0.015465 -0.000682 -0.000010 -0.004876  0.071139  0.092763
  1F   2py       -0.025140 -0.001092 -0.000009  0.053051 -0.010291 -0.017970
  1F   1dz2      -0.101588 -0.569129 -0.439673 -0.053916  0.213111 -0.104379
  1F   1dxz      -0.229322  0.127577  0.107268 -0.064324 -0.224371  0.099749
  1F   1dyz       0.110298 -0.251182 -0.199272  0.028958 -0.702271  0.510357
  1F   1dx2y2     0.154400 -0.320015 -0.254477 -0.034115  0.174886 -0.220048
  1F   1dxy       0.143774  0.206311  0.155761 -0.126171  0.143166 -0.069543
  2F   1s         0.000002 -0.000002  0.000005 -0.010213 -0.006848  0.015683
  2F   2s         0.000011 -0.000013  0.000028 -0.056429 -0.037836  0.100118
  2F   3s        -0.000011  0.000014 -0.000021  0.030596  0.020518 -0.073747
  2F   1pz       -0.010243 -0.019683 -0.000016  0.029894  0.017785 -0.045145
  2F   1px        0.004293  0.008266 -0.000002  0.003417  0.042051 -0.034105
  2F   1py        0.006983  0.013433 -0.000012  0.041714  0.000216 -0.045191
  2F   2pz       -0.017025 -0.032713 -0.000025  0.040705  0.023752 -0.061213
  2F   2px        0.007134  0.013737 -0.000002  0.000707  0.062798 -0.046241
  2F   2py        0.011604  0.022327 -0.000019  0.059228 -0.003791 -0.061269
  2F   1dz2      -0.092670 -0.279157  0.036336 -0.343191 -0.239075 -0.307834
  2F   1dxz      -0.456384  0.173965 -0.377945  0.118897  0.167282  0.072031
  2F   1dyz       0.252404 -0.191634  0.243210  0.345853  0.162768  0.183095
  2F   1dx2y2     0.348175 -0.250314  0.330564  0.107551  0.205173  0.162951
  2F   1dxy       0.236173  0.053959  0.143942 -0.432748 -0.246717 -0.417771
  3F   1s        -0.000002  0.000002 -0.000003  0.011036 -0.005423  0.015682
  3F   2s        -0.000010  0.000012 -0.000014  0.060978 -0.029966  0.100115
  3F   3s         0.000010 -0.000006  0.000003 -0.033073  0.016255 -0.073739
  3F   1pz       -0.011937  0.018713 -0.000008  0.026774  0.010047  0.025477
  3F   1px        0.005000 -0.007858 -0.000009 -0.009173  0.041226 -0.034310
  3F   1py        0.008133 -0.012758 -0.000019  0.044893 -0.010619  0.058457
  3F   2pz       -0.019837  0.031099 -0.000009  0.038218  0.017592  0.034536
  3F   2px        0.008311 -0.013058 -0.000016 -0.009328  0.062141 -0.046516
  3F   2py        0.013516 -0.021208 -0.000024  0.061768 -0.012415  0.079258
  3F   1dz2      -0.348321 -0.416549  0.403200  0.202510 -0.151632 -0.136753
  3F   1dxz      -0.382869 -0.045951  0.270854 -0.481039  0.229227  0.415379
  3F   1dyz       0.129748 -0.098224 -0.043978 -0.442059  0.133182  0.261444
  3F   1dx2y2     0.190896 -0.117391 -0.076278 -0.229754  0.211212  0.259701
  3F   1dxy       0.321892  0.210210 -0.299405 -0.038877 -0.070346  0.086742
                     48        49        50        51        52        53   
                   3.04695   3.36194   3.36196   3.59637   3.59638   3.83909
                   0.00000   0.00000   0.00000   0.00000   0.00000   0.00000
                  --------  --------  --------  --------  --------  --------
  0B   1s         0.000001 -0.000000 -0.000001 -0.000006 -0.000001 -0.000059
  0B   2s        -0.000037 -0.000012 -0.000014 -0.000124 -0.000017 -0.001034
  0B   3s         0.000013  0.000001  0.000000  0.000003  0.000000  0.000026
  0B   1pz       -0.331288  0.000016 -0.000013 -0.367790  0.716340  0.363760
  0B   1px        0.138979  0.000021  0.000001 -1.216648 -0.032690  0.946681
  0B   1py        0.226010 -0.000013 -0.000023  0.209038  1.070130 -0.048935
  0B   2pz        0.020231 -0.000002  0.000001  0.033558 -0.065350  0.033278
  0B   2px       -0.008487  0.000000 -0.000000  0.111005  0.002983  0.086601
  0B   2py       -0.013802  0.000002  0.000002 -0.019070 -0.097626 -0.004474
  0B   1dz2      -0.000020 -0.276466  0.494917  0.034302 -0.040896  0.323015
  0B   1dxz       0.000014 -0.426790 -0.150471 -0.038551 -0.084891 -0.217784
  0B   1dyz       0.000032  0.178533  0.242736  0.081756 -0.017070  0.680340
  0B   1dx2y2     0.000008  0.254679  0.311440 -0.121070 -0.026658 -0.950308
  0B   1dxy      -0.000012  0.307612 -0.162690  0.030213 -0.122557  0.379972
  1F   1s        -0.000002 -0.000004 -0.000001  0.053510  0.001343  0.026178
  1F   2s        -0.000013 -0.000027 -0.000006  0.475614  0.011942  0.086045
  1F   3s         0.000011  0.000024  0.000007 -1.163095 -0.029206  0.985142
  1F   1pz       -0.044519  0.023010  0.001385  0.030804  0.005753  0.046145
  1F   1px        0.018666 -0.009667 -0.000584  0.107657  0.002688  0.160471
  1F   1py        0.030372 -0.015698 -0.000946 -0.021044  0.006779 -0.031032
  1F   2pz       -0.128696  0.258489  0.015567  0.200797  0.154967 -0.242474
  1F   2px        0.053974 -0.108453 -0.006539  0.711964  0.017438 -0.708281
  1F   2py        0.087800 -0.176342 -0.010640 -0.143488  0.216430  0.080077
  1F   1dz2       0.219201 -0.282889 -0.288351  0.290986 -0.138891 -0.180638
  1F   1dxz       0.387387 -0.532708  0.034091 -0.318430 -0.301520  0.308118
  1F   1dyz      -0.171732  0.241713 -0.108458  0.010268 -0.066695 -0.162516
  1F   1dx2y2    -0.242985  0.341109 -0.136465 -0.503716 -0.095336  0.523890
  1F   1dxy      -0.264699  0.355496  0.117580  0.230793 -0.425514 -0.074135
  2F   1s        -0.000002  0.000002 -0.000003 -0.027923  0.045668 -0.016790
  2F   2s        -0.000012  0.000011 -0.000023 -0.248187  0.405924 -0.055317
  2F   3s         0.000011 -0.000002  0.000022  0.606928 -0.992746 -0.630457
  2F   1pz       -0.044513 -0.012712  0.019242  0.037415 -0.060400  0.067826
  2F   1px        0.018681  0.005329 -0.008065  0.021819 -0.049574  0.051546
  2F   1py        0.030376  0.008663 -0.013116  0.041424 -0.058050  0.067719
  2F   2pz       -0.128690 -0.142729  0.216081  0.255650 -0.394475 -0.283655
  2F   2px        0.053998  0.059886 -0.090631 -0.000850 -0.416641 -0.499746
  2F   2py        0.087808  0.097363 -0.147407  0.375265 -0.322039 -0.108456
  2F   1dz2      -0.503348 -0.397964  0.561956  0.037781 -0.008761 -0.052097
  2F   1dxz      -0.097646  0.120724  0.239765 -0.037885 -0.455302 -0.462603
  2F   1dyz      -0.092718 -0.195009  0.023093  0.441078 -0.313619 -0.016551
  2F   1dx2y2    -0.106412 -0.250150  0.009102 -0.394851 -0.140093 -0.336916
  2F   1dxy       0.271908  0.130984 -0.358956  0.052255 -0.341590 -0.400082
  3F   1s        -0.000002  0.000001  0.000003 -0.025595 -0.047013 -0.009419
  3F   2s        -0.000014  0.000009  0.000024 -0.227491 -0.417877 -0.031063
  3F   3s         0.000013 -0.000007 -0.000011  0.556335  1.021977 -0.353368
  3F   1pz       -0.044523 -0.010304 -0.020619 -0.023193 -0.033040 -0.021253
  3F   1px        0.018680  0.004322  0.008644  0.019470  0.050887  0.029272
  3F   1py        0.030363  0.007034  0.014079 -0.045970 -0.079725 -0.049155
  3F   2pz       -0.128706 -0.115741 -0.231652 -0.247636 -0.167252 -0.113737
  3F   2px        0.053997  0.048566  0.097173 -0.020345  0.417760 -0.457196
  3F   2py        0.087786  0.078970  0.158036 -0.350470 -0.502043  0.114444
  3F   1dz2       0.284177  0.395936  0.236478  0.039222 -0.291553  0.271088
  3F   1dxz      -0.289773 -0.027850 -0.428926 -0.056861 -0.153969  0.128635
  3F   1dyz       0.264400  0.137275  0.335541  0.425667  0.196967  0.260439
  3F   1dx2y2     0.349381  0.171518  0.448346 -0.400303 -0.050821 -0.300195
  3F   1dxy      -0.007191 -0.169460  0.073713  0.040681 -0.547869  0.519479
                     54        55   
                   3.83911   3.89258
                   0.00000   0.00000
                  --------  --------
  0B   1s         0.000017  0.280453
  0B   2s         0.000297  4.651311
  0B   3s        -0.000007 -0.074397
  0B   1pz        0.520073  0.000074
  0B   1px       -0.155504  0.000162
  0B   1py        0.857961 -0.000077
  0B   2pz        0.047587  0.000001
  0B   2px       -0.014226  0.000028
  0B   2py        0.078501 -0.000004
  0B   1dz2       0.293321 -0.371904
  0B   1dxz       0.729724  0.397763
  0B   1dyz       0.047847  0.647205
  0B   1dx2y2     0.349985  0.136971
  0B   1dxy       0.958531 -0.271407
  1F   1s        -0.004252  0.037590
  1F   2s        -0.013968  0.454709
  1F   3s        -0.160110 -1.982280
  1F   1pz       -0.007231 -0.001140
  1F   1px       -0.026073 -0.003966
  1F   1py        0.005432  0.000767
  1F   2pz       -0.206705  0.332292
  1F   2px        0.115827  1.156564
  1F   2py       -0.374212 -0.224089
  1F   1dz2       0.224707  0.296688
  1F   1dxz       0.342166 -0.334542
  1F   1dyz       0.115869 -0.042417
  1F   1dx2y2     0.025356 -0.481979
  1F   1dxy       0.588413  0.226055
  2F   1s        -0.020551  0.037579
  2F   2s        -0.067602  0.454663
  2F   3s        -0.772826 -1.982590
  2F   1pz        0.083103  0.002657
  2F   1px        0.062531  0.002013
  2F   1py        0.083359  0.002657
  2F   2pz       -0.379347 -0.763208
  2F   2px       -0.053535 -0.576699
  2F   2py       -0.523099 -0.764065
  2F   1dz2      -0.121539  0.003597
  2F   1dxz      -0.003881 -0.374582
  2F   1dyz      -0.464253 -0.513938
  2F   1dx2y2     0.442557  0.069691
  2F   1dxy      -0.211484 -0.275834
  3F   1s         0.024812  0.037577
  3F   2s         0.081669  0.454657
  3F   3s         0.932554 -1.982634
  3F   1pz        0.056702 -0.001499
  3F   1px       -0.076097  0.002030
  3F   1py        0.129916 -0.003447
  3F   2pz       -0.328815  0.430792
  3F   2px        0.211253 -0.580210
  3F   2py       -0.611932  0.988293
  3F   1dz2      -0.068158  0.250141
  3F   1dxz      -0.251185  0.120353
  3F   1dyz       0.354008 -0.401045
  3F   1dx2y2    -0.426189  0.209153
  3F   1dxy      -0.262443  0.451438
--------------
SCF ITERATIONS
--------------
               ***  Starting incremental Fock matrix formation  ***

                         ----------------------------
                         !        ITERATION     0   !
                         ----------------------------
   Total Energy        :    -324.096364711983 Eh
   Energy Change       :    -324.096364711983 Eh
   MAX-DP              :       0.041430771966
   RMS-DP              :       0.003050478029
   Actual Damping      :       0.7000
   Actual Level Shift  :       0.2500 Eh
   Int. Num. El.       :    32.00011146 (UP=   16.00005573 DN=   16.00005573)
   Exchange            :   -34.92400345
   Correlation         :    -1.11439202


                         ----------------------------
                         !        ITERATION     1   !
                         ----------------------------
   Total Energy        :    -324.123255094887 Eh
   Energy Change       :      -0.026890382904 Eh
   MAX-DP              :       0.021807864317
   RMS-DP              :       0.001581942452
   Actual Damping      :       0.7000
   Actual Level Shift  :       0.2500 Eh
   Int. Num. El.       :    32.00010889 (UP=   16.00005445 DN=   16.00005445)
   Exchange            :   -34.66044466
   Correlation         :    -1.11213440

                               ***Turning on DIIS***

                         ----------------------------
                         !        ITERATION     2   !
                         ----------------------------
   Total Energy        :    -324.132393255071 Eh
   Energy Change       :      -0.009138160185 Eh
   MAX-DP              :       0.022608577706
   RMS-DP              :       0.001916123775
   Actual Damping      :       0.0000
   Actual Level Shift  :       0.2500 Eh
   Int. Num. El.       :    32.00010765 (UP=   16.00005382 DN=   16.00005382)
   Exchange            :   -34.52505769
   Correlation         :    -1.11091673
   DIIS-Error          :       0.015282819294


                         ----------------------------
                         !        ITERATION     3   !
                         ----------------------------
   Total Energy        :    -324.149365175923 Eh
   Energy Change       :      -0.016971920852 Eh
   MAX-DP              :       0.013128959667
   RMS-DP              :       0.000962210730
   Actual Damping      :       0.0000
   Actual Level Shift  :       0.2500 Eh
   Int. Num. El.       :    32.00010657 (UP=   16.00005329 DN=   16.00005329)
   Exchange            :   -34.38965823
   Correlation         :    -1.10924597
   DIIS-Error          :       0.031965004106
   DIIS coefficients:
      0.65576   0.34424

                      *** Initiating the SOSCF procedure ***
                           *** Shutting down DIIS ***
                      *** Re-Reading the Fockian *** 
                      *** Removing any level shift *** 

                         ----------------------------
                         !        ITERATION     4   !
                         ----------------------------
   Total Energy        :    -324.151752985565 Eh
   Energy Change       :      -0.002387809642 Eh
   MAX-DP              :       0.005875517798
   RMS-DP              :       0.000260687989
   Orbital gradient    :       0.001386905951
   Orbital Rotation    :       0.001386905951
   Actual Damping      :       0.0000
   Int. Num. El.       :    32.00010735 (UP=   16.00005367 DN=   16.00005367)
   Exchange            :   -34.47114971
   Correlation         :    -1.10976236

               *** Restarting incremental Fock matrix formation ***

                         ----------------------------
                         !        ITERATION     5   !
                         ----------------------------
   Total Energy        :    -324.151811020547 Eh
   Energy Change       :      -0.000058034982 Eh
   MAX-DP              :       0.000876236214
   RMS-DP              :       0.000075163996
   Orbital gradient    :       0.000525768562
   Orbital Rotation    :       0.000968610037
   Actual Damping      :       0.0000
   Int. Num. El.       :    32.00010737 (UP=   16.00005368 DN=   16.00005368)
   Exchange            :   -34.47940022
   Correlation         :    -1.11000941


                         ----------------------------
                         !        ITERATION     6   !
                         ----------------------------
   Total Energy        :    -324.151812055482 Eh
   Energy Change       :      -0.000001034935 Eh
   MAX-DP              :       0.000372742204
   RMS-DP              :       0.000028029936
   Orbital gradient    :       0.000402016236
   Orbital Rotation    :       0.000192615278
   Actual Damping      :       0.0000
   Int. Num. El.       :    32.00010738 (UP=   16.00005369 DN=   16.00005369)
   Exchange            :   -34.48316770
   Correlation         :    -1.11009351


                         ----------------------------
                         !        ITERATION     7   !
                         ----------------------------
   Total Energy        :    -324.151813102261 Eh
   Energy Change       :      -0.000001046779 Eh
   MAX-DP              :       0.000520887241
   RMS-DP              :       0.000020772822
   Orbital gradient    :       0.000123075769
   Orbital Rotation    :       0.000130936758
   Actual Damping      :       0.0000
   Int. Num. El.       :    32.00010736 (UP=   16.00005368 DN=   16.00005368)
   Exchange            :   -34.48087625
   Correlation         :    -1.11008433


                         ----------------------------
                         !        ITERATION     8   !
                         ----------------------------
   Total Energy        :    -324.151813195924 Eh
   Energy Change       :      -0.000000093663 Eh
   MAX-DP              :       0.000206086461
   RMS-DP              :       0.000007538928
   Orbital gradient    :       0.000049045611
   Orbital Rotation    :       0.000044779510
   Actual Damping      :       0.0000
   Int. Num. El.       :    32.00010737 (UP=   16.00005368 DN=   16.00005368)
   Exchange            :   -34.48104023
   Correlation         :    -1.11006718


                         ----------------------------
                         !        ITERATION     9   !
                         ----------------------------
   Total Energy        :    -324.151813218729 Eh
   Energy Change       :      -0.000000022804 Eh
   MAX-DP              :       0.000010858465
   RMS-DP              :       0.000000970273
   Orbital gradient    :       0.000008528283
   Orbital Rotation    :       0.000009972143
   Actual Damping      :       0.0000
   Int. Num. El.       :    32.00010737 (UP=   16.00005368 DN=   16.00005368)
   Exchange            :   -34.48115383
   Correlation         :    -1.11007349

                 **** Energy Check signals convergence ****
              ***Rediagonalizing the Fockian in SOSCF/NRSCF***

               *****************************************************
               *                     SUCCESS                       *
               *           SCF CONVERGED AFTER  10 CYCLES          *
               *****************************************************

Setting up the final grid:

General Integration Accuracy     IntAcc      ...  5.010
Radial Grid Type                 RadialGrid  ... Gauss-Chebyshev
Angular Grid (max. acc.)         AngularGrid ... Lebedev-434
Angular grid pruning method      GridPruning ... 3 (G Style)
Weight generation scheme         WeightScheme... Becke
Basis function cutoff            BFCut       ...    1.0000e-11
Integration weight cutoff        WCut        ...    1.0000e-14
Grids for H and He will be reduced by one unit

# of grid points (after initial pruning)     ...  43044 (   0.0 sec)
# of grid points (after weights+screening)   ...  42260 (   0.0 sec)
nearest neighbour list constructed           ...    0.0 sec
Grid point re-assignment to atoms done       ...    0.0 sec
Grid point division into batches done        ...    0.5 sec
Reduced shell lists constructed in    0.5 sec

Total number of grid points                  ...    42260
Total number of batches                      ...      662
Average number of points per batch           ...       63
Average number of grid points per atom       ...    10565
Average number of shells per batch           ...    15.40 (64.15%)
Average number of basis functions per batch  ...    37.48 (66.93%)
Average number of large shells per batch     ...    13.77 (89.46%)
Average number of large basis fcns per batch ...    33.86 (90.33%)
Maximum spatial batch extension              ...  22.19, 19.98, 21.55 au
Average spatial batch extension              ...   0.87,  0.91,  0.94 au

Final grid set up in    0.6 sec
Final integration                            ... done (   0.1 sec)
Change in XC energy                          ...     0.000070523
Integrated number of electrons               ...    32.000010636
Previous integrated no of electrons          ...    32.000107366

----------------
TOTAL SCF ENERGY
----------------

Total Energy       :         -324.15174270 Eh           -8820.61735 eV

Components:
Nuclear Repulsion  :          119.71409793 Eh            3257.58622 eV
Electronic Energy  :         -443.86584063 Eh          -12078.20357 eV
One Electron Energy:         -688.32703496 Eh          -18730.33085 eV
Two Electron Energy:          244.46119434 Eh            6652.12729 eV

Virial components:
Potential Energy   :         -647.39165678 Eh          -17616.42258 eV
Kinetic Energy     :          323.23991408 Eh            8795.80523 eV
Virial Ratio       :            2.00282090


DFT components:
N(Alpha)           :       16.000005317808 electrons
N(Beta)            :       16.000005317808 electrons
N(Total)           :       32.000010635617 electrons
E(X)               :      -34.481056675428 Eh       
E(C)               :       -1.110072179507 Eh       
E(XC)              :      -35.591128854935 Eh       
DFET-embed. en.    :        0.000000000000 Eh       

---------------
SCF CONVERGENCE
---------------

  Last Energy change         ...   -1.5422e-09  Tolerance :   1.0000e-08
  Last MAX-Density change    ...    2.6881e-06  Tolerance :   1.0000e-07
  Last RMS-Density change    ...    2.2438e-07  Tolerance :   5.0000e-09
  Last Orbital Gradient      ...    1.1883e-06  Tolerance :   1.0000e-05
  Last Orbital Rotation      ...    2.2658e-06  Tolerance :   1.0000e-05

             **** THE GBW FILE WAS UPDATED (BF3.gbw) ****
             **** DENSITY FILE WAS UPDATED (BF3.scfp) ****
             **** ENERGY FILE WAS UPDATED (BF3.en.tmp) ****
             **** THE GBW FILE WAS UPDATED (BF3.gbw) ****
             **** DENSITY FILE WAS UPDATED (BF3.scfp) ****
----------------
ORBITAL ENERGIES
----------------

  NO   OCC          E(Eh)            E(eV) 
   0   2.0000     -24.292718      -661.0385 
   1   2.0000     -24.292712      -661.0383 
   2   2.0000     -24.292601      -661.0353 
   3   2.0000      -6.631054      -180.4402 
[...]

One electron integral derivatives                ... done   (      0.1 sec)

------------------------
Batching info for step 1
------------------------
Number of perturbation per batch  ...            3
Number of batches                 ...            1
Storage mode                      ...       InCore

Transforming the overlap derivative matrices     ... done   (      0.0 sec)

------------------------
Batching info for step 1
------------------------
Number of perturbation per batch  ...            3
Number of batches                 ...            1
Storage mode                      ...       InCore

Making the Q(x) pseudodensities                  ... done   (      0.0 sec)
Adding the E*S(x)*S(y) terms to the Hessian      ... done   (      0.0 sec)
Calculating energy weighted overlap derivatives  ... done   (      0.0 sec)

------------------------
Batching info for step 3
------------------------
Number of perturbation per batch  ...            3
Number of batches                 ...            1
Storage mode                      ...       InCore

Two electron integral derivatives (RI)           ... done   (      0.2 sec)

------------------------
Batching info for step 4
------------------------
Number of perturbation per batch  ...            3
Number of batches                 ...            1
Storage mode                      ...       InCore

Exchange-correlation integral derivatives        ... done   (      1.1 sec)
tr(F(y)Q(x)) contribution to the Hessian         ... done   (      0.0 sec)

------------------------
Batching info for step 5
------------------------
Number of perturbation per batch  ...            3
Number of batches                 ...            1
Storage mode                      ...       InCore

Response fock operator R(S(x)) (RI)              ... (RIJ)done   (      0.3 sec)

------------------------
Batching info for step 6
------------------------
Number of perturbation per batch  ...            3
Number of batches                 ...            1
Storage mode                      ...       InCore

XC Response fock operator R(S(x))                ... done   (      0.3 sec)
tr(F(y)S(x)) contribution to the Hessian         ... done   (      0.0 sec)
Transforming and finalizing RHSs                 ... done   (      0.0 sec)

----------------------------------------------
Solving the CP-SCF equations (RI)                ...
----------------------------------------------
     CP-SCF ITERATION   0: 
     CP-SCF ITERATION   1:      0.001094920455
     CP-SCF ITERATION   2:      0.000008185744
     CP-SCF ITERATION   3:      0.000000052661
     CP-SCF ITERATION   4:      0.000000001086

                                                 ... done   (      2.6 sec)
Forming perturbed density Hessian contributions  ... done   (      0.0 sec)
Making the perturbed densities                   ... done   (      0.0 sec)
2nd integral derivative contribs (RI)            ... done   (      0.4 sec)
Exchange-correlation Hessian                     ... done   (      1.5 sec)
Dispersion correction in the Hessian             ... 
The revPBE functional is recognized
Active option DFTDOPT                   ...         5   



------------------- 
Dispersion Gradient 
------------------- 
   1  :   -0.000000178    0.000000039   -0.000000057
   2  :    0.000424168   -0.000082161    0.000121906
   3  :   -0.000211749   -0.000280441   -0.000280137
   4  :   -0.000212967    0.000362695    0.000158106

  |G| =    0.002134604


The revPBE functional is recognized
Active option DFTDOPT                   ...         5   



------------------- 
Dispersion Gradient 
------------------- 
   1  :    0.000000187   -0.000000040    0.000000059
   2  :    0.000424827   -0.000082277    0.000122078
   3  :   -0.000211530   -0.000280251   -0.000279940
   4  :   -0.000212746    0.000362441    0.000158000

  |G| =    0.002134378


The revPBE functional is recognized
Active option DFTDOPT                   ...         5   



------------------- 
Dispersion Gradient 
------------------- 
   1  :   -0.000000025   -0.000000007   -0.000000012
   2  :    0.000424272   -0.000081356    0.000122075
   3  :   -0.000211770   -0.000280672   -0.000280120
   4  :   -0.000212561    0.000362077    0.000158037

  |G| =    0.002132983


The revPBE functional is recognized
Active option DFTDOPT                   ...         5   



------------------- 
Dispersion Gradient 
------------------- 
   1  :    0.000000030    0.000000007    0.000000012
   2  :    0.000424714   -0.000083081    0.000121907
   3  :   -0.000211507   -0.000280019   -0.000279956
   4  :   -0.000213150    0.000363058    0.000158068

  |G| =    0.002135509


The revPBE functional is recognized
Active option DFTDOPT                   ...         5   



------------------- 
Dispersion Gradient 
------------------- 
   1  :    0.000000048    0.000000061    0.000000054
   2  :    0.000424228   -0.000082300    0.000121537
   3  :   -0.000211278   -0.000279842   -0.000278941
   4  :   -0.000212855    0.000362276    0.000157567

  |G| =    0.002130987


The revPBE functional is recognized
Active option DFTDOPT                   ...         5   



------------------- 
Dispersion Gradient 
------------------- 
   1  :   -0.000000046   -0.000000063   -0.000000056
   2  :    0.000424757   -0.000082136    0.000122445
   3  :   -0.000212001   -0.000280850   -0.000281139
   4  :   -0.000212857    0.000362858    0.000158538

  |G| =    0.002137747


Dispersion correction Hessian from Numerical Differentiation: 
                  0          1          2          3          4          5    
      0      -0.000036   0.000000   0.000000   0.000000  -0.000006   0.000000
      1       0.000000   0.000000   0.000000   0.000000  -0.000001   0.000000
      2       0.000000   0.000000   0.000000   0.000000  -0.000002   0.000000
      3       0.000000   0.000000   0.000000   0.000000  -0.000044   0.000000
      4      -0.000006  -0.000001  -0.000002  -0.000044   0.000173   0.000000
      5       0.000000   0.000000   0.000000   0.000000   0.000000   0.000000
      6       0.000000   0.000000   0.000000   0.000000   0.000000   0.000000
      7       0.000000   0.000000   0.000000   0.000000   0.000000   0.000000
      8       0.000009   0.000012   0.000011  -0.000053  -0.000016  -0.000091
      9       0.000000   0.000000   0.000000   0.000000   0.000000   0.000000
     10       0.000000   0.000000   0.000000   0.000000   0.000000   0.000000
     11       0.000000   0.000000   0.000000   0.000000   0.000000   0.000000
                  6          7          8          9         10         11    
      0       0.000000   0.000000   0.000009   0.000000   0.000000   0.000000
      1       0.000000   0.000000   0.000012   0.000000   0.000000   0.000000
      2       0.000000   0.000000   0.000011   0.000000   0.000000   0.000000
      3       0.000000   0.000000  -0.000053   0.000000   0.000000   0.000000
      4       0.000000   0.000000  -0.000016   0.000000   0.000000   0.000000
      5       0.000000   0.000000  -0.000091   0.000000   0.000000   0.000000
      6       0.000000   0.000000   0.000072   0.000000   0.000000   0.000000
      7       0.000000   0.000000   0.000101   0.000000   0.000000   0.000000
      8       0.000072   0.000101   0.000220   0.000000   0.000000   0.000000
      9       0.000000   0.000000   0.000000   0.000000   0.000000   0.000000
     10       0.000000   0.000000   0.000000   0.000000   0.000000   0.000000
     11       0.000000   0.000000   0.000000   0.000000   0.000000   0.000000

done   (      0.3 sec)
gCP correction in the Hessian                    ...  
-----------------
gCP hessian 
from Numerical Differentiation: 
-----------------
                  0          1          2          3          4          5    
      0       0.000640  -0.000768   0.001127  -0.001524   0.000508  -0.000754
      1      -0.000768  -0.000138   0.001832   0.000508   0.001000   0.000146
      2       0.001127   0.001832  -0.001573  -0.000754   0.000146   0.000882
      3      -0.001524   0.000508  -0.000754   0.001851  -0.000751   0.001113
      4       0.000508   0.001000   0.000146  -0.000751  -0.001558   0.000002
      5      -0.000754   0.000146   0.000882   0.001113   0.000002  -0.001554
      6       0.000446  -0.000864  -0.000863  -0.000162  -0.000194  -0.000394
      7      -0.000864  -0.000046  -0.001143  -0.000194   0.000401  -0.000123
      8      -0.000863  -0.001143  -0.000043  -0.000394  -0.000123   0.000213
      9       0.000439   0.001124   0.000490  -0.000165   0.000437   0.000035
     10       0.001124  -0.000816  -0.000835   0.000437   0.000157  -0.000025
     11       0.000490  -0.000835   0.000734   0.000035  -0.000025   0.000460
                  6          7          8          9         10         11    
      0       0.000446  -0.000864  -0.000863   0.000439   0.001124   0.000490
      1      -0.000864  -0.000046  -0.001143   0.001124  -0.000816  -0.000835
      2      -0.000863  -0.001143  -0.000043   0.000490  -0.000835   0.000734
      3      -0.000162  -0.000194  -0.000394  -0.000165   0.000437   0.000035
      4      -0.000194   0.000401  -0.000123   0.000437   0.000157  -0.000025
      5      -0.000394  -0.000123   0.000213   0.000035  -0.000025   0.000460
      6      -0.000746   0.001057   0.001256   0.000462   0.000001   0.000001
      7       0.001057  -0.000179   0.001700   0.000001  -0.000176  -0.000435
      8       0.001256   0.001700  -0.000335   0.000001  -0.000435   0.000166
      9       0.000462   0.000001   0.000001  -0.000736  -0.001562  -0.000526
     10       0.000001  -0.000176  -0.000435  -0.001562   0.000835   0.001294
     11       0.000001  -0.000435   0.000166  -0.000526   0.001294  -0.001360

done   (      0.0 sec)
Dipol derivatives                                ... done   (      0.1 sec)

-------
TIMINGS
-------

Total SCF Hessian time: 0 days 0 hours 0 min 7 sec 
                   F(y)            G[Q(x)]           CPSCF         Total
Table01         0.2  0.03         0.3  0.04         2.6  0.34         7.7 
Table01a        0.2  0.03,        0.3, 0.04,        2.6  0.34         7.7 
Table01b        0.2   3.0,        0.3,  3.6,        2.6  34.4         7.7 

Writing the Hessian file to the disk             ... done


Maximum memory used throughout the entire calculation: 132.0 MB

-----------------------
VIBRATIONAL FREQUENCIES
-----------------------

Scaling factor for frequencies =  1.000000000  (already applied!)

   0:         0.00 cm**-1
   1:         0.00 cm**-1
   2:         0.00 cm**-1
   3:         0.00 cm**-1
   4:         0.00 cm**-1
   5:         0.00 cm**-1
   6:       462.25 cm**-1
   7:       462.41 cm**-1
   8:       664.27 cm**-1
   9:       837.97 cm**-1
  10:      1415.58 cm**-1
  11:      1415.67 cm**-1


------------
NORMAL MODES
------------

These modes are the Cartesian displacements weighted by the diagonal matrix
M(i,i)=1/sqrt(m[i]) where m[i] is the mass of the displaced atom
Thus, these vectors are normalized but *not* orthogonal

                  0          1          2          3          4          5    
      0       0.000000   0.000000   0.000000   0.000000   0.000000   0.000000
      1       0.000000   0.000000   0.000000   0.000000   0.000000   0.000000
      2       0.000000   0.000000   0.000000   0.000000   0.000000   0.000000
      3       0.000000   0.000000   0.000000   0.000000   0.000000   0.000000
      4       0.000000   0.000000   0.000000   0.000000   0.000000   0.000000
      5       0.000000   0.000000   0.000000   0.000000   0.000000   0.000000
      6       0.000000   0.000000   0.000000   0.000000   0.000000   0.000000
      7       0.000000   0.000000   0.000000   0.000000   0.000000   0.000000
      8       0.000000   0.000000   0.000000   0.000000   0.000000   0.000000
      9       0.000000   0.000000   0.000000   0.000000   0.000000   0.000000
     10       0.000000   0.000000   0.000000   0.000000   0.000000   0.000000
     11       0.000000   0.000000   0.000000   0.000000   0.000000   0.000000
                  6          7          8          9         10         11    
      0       0.236692   0.252763  -0.311093   0.000151   0.453795  -0.741963
      1      -0.267285   0.157254  -0.505956  -0.000008  -0.737289  -0.251865
      2      -0.083375   0.213628   0.741498   0.000059  -0.312603  -0.483088
      3       0.297602   0.320802   0.059008   0.545507  -0.156187   0.256173
      4       0.306190  -0.401276   0.096079  -0.105730   0.052589  -0.035996
      5       0.333787  -0.139242  -0.140579   0.156716  -0.029662   0.082934
      6      -0.535481   0.064349   0.058904  -0.271947   0.048998   0.143676
      7       0.244642   0.377216   0.095937  -0.360325   0.110891   0.165157
      8      -0.057685   0.284287  -0.140714  -0.359902   0.096190   0.172922
      9       0.103200  -0.528974   0.059102  -0.273645  -0.151023   0.022333
     10      -0.398745  -0.065418   0.095877   0.466060   0.256043   0.014152
     11      -0.228661  -0.266601  -0.140625   0.203153   0.111345   0.019025


-----------
IR SPECTRUM
-----------

 Mode    freq (cm**-1)   T**2         TX         TY         TZ
-------------------------------------------------------------------
   6:       462.25    9.177717  (  1.955698  -2.208736  -0.688801)
   7:       462.41    9.156651  (  2.087622   1.298534   1.764170)
   8:       664.27   80.007903  ( -2.929146  -4.763630   6.981106)
   9:       837.97    0.000007  (  0.002455  -0.000289   0.000804)
  10:      1415.58  381.115123  (  9.624936 -15.637145  -6.629890)
  11:      1415.67  381.173186  (-15.736842  -5.341777 -10.246482)

The first frequency considered to be a vibration is 6
The total number of vibrations considered is 6


--------------------------
THERMOCHEMISTRY AT 298.15K
--------------------------

Temperature         ... 298.15 K
Pressure            ... 1.00 atm
Total Mass          ... 67.80 AMU

Throughout the following assumptions are being made:
  (1) The electronic state is orbitally nondegenerate
  (2) There are no thermally accessible electronically excited states
  (3) Hindered rotations indicated by low frequency modes are not
      treated as such but are treated as vibrations and this may
      cause some error
  (4) All equations used are the standard statistical mechanics
      equations for an ideal gas
  (5) All vibrations are strictly harmonic

freq.     462.25  E(vib)   ...       0.16 
freq.     462.41  E(vib)   ...       0.16 
freq.     664.27  E(vib)   ...       0.08 
freq.     837.97  E(vib)   ...       0.04 
freq.    1415.58  E(vib)   ...       0.00 
freq.    1415.67  E(vib)   ...       0.00 

------------
INNER ENERGY
------------

The inner energy is: U= E(el) + E(ZPE) + E(vib) + E(rot) + E(trans)
    E(el)   - is the total energy from the electronic structure calculation
              = E(kin-el) + E(nuc-el) + E(el-el) + E(nuc-nuc)
    E(ZPE)  - the the zero temperature vibrational energy from the frequency calculation
    E(vib)  - the the finite temperature correction to E(ZPE) due to population
              of excited vibrational states
    E(rot)  - is the rotational thermal energy
    E(trans)- is the translational thermal energy

Summary of contributions to the inner energy U:
Electronic energy                ...   -324.17381139 Eh
Zero point energy                ...      0.01197895 Eh       7.52 kcal/mol
Thermal vibrational correction   ...      0.00071700 Eh       0.45 kcal/mol
Thermal rotational correction    ...      0.00141627 Eh       0.89 kcal/mol
Thermal translational correction ...      0.00141627 Eh       0.89 kcal/mol
-----------------------------------------------------------------------
Total thermal energy                   -324.15828289 Eh


Summary of corrections to the electronic energy:
(perhaps to be used in another calculation)
Total thermal correction                  0.00354955 Eh       2.23 kcal/mol
Non-thermal (ZPE) correction              0.01197895 Eh       7.52 kcal/mol
-----------------------------------------------------------------------
Total correction                          0.01552850 Eh       9.74 kcal/mol


--------
ENTHALPY
--------

The enthalpy is H = U + kB*T
                kB is Boltzmann's constant
Total free energy                 ...   -324.15828289 Eh 
Thermal Enthalpy correction       ...      0.00094421 Eh       0.59 kcal/mol
-----------------------------------------------------------------------
Total Enthalpy                    ...   -324.15733868 Eh


Note: Only C1 symmetry has been detected, increase convergence thresholds 
      if your molecule has a higher symmetry. Symmetry factor of 1.0 is   
      used for the rotational entropy correction. 
 

Note: Rotational entropy computed according to Herzberg 
Infrared and Raman Spectra, Chapter V,1, Van Nostrand Reinhold, 1945 
Point Group:  C1, Symmetry Number:   1  
Rotational constants in cm-1:     0.332023     0.331933     0.165989 

Vibrational entropy computed according to the QRRHO of S. Grimme
Chem.Eur.J. 2012 18 9955


-------
ENTROPY
-------

The entropy contributions are T*S = T*(S(el)+S(vib)+S(rot)+S(trans))
     S(el)   - electronic entropy
     S(vib)  - vibrational entropy
     S(rot)  - rotational entropy
     S(trans)- translational entropy
The entropies will be listed as mutliplied by the temperature to get
units of energy

Electronic entropy                ...      0.00000000 Eh      0.00 kcal/mol
Vibrational entropy               ...      0.00099080 Eh      0.62 kcal/mol
Rotational entropy                ...      0.01139974 Eh      7.15 kcal/mol
Translational entropy             ...      0.01832095 Eh     11.50 kcal/mol
-----------------------------------------------------------------------
Final entropy term                ...      0.03071149 Eh     19.27 kcal/mol

In case the symmetry of your molecule has not been determined correctly
or in case you have a reason to use a different symmetry number we print 
out the resulting rotational entropy values for sn=1,12 :
 --------------------------------------------------------
|  sn= 1 | S(rot)=       0.01139974 Eh      7.15 kcal/mol|
|  sn= 2 | S(rot)=       0.01074529 Eh      6.74 kcal/mol|
|  sn= 3 | S(rot)=       0.01036245 Eh      6.50 kcal/mol|
|  sn= 4 | S(rot)=       0.01009083 Eh      6.33 kcal/mol|
|  sn= 5 | S(rot)=       0.00988014 Eh      6.20 kcal/mol|
|  sn= 6 | S(rot)=       0.00970800 Eh      6.09 kcal/mol|
|  sn= 7 | S(rot)=       0.00956245 Eh      6.00 kcal/mol|
|  sn= 8 | S(rot)=       0.00943637 Eh      5.92 kcal/mol|
|  sn= 9 | S(rot)=       0.00932516 Eh      5.85 kcal/mol|
|  sn=10 | S(rot)=       0.00922569 Eh      5.79 kcal/mol|
|  sn=11 | S(rot)=       0.00913569 Eh      5.73 kcal/mol|
|  sn=12 | S(rot)=       0.00905354 Eh      5.68 kcal/mol|
 --------------------------------------------------------


-------------------
GIBBS FREE ENERGY
-------------------

The Gibbs free energy is G = H - T*S

Total enthalpy                    ...   -324.15733868 Eh 
Total entropy correction          ...     -0.03071149 Eh    -19.27 kcal/mol
-----------------------------------------------------------------------
Final Gibbs free energy         ...   -324.18805017 Eh

For completeness - the Gibbs free energy minus the electronic energy
G-E(el)                           ...     -0.01423878 Eh     -8.93 kcal/mol


Timings for individual modules:

Sum of individual times         ...       39.043 sec (=   0.651 min)
GTO integral calculation        ...        4.216 sec (=   0.070 min)  10.8 %
SCF iterations                  ...       20.079 sec (=   0.335 min)  51.4 %
SCF Gradient evaluation         ...        6.363 sec (=   0.106 min)  16.3 %
Geometry relaxation             ...        0.128 sec (=   0.002 min)   0.3 %
Analytical frequency calculation...        8.258 sec (=   0.138 min)  21.2 %
                             ****ORCA TERMINATED NORMALLY****
TOTAL RUN TIME: 0 days 0 hours 0 minutes 40 seconds 182 msec
