
                                 *****************
                                 * O   R   C   A *
                                 *****************

           --- An Ab Initio, DFT and Semiempirical electronic structure package ---

                  #######################################################
                  #                        -***-                        #
                  #          Department of theory and spectroscopy      #
                  #               Directorship: Frank Neese             #
                  #        Max Planck Institute fuer Kohlenforschung    #
                  #                Kaiser Wilhelm Platz 1               #
                  #                 D-45470 Muelheim/Ruhr               #
                  #                      Germany                        #
                  #                                                     #
                  #                  All rights reserved                #
                  #                        -***-                        #
                  #######################################################


                         Program Version 4.2.1 -  RELEASE  -


 With contributions from (in alphabetic order):
   Daniel Aravena         : Magnetic Suceptibility
   Michael Atanasov       : Ab Initio Ligand Field Theory (pilot matlab implementation)
   Alexander A. Auer      : GIAO ZORA, VPT2
   Ute Becker             : Parallelization
   Giovanni Bistoni       : ED, misc. LED, open-shell LED, HFLD
   Martin Brehm           : Molecular dynamics
   Dmytro Bykov           : SCF Hessian
   Vijay G. Chilkuri      : MRCI spin determinant printing, contributions to CSF-ICE
   Dipayan Datta          : RHF DLPNO-CCSD density
   Achintya Kumar Dutta   : EOM-CC, STEOM-CC
   Dmitry Ganyushin       : Spin-Orbit,Spin-Spin,Magnetic field MRCI
   Miquel Garcia          : C-PCM Hessian, Gaussian charge scheme
   Yang Guo               : DLPNO-NEVPT2, CIM, IAO-localization
   Andreas Hansen         : Spin unrestricted coupled pair/coupled cluster methods
   Benjamin Helmich-Paris : CASSCF linear response (MC-RPA)
   Lee Huntington         : MR-EOM, pCC
   Robert Izsak           : Overlap fitted RIJCOSX, COSX-SCS-MP3, EOM
   Christian Kollmar      : KDIIS, OOCD, Brueckner-CCSD(T), CCSD density
   Simone Kossmann        : Meta GGA functionals, TD-DFT gradient, OOMP2, MP2 Hessian
   Martin Krupicka        : AUTO-CI
   Lucas Lang             : DCDCAS
   Dagmar Lenk            : GEPOL surface, SMD
   Dimitrios Liakos       : Extrapolation schemes; Compound Job, initial MDCI parallelization
   Dimitrios Manganas     : Further ROCIS development; embedding schemes
   Dimitrios Pantazis     : SARC Basis sets
   Taras Petrenko         : DFT Hessian,TD-DFT gradient, ASA, ECA, R-Raman, ABS, FL, XAS/XES, NRVS
   Peter Pinski           : DLPNO-MP2, DLPNO-MP2 Gradient
   Christoph Reimann      : Effective Core Potentials
   Marius Retegan         : Local ZFS, SOC
   Christoph Riplinger    : Optimizer, TS searches, QM/MM, DLPNO-CCSD(T), (RO)-DLPNO pert. Triples
   Tobias Risthaus        : Range-separated hybrids, TD-DFT gradient, RPA, STAB
   Michael Roemelt        : Original ROCIS implementation
   Masaaki Saitow         : Open-shell DLPNO-CCSD energy and density
   Barbara Sandhoefer     : DKH picture change effects
   Avijit Sen             : IP-ROCIS
   Kantharuban Sivalingam : CASSCF convergence, NEVPT2, FIC-MRCI
   Bernardo de Souza      : ESD, SOC TD-DFT
   Georgi Stoychev        : AutoAux, RI-MP2 NMR
   Willem Van den Heuvel  : Paramagnetic NMR
   Boris Wezisla          : Elementary symmetry handling
   Frank Wennmohs         : Technical directorship


 We gratefully acknowledge several colleagues who have allowed us to
 interface, adapt or use parts of their codes:
   Stefan Grimme, W. Hujo, H. Kruse,             : VdW corrections, initial TS optimization,
                  C. Bannwarth                     DFT functionals, gCP, sTDA/sTD-DF
   Ed Valeev, F. Pavosevic, A. Kumar             : LibInt (2-el integral package), F12 methods
   Garnet Chan, S. Sharma, J. Yang, R. Olivares  : DMRG
   Ulf Ekstrom                                   : XCFun DFT Library
   Mihaly Kallay                                 : mrcc  (arbitrary order and MRCC methods)
   Andreas Klamt, Michael Diedenhofen            : otool_cosmo (COSMO solvation model)
   Jiri Pittner, Ondrej Demel                    : Mk-CCSD
   Frank Weinhold                                : gennbo (NPA and NBO analysis)
   Christopher J. Cramer and Donald G. Truhlar   : smd solvation model
   Lars Goerigk                                  : TD-DFT with DH, B97 family of functionals
   V. Asgeirsson, H. Jonsson                     : NEB implementation
   FAccTs GmbH                                   : IRC, NEB, NEB-TS, Multilevel, MM, QM/MM, CI optimization
   S Lehtola, MJT Oliveira, MAL Marques          : LibXC Library


 Your calculation uses the libint2 library for the computation of 2-el integrals
 For citations please refer to: http://libint.valeyev.net

 Your ORCA version has been built with support for libXC version: 4.2.3
 For citations please refer to: https://tddft.org/programs/libxc/

 This ORCA versions uses:
   CBLAS   interface :  Fast vector & matrix operations
   LAPACKE interface :  Fast linear algebra routines
   SCALAPACK package :  Parallel linear algebra routines


Your calculation utilizes the geometrical counterpoise correction gCP
Please cite in your paper:
H.Kruse, S. Grimme J.Chem.Phys., 136, (2012), 154101 
   

Your calculation utilizes the atom-pairwise dispersion correction
based on tight binding partial charges (D4)
Cite in your paper:
E.Caldeweyher, C.Bannwarth, S.Grimme, J.Chem.Phys., (2017), 147, 034112.
E.Caldeweyher, S.Ehlert, A.Hansen, H.Neugebauer, S.Grimme, J.Chem.Phys., (2018), in progress.
   

----- Orbital basis set information -----
Your calculation utilizes the basis: def2-SVP
   F. Weigend and R. Ahlrichs, Phys. Chem. Chem. Phys. 7, 3297 (2005).

----- AuxJ basis set information -----
Your calculation utilizes the auxiliary basis: def2/J
   F. Weigend, Phys. Chem. Chem. Phys. 8, 1057 (2006).

================================================================================
                                        WARNINGS
                       Please study these warnings very carefully!
================================================================================


WARNING: Geometry Optimization
  ===> : Switching off AutoStart
         For restart on a previous wavefunction, please use MOREAD

INFO   : the flag for use of LIBINT has been found!

================================================================================
                                       INPUT FILE
================================================================================
NAME = BO3H3.inp
|  1> ! revPBE D4 gCP(DFT/SVP) def2-SVP Opt Freq TightOpt TightSCF Grid4 FinalGrid5 LargePrint
|  2> 
|  3> %pal
|  4>  nprocs 8
|  5> end
|  6> 
|  7> *xyz 0 1
|  8> B       -0.0305294742      1.2906468016     -0.0642485709                 
|  9> O       -0.3234066080      1.3722192394      1.3719467781                 
| 10> O        1.3077560707      0.9129047799     -0.5170443663                 
| 11> O       -1.0739757588      1.6039437579     -1.0420560512                 
| 12> H       -1.1553042122      1.9022162774      1.4470111346                 
| 13> H       -0.5899560720      1.9380129517     -1.8415547354                 
| 14> H        1.9041860351      1.0572864189      0.2599012153                 
| 15> *
| 16> 
| 17>                          ****END OF INPUT****
================================================================================

                       *****************************
                       * Geometry Optimization Run *
                       *****************************

Geometry optimization settings:
Update method            Update   .... BFGS
Choice of coordinates    CoordSys .... Z-matrix Internals
Initial Hessian          InHess   .... Almoef's Model

Convergence Tolerances:
Energy Change            TolE     ....  1.0000e-06 Eh
Max. Gradient            TolMAXG  ....  1.0000e-04 Eh/bohr
RMS Gradient             TolRMSG  ....  3.0000e-05 Eh/bohr
Max. Displacement        TolMAXD  ....  1.0000e-03 bohr
RMS Displacement         TolRMSD  ....  6.0000e-04 bohr
Strict Convergence                ....  False
------------------------------------------------------------------------------
                        ORCA OPTIMIZATION COORDINATE SETUP
------------------------------------------------------------------------------

The optimization will be done in new redundant internal coordinates
Making redundant internal coordinates   ...  (new redundants) done
Evaluating the initial hessian          ...  (Almloef) done
Evaluating the coordinates              ...  done
Calculating the B-matrix                .... done
Calculating the G-matrix                .... done
Diagonalizing the G-matrix              .... done
The first mode is                       ....    3
The number of degrees of freedom        ....   15

    -----------------------------------------------------------------
                    Redundant Internal Coordinates


    -----------------------------------------------------------------
         Definition                    Initial Value    Approx d2E/dq
    -----------------------------------------------------------------
      1. B(O   1,B   0)                  1.4680         0.486647   
      2. B(O   2,B   0)                  1.4624         0.496735   
      3. B(O   3,B   0)                  1.4639         0.494048   
      4. B(H   4,O   1)                  0.9892         0.467008   
      5. B(H   5,O   3)                  0.9925         0.461423   
      6. B(H   6,O   2)                  0.9901         0.465594   
      7. A(O   1,B   0,O   3)          119.9580         0.400986   
      8. A(O   2,B   0,O   3)          120.0491         0.402439   
      9. A(O   1,B   0,O   2)          119.9885         0.401370   
     10. A(B   0,O   1,H   4)          105.7702         0.351599   
     11. A(B   0,O   2,H   6)          105.7022         0.352640   
     12. A(B   0,O   3,H   5)          105.2173         0.351781   
     13. D(H   4,O   1,B   0,O   3)    -16.5818         0.013998   
     14. D(H   4,O   1,B   0,O   2)    162.6493         0.013998   
     15. D(H   6,O   2,B   0,O   1)    -18.4551         0.014577   
     16. D(H   6,O   2,B   0,O   3)    160.7753         0.014577   
     17. D(H   5,O   3,B   0,O   2)    -27.6037         0.014422   
     18. D(H   5,O   3,B   0,O   1)    151.6269         0.014422   
    -----------------------------------------------------------------

Number of atoms                         .... 7
Number of degrees of freedom            .... 18

         *************************************************************
         *                GEOMETRY OPTIMIZATION CYCLE   1            *
         *************************************************************
---------------------------------
CARTESIAN COORDINATES (ANGSTROEM)
---------------------------------
  B     -0.030529    1.290647   -0.064249
  O     -0.323407    1.372219    1.371947
  O      1.307756    0.912905   -0.517044
  O     -1.073976    1.603944   -1.042056
  H     -1.155304    1.902216    1.447011
  H     -0.589956    1.938013   -1.841555
  H      1.904186    1.057286    0.259901

----------------------------
CARTESIAN COORDINATES (A.U.)
----------------------------
  NO LB      ZA    FRAG     MASS         X           Y           Z
   0 B     5.0000    0    10.810   -0.057692    2.438969   -0.121412
   1 O     8.0000    0    15.999   -0.611150    2.593119    2.592604
   2 O     8.0000    0    15.999    2.471301    1.725140   -0.977072
   3 O     8.0000    0    15.999   -2.029520    3.031014   -1.969201
   4 H     1.0000    0     1.008   -2.183209    3.594668    2.734455
   5 H     1.0000    0     1.008   -1.114855    3.662314   -3.480034
   6 H     1.0000    0     1.008    3.598390    1.997982    0.491142

--------------------------------
INTERNAL COORDINATES (ANGSTROEM)
--------------------------------
 B      0   0   0     0.000000000000     0.00000000     0.00000000
 O      1   0   0     1.468021852222     0.00000000     0.00000000
 O      1   2   0     1.462436756574   119.98845158     0.00000000
 O      1   2   3     1.463913453795   119.95802172   180.76889406
 H      2   1   3     0.989234624232   105.77022274   162.64934245
 H      4   1   2     0.992509662166   105.21727805   151.62692747
 H      3   1   2     0.990060198615   105.70223590   341.54489687

---------------------------
INTERNAL COORDINATES (A.U.)
---------------------------
 B      0   0   0     0.000000000000     0.00000000     0.00000000
 O      1   0   0     2.774159259311     0.00000000     0.00000000
 O      1   2   0     2.763604958105   119.98845158     0.00000000
 O      1   2   3     2.766395511436   119.95802172   180.76889406
 H      2   1   3     1.869382521991   105.77022274   162.64934245
 H      4   1   2     1.875571446765   105.21727805   151.62692747
 H      3   1   2     1.870942631479   105.70223590   341.54489687

---------------------
BASIS SET INFORMATION
---------------------
There are 3 groups of distinct atoms

 Group   1 Type B   : 7s4p1d contracted to 3s2p1d pattern {511/31/1}
 Group   2 Type O   : 7s4p1d contracted to 3s2p1d pattern {511/31/1}
 Group   3 Type H   : 4s1p contracted to 2s1p pattern {31/1}

Atom   0B    basis set group =>   1
Atom   1O    basis set group =>   2
Atom   2O    basis set group =>   2
Atom   3O    basis set group =>   2
Atom   4H    basis set group =>   3
Atom   5H    basis set group =>   3
Atom   6H    basis set group =>   3

-------------------------
BASIS SET IN INPUT FORMAT
-------------------------

 # Basis set for element : H 
 NewGTO H 
 S 3 
   1      13.0107010000      0.0334854848
   2       1.9622572000      0.2347218709
   3       0.4445379600      0.8137702853
 S 1 
   1       0.1219496200      1.0000000000
 P 1 
   1       0.8000000000      1.0000000000
  end;

 # Basis set for element : B 
 NewGTO B 
 S 5 
   1     839.3183008600     -0.0056288836
   2     126.2646484300     -0.0418327946
   3      28.6206007630     -0.1841748812
   4       7.8793722710     -0.4683965503
   5       2.4088857172     -0.4445793088
 S 1 
   1       0.2510510904      1.0000000000
 S 1 
   1       0.0836488661      1.0000000000
 P 3 
   1       6.0332223619     -0.0540325004
   2       1.2499157866     -0.3019403439
   3       0.3387167635     -0.7717079166
 P 1 
   1       0.0964156324      1.0000000000
 D 1 
   1       0.5000000000      1.0000000000
  end;

 # Basis set for element : O 
 NewGTO O 
 S 5 
   1    2266.1767785000     -0.0053893504
   2     340.8701019100     -0.0402347214
   3      77.3631351670     -0.1800818421
   4      21.4796449400     -0.4682885766
   5       6.6589433124     -0.4469261716
 S 1 
   1       0.8097597567      1.0000000000
 S 1 
   1       0.2553077223      1.0000000000
 P 3 
   1      17.7215043170      0.0626302488
   2       3.8635505440      0.3333113849
   3       1.0480920883      0.7414863830
 P 1 
   1       0.2764154441      1.0000000000
 D 1 
   1       1.2000000000      1.0000000000
  end;

---------------------------------
AUXILIARY/J BASIS SET INFORMATION
---------------------------------
There are 3 groups of distinct atoms

 Group   1 Type B   : 12s5p4d2f1g contracted to 6s4p3d1f1g pattern {711111/2111/211/2/1}
 Group   2 Type O   : 12s5p4d2f1g contracted to 6s4p3d1f1g pattern {711111/2111/211/2/1}
 Group   3 Type H   : 5s2p1d contracted to 3s1p1d pattern {311/2/1}

Atom   0B    basis set group =>   1
Atom   1O    basis set group =>   2
Atom   2O    basis set group =>   2
Atom   3O    basis set group =>   2
Atom   4H    basis set group =>   3
Atom   5H    basis set group =>   3
Atom   6H    basis set group =>   3

-------------------------------------
AUXILIARY/J BASIS SET IN INPUT FORMAT
-------------------------------------

 # Auxiliary/J basis set for element : H 
 NewAuxJGTO H 
 S 3 
   1      15.6752927000      0.1007184237
   2       3.6063578000      0.3404257499
   3       1.2080016000      0.6491996172
 S 1 
   1       0.4726794000      1.0000000000
 S 1 
   1       0.2018100000      1.0000000000
 P 2 
   1       2.0281365000      0.5596620919
   2       0.5358730000      0.5596620919
 D 1 
   1       2.2165124000      1.0000000000
  end;

 # Auxiliary/J basis set for element : B 
 NewAuxJGTO B 
 S 7 
   1    1322.2016723000      0.0130721780
   2     458.2370653000      0.0281065289
   3     168.0023641000      0.0968125842
   4      64.9577690000      0.2258335225
   5      26.3871856000      0.3821491110
   6      11.2108611000      0.3266991672
   7       4.9554460000      0.0770367109
 S 1 
   1       2.2652825000     -1.0000000000
 S 1 
   1       1.0638086000      1.0000000000
 S 1 
   1       0.5095187000      1.0000000000
 S 1 
   1       0.2469859000      1.0000000000
 S 1 
   1       0.1202089000      1.0000000000
 P 2 
   1       9.3560736000     -0.5615847160
   2       3.9743131000     -0.4920798837
 P 1 
   1       1.6645147000      1.0000000000
 P 1 
   1       0.6913035000     -1.0000000000
 P 1 
   1       0.2863135000      1.0000000000
 D 2 
   1       2.1120313000      0.3924108444
   2       0.7780769000      0.6972711530
 D 1 
   1       0.3277101000      1.0000000000
 D 1 
   1       0.1449465000      1.0000000000
 F 2 
   1       1.0582718000      0.7745907102
   2       0.4010000000      0.3199796706
 G 1 
   1       0.6514300000     -1.0000000000
  end;

 # Auxiliary/J basis set for element : O 
 NewAuxJGTO O 
 S 7 
   1    2876.8216605000      0.0168151159
   2    1004.7443032000      0.0340137548
   3     369.7579954000      0.1194951309
   4     142.9442404000      0.2664627624
   5      57.8366425000      0.4202764046
   6      24.3864983000      0.2765077335
   7      10.6622662000      0.0057008815
 S 1 
   1       4.8070437000     -1.0000000000
 S 1 
   1       2.2210770000      1.0000000000
 S 1 
   1       1.0447795000      1.0000000000
 S 1 
   1       0.4968425000      1.0000000000
 S 1 
   1       0.2371384000      1.0000000000
 P 2 
   1      64.2613382000     -0.2731534179
   2      16.3006076000     -0.8168011598
 P 1 
   1       4.3550542000      1.0000000000
 P 1 
   1       1.2019554000      1.0000000000
 P 1 
   1       0.3354196000      1.0000000000
 D 2 
   1       9.2146611000     -0.4661230638
   2       2.8435251000     -0.6600908911
 D 1 
   1       0.9955759000     -1.0000000000
 D 1 
   1       0.3649441000     -1.0000000000
 F 2 
   1       2.6420115000      0.5931563945
   2       0.7345613000      0.5931563945
 G 1 
   1       1.3931000000     -1.0000000000
  end;



           ************************************************************
           *        Program running with 8 parallel MPI-processes     *
           *              working on a common directory               *
           ************************************************************
------------------------------------------------------------------------------
                           ORCA GTO INTEGRAL CALCULATION
                           -- RI-GTO INTEGRALS CHOSEN --
------------------------------------------------------------------------------

                         BASIS SET STATISTICS AND STARTUP INFO

Gaussian basis set:
 # of primitive gaussian shells          ...   63
 # of primitive gaussian functions       ...  117
 # of contracted shells                  ...   33
 # of contracted basis functions         ...   71
 Highest angular momentum                ...    2
 Maximum contraction depth               ...    5
Auxiliary gaussian basis set:
 # of primitive gaussian shells          ...  120
 # of primitive gaussian functions       ...  328
 # of contracted shells                  ...   75
 # of contracted aux-basis functions     ...  229
 Highest angular momentum                ...    4
 Maximum contraction depth               ...    7
Ratio of auxiliary to basis functions    ...  3.23
Integral package used                  ... LIBINT
 One Electron integrals                  ... done
 Ordering auxiliary basis shells         ... done
 Integral threshhold             Thresh  ...  2.500e-11
 Primitive cut-off               TCut    ...  2.500e-12
 Pre-screening matrix                    ... done
 Shell pair data                         ... 
 Ordering of the shell pairs             ... done (   0.000 sec) 558 of 561 pairs
 Determination of significant pairs      ... done (   0.000 sec)
 Creation of shell pair data             ... done (   0.000 sec)
 Storage of shell pair data              ... done (   0.235 sec)
 Shell pair data done in (   0.235 sec)
 Computing two index integrals           ... done
 Cholesky decomposition of the V-matrix  ... done


Timings:
 Total evaluation time                   ...   0.564 sec (  0.009 min)
 One electron matrix time                ...   0.085 sec (  0.001 min) = 15.0%
 Schwartz matrix evaluation time         ...   0.191 sec (  0.003 min) = 33.9%
 Two index repulsion integral time       ...   0.014 sec (  0.000 min) =  2.5%
 Cholesky decomposition of V             ...   0.008 sec (  0.000 min) =  1.5%
 Three index repulsion integral time     ...   0.000 sec (  0.000 min) =  0.0%



           ************************************************************
           *        Program running with 8 parallel MPI-processes     *
           *              working on a common directory               *
           ************************************************************
-------------------------------------------------------------------------------
                                 ORCA SCF
-------------------------------------------------------------------------------

------------
SCF SETTINGS
------------
Hamiltonian:
 Density Functional     Method          .... DFT(GTOs)
 Exchange Functional    Exchange        .... PBE
   PBE kappa parameter   XKappa         ....  1.245000
   PBE mue parameter    XMuePBE         ....  0.219520
 Correlation Functional Correlation     .... PBE
   PBE beta parameter  CBetaPBE         ....  0.066725
 LDA part of GGA corr.  LDAOpt          .... PW91-LDA
 Gradients option       PostSCFGGA      .... off
   Density functional embedding theory  .... OFF
   NL short-range parameter             ....  3.700000
 RI-approximation to the Coulomb term is turned on
   Number of auxiliary basis functions  .... 229


General Settings:
 Integral files         IntName         .... BO3H3
 Hartree-Fock type      HFTyp           .... RHF
 Total Charge           Charge          ....    0
 Multiplicity           Mult            ....    1
 Number of Electrons    NEL             ....   32
 Basis Dimension        Dim             ....   71
 Nuclear Repulsion      ENuc            ....    109.6144921919 Eh

Convergence Acceleration:
 DIIS                   CNVDIIS         .... on
   Start iteration      DIISMaxIt       ....    12
   Startup error        DIISStart       ....  0.200000
   # of expansion vecs  DIISMaxEq       ....     5
   Bias factor          DIISBfac        ....   1.050
   Max. coefficient     DIISMaxC        ....  10.000
 Newton-Raphson         CNVNR           .... off
 SOSCF                  CNVSOSCF        .... on
   Start iteration      SOSCFMaxIt      ....   150
   Startup grad/error   SOSCFStart      ....  0.003300
 Level Shifting         CNVShift        .... on
   Level shift para.    LevelShift      ....    0.2500
   Turn off err/grad.   ShiftErr        ....    0.0010
 Zerner damping         CNVZerner       .... off
 Static damping         CNVDamp         .... on
   Fraction old density DampFac         ....    0.7000
   Max. Damping (<1)    DampMax         ....    0.9800
   Min. Damping (>=0)   DampMin         ....    0.0000
   Turn off err/grad.   DampErr         ....    0.1000
 Fernandez-Rico         CNVRico         .... off

SCF Procedure:
 Maximum # iterations   MaxIter         ....   125
 SCF integral mode      SCFMode         .... Direct
   Integral package                     .... LIBINT
 Reset frequency        DirectResetFreq ....    20
 Integral Threshold     Thresh          ....  2.500e-11 Eh
 Primitive CutOff       TCut            ....  2.500e-12 Eh

Convergence Tolerance:
 Convergence Check Mode ConvCheckMode   .... Total+1el-Energy
 Convergence forced     ConvForced      .... 0
 Energy Change          TolE            ....  1.000e-08 Eh
 1-El. energy change                    ....  1.000e-05 Eh
 Orbital Gradient       TolG            ....  1.000e-05
 Orbital Rotation angle TolX            ....  1.000e-05
 DIIS Error             TolErr          ....  5.000e-07


Diagonalization of the overlap matrix:
Smallest eigenvalue                        ... 2.308e-02
Time for diagonalization                   ...    0.002 sec
Threshold for overlap eigenvalues          ... 1.000e-08
Number of eigenvalues below threshold      ... 0
Time for construction of square roots      ...    0.007 sec
Total time needed                          ...    0.009 sec

-------------------
DFT GRID GENERATION
-------------------

General Integration Accuracy     IntAcc      ...  4.670
Radial Grid Type                 RadialGrid  ... Gauss-Chebyshev
Angular Grid (max. acc.)         AngularGrid ... Lebedev-302
Angular grid pruning method      GridPruning ... 3 (G Style)
Weight generation scheme         WeightScheme... Becke
Basis function cutoff            BFCut       ...    1.0000e-11
Integration weight cutoff        WCut        ...    1.0000e-14
Grids for H and He will be reduced by one unit

# of grid points (after initial pruning)     ...  34946 (   0.0 sec)
# of grid points (after weights+screening)   ...  33721 (   0.1 sec)
nearest neighbour list constructed           ...    0.0 sec
Grid point re-assignment to atoms done       ...    0.0 sec
Grid point division into batches done        ...    0.3 sec
Reduced shell lists constructed in    0.4 sec

Total number of grid points                  ...    33721
Total number of batches                      ...      531
Average number of points per batch           ...       63
Average number of grid points per atom       ...     4817
Average number of shells per batch           ...    26.25 (79.55%)
Average number of basis functions per batch  ...    58.04 (81.75%)
Average number of large shells per batch     ...    24.38 (92.89%)
Average number of large basis fcns per batch ...    53.82 (92.73%)
Maximum spatial batch extension              ...  15.26, 19.93, 18.49 au
Average spatial batch extension              ...   0.33,  0.38,  0.32 au

Time for grid setup =    0.707 sec

------------------------------
INITIAL GUESS: MODEL POTENTIAL
------------------------------
Loading Hartree-Fock densities                     ... done
Calculating cut-offs                               ... done
Setting up the integral package                    ... done
Initializing the effective Hamiltonian             ... done
Starting the Coulomb interaction                   ... done (   0.0 sec)
Reading the grid                                   ... done
Mapping shells                                     ... done
Starting the XC term evaluation                    ... done (   0.2 sec)
  promolecular density results
     # of electrons  =     31.998560708
     EX              =    -29.277241738
     EC              =     -1.038429281
     EX+EC           =    -30.315671020
Transforming the Hamiltonian                       ... done (   0.0 sec)
Diagonalizing the Hamiltonian                      ... done (   0.0 sec)
Back transforming the eigenvectors                 ... done (   0.0 sec)
Now organizing SCF variables                       ... done
                      ------------------
                      INITIAL GUESS DONE (   1.2 sec)
                      ------------------
----------------------
INITIAL GUESS ORBITALS
----------------------
                      0         1         2         3         4         5   
                 -18.97440 -18.97379 -18.97363  -6.67272  -1.05688  -1.02739
                   2.00000   2.00000   2.00000   2.00000   2.00000   2.00000
                  --------  --------  --------  --------  --------  --------
  0B   1s        -0.000010  0.000011 -0.000023 -0.987753 -0.104975 -0.001301
  0B   2s        -0.002737  0.002378 -0.003804  0.058389 -0.199440 -0.002345
  0B   3s        -0.003778  0.003231 -0.005211 -0.009877 -0.000445 -0.000155
  0B   1pz       -0.000536  0.000874  0.000947  0.000055 -0.001895  0.016846
  0B   1px        0.001020  0.000839 -0.000171 -0.000139  0.003620 -0.137795
  0B   1py       -0.000254 -0.000305  0.000138 -0.000391  0.005000  0.040266
  0B   2pz        0.004472 -0.004645 -0.005894 -0.000060 -0.000225  0.004209
  0B   2px       -0.005773 -0.006247  0.000346 -0.000022 -0.000578  0.007975
  0B   2py        0.001724  0.001635  0.000232 -0.000295 -0.001846 -0.002582
  0B   1dz2      -0.000769  0.000513  0.000723  0.002729 -0.011716 -0.022825
  0B   1dxz      -0.000779 -0.001045 -0.000078 -0.000025  0.000225 -0.014664
  0B   1dyz       0.000227  0.000262  0.000005 -0.000075  0.000648  0.004112
  0B   1dx2y2     0.000256 -0.000153 -0.000520  0.004074 -0.018637  0.012417
  0B   1dxy      -0.000193  0.000104  0.000357 -0.002609  0.012048 -0.004334
  1O   1s        -0.041095  0.230714  0.960535  0.000178 -0.161057 -0.094813
  1O   2s         0.002066 -0.009733 -0.039981  0.002131 -0.334958 -0.198261
  1O   3s        -0.001597  0.004432  0.022219 -0.012279 -0.154507 -0.090991
  1O   1pz       -0.000303  0.000316  0.001073  0.000230  0.049377  0.021743
  1O   1px       -0.000076  0.000052  0.000971 -0.000132  0.026395  0.029458
  1O   1py       -0.000017 -0.000180 -0.000692  0.000058 -0.021235 -0.017400
  1O   2pz        0.000462  0.000250 -0.003690  0.008316  0.007877 -0.000433
  1O   2px        0.000864  0.001939  0.001200 -0.000093 -0.002549  0.001760
  1O   2py       -0.000034 -0.000529 -0.000564 -0.000526  0.000968 -0.000152
  1O   1dz2       0.000013 -0.000064  0.000612 -0.000653 -0.003533 -0.000924
  1O   1dxz      -0.000250 -0.000075  0.000150  0.000234  0.000926 -0.001440
  1O   1dyz       0.000055 -0.000016 -0.000107 -0.000039  0.000060  0.000518
  1O   1dx2y2     0.000018 -0.000088 -0.000347 -0.000270 -0.000959 -0.000200
  1O   1dxy      -0.000037  0.000251  0.000732  0.000424  0.001871  0.000944
  2O   1s         0.986474 -0.041036  0.052166  0.000185 -0.168028  0.237531
  2O   2s        -0.041164  0.001375 -0.002026  0.002132 -0.349545  0.497078
  2O   3s         0.022724 -0.000113  0.002117 -0.012472 -0.160685  0.226302
  2O   1pz       -0.001518 -0.000101 -0.000162  0.000013 -0.053795  0.076962
  2O   1px        0.000324  0.000183 -0.000135  0.000272  0.023607 -0.011855
  2O   1py       -0.000567  0.000033  0.000070 -0.000050 -0.021801  0.025840
  2O   2pz        0.000240  0.001293  0.001783 -0.004244 -0.001518  0.000121
  2O   2px       -0.003848  0.000250 -0.000406  0.006821  0.007678 -0.000413
  2O   2py        0.000880 -0.000270  0.000050 -0.002519 -0.001996  0.000257
  2O   1dz2      -0.000393  0.000217  0.000021 -0.000040 -0.000049  0.000931
  2O   1dxz      -0.000881 -0.000094 -0.000199  0.000097  0.001130  0.000062
  2O   1dyz      -0.000159  0.000038  0.000082 -0.000246 -0.001565  0.001689
  2O   1dx2y2    -0.000280 -0.000070  0.000127 -0.000721 -0.003459  0.003061
  2O   1dxy      -0.000192  0.000090 -0.000040  0.000329  0.001757 -0.001077
  3O   1s        -0.051941 -0.960516  0.228599  0.000183 -0.163215 -0.150193
  3O   2s         0.002254  0.040121 -0.009140  0.002127 -0.339511 -0.314338
  3O   3s        -0.000301 -0.022363  0.004620 -0.012348 -0.156542 -0.143344
  3O   1pz        0.000166 -0.000245  0.000176 -0.000237 -0.000798  0.002854
  3O   1px        0.000053  0.001610 -0.000179 -0.000109 -0.061225 -0.045179
  3O   1py        0.000109  0.000189 -0.000180  0.000076 -0.003714 -0.007302
  3O   2pz       -0.001026 -0.002978  0.001349 -0.004277 -0.005961 -0.002478
  3O   2px        0.001567 -0.002229  0.000026 -0.007133 -0.005131 -0.000426
  3O   2py       -0.000564  0.001046  0.000160  0.001229  0.001804 -0.000478
  3O   1dz2      -0.000103  0.000525  0.000060 -0.000334 -0.000997 -0.002301
  3O   1dxz       0.000036 -0.000666  0.000327 -0.000360 -0.002164 -0.001124
  3O   1dyz      -0.000125 -0.000455  0.000068  0.000380  0.001903  0.001585
  3O   1dx2y2     0.000167  0.000004 -0.000048 -0.000538 -0.002919 -0.001249
  3O   1dxy      -0.000084  0.000294 -0.000013  0.000123  0.000501 -0.000307
  4H   1s         0.000275  0.001018  0.001283  0.001821 -0.091765 -0.062327
  4H   2s        -0.002055 -0.001190 -0.000481  0.001724  0.002314  0.001930
  4H   1pz        0.000267  0.000156  0.000147 -0.000590  0.003517  0.002356
  4H   1px       -0.000125  0.000760  0.002329  0.000384 -0.013647 -0.009121
  4H   1py        0.000030 -0.000575 -0.001476 -0.000215  0.008680  0.005768
  5H   1s        -0.000654 -0.001260  0.000569  0.001832 -0.092300 -0.084805
  5H   2s         0.001305 -0.000034 -0.001869  0.001617  0.002487  0.003883
  5H   1pz       -0.000152 -0.002097  0.000361  0.000612 -0.014350 -0.013295
  5H   1px        0.000364  0.001605 -0.000583  0.000216  0.006054  0.006303
  5H   1py        0.000181  0.000870 -0.000191 -0.000234  0.006057  0.005267
  6H   1s         0.001463 -0.000515 -0.000547  0.001862 -0.095583  0.142753
  6H   2s        -0.000489  0.002301  0.000651  0.001652  0.002718 -0.005606
  6H   1pz       -0.002470  0.000277  0.000110 -0.000087  0.012063 -0.018630
  6H   1px       -0.001448 -0.000151  0.000027 -0.000714  0.012186 -0.017783
  6H   1py       -0.000526  0.000153  0.000103  0.000087  0.001894 -0.002797
                      6         7         8         9        10        11   
                  -1.02648  -0.60230  -0.57836  -0.57671  -0.48225  -0.46412
                   2.00000   2.00000   2.00000   2.00000   2.00000   2.00000
                  --------  --------  --------  --------  --------  --------
  0B   1s         0.000123 -0.167704 -0.004218 -0.003521 -0.076523 -0.008670
  0B   2s         0.000047 -0.355594 -0.008988 -0.007321 -0.170016 -0.019596
  0B   3s         0.000366 -0.016620 -0.000105 -0.000418 -0.012482  0.000383
  0B   1pz       -0.141964 -0.005797  0.244954 -0.020619 -0.000740 -0.087570
  0B   1px       -0.016491 -0.001142 -0.019804 -0.238841  0.016472  0.201007
  0B   1py        0.006715 -0.032494  0.007304  0.058052  0.159604 -0.055809
  0B   2pz        0.007779  0.000891 -0.039058 -0.005014  0.002968 -0.056450
  0B   2px       -0.004094  0.001243 -0.006189  0.037719 -0.015806 -0.002089
  0B   2py        0.000741  0.008197  0.001727 -0.007967 -0.060872  0.000414
  0B   1dz2       0.013366 -0.011997 -0.022229  0.016392 -0.006548  0.041534
  0B   1dxz      -0.024609  0.000760 -0.018691 -0.026476  0.000185 -0.013974
  0B   1dyz       0.009945 -0.000998  0.010189  0.001327  0.002973 -0.002998
  0B   1dx2y2    -0.005784 -0.017253  0.008289 -0.012008 -0.004867 -0.027283
  0B   1dxy       0.005025  0.010206 -0.009926  0.000284  0.005165  0.004786
  1O   1s         0.225212  0.019414 -0.016489  0.036302  0.052283 -0.005334
  1O   2s         0.471166  0.044252 -0.037925  0.078585  0.114855 -0.010729
  1O   3s         0.215873  0.019133 -0.030702  0.083737  0.126332 -0.008218
  1O   1pz       -0.050668  0.217055  0.227700  0.035222  0.203202 -0.276028
  1O   1px       -0.042381 -0.181353 -0.324419  0.143847  0.094891 -0.009858
  1O   1py        0.031961  0.115690  0.179497 -0.064792 -0.249455 -0.054058
  1O   2pz       -0.001294  0.100408  0.089340  0.023946  0.113324 -0.139446
  1O   2px        0.001327 -0.069382 -0.134765  0.061412  0.044955 -0.020062
  1O   2py        0.000046  0.044916  0.072785 -0.026559 -0.136243 -0.028305
  1O   1dz2       0.002033 -0.009961 -0.010052 -0.002158 -0.003105  0.005501
  1O   1dxz      -0.001437  0.001809  0.003901 -0.005296 -0.002499  0.005703
  1O   1dyz       0.000197 -0.000979 -0.001274  0.001818  0.008140 -0.002012
  1O   1dx2y2     0.001344  0.001430  0.002084 -0.000657  0.000448 -0.001000
  1O   1dxy      -0.002686 -0.003398 -0.005550  0.001282  0.002717  0.001667
  2O   1s        -0.030758  0.020376  0.040606 -0.003115  0.046488  0.062929
  2O   2s        -0.064458  0.046083  0.088979 -0.004573  0.102695  0.133153
  2O   3s        -0.029059  0.022562  0.089267 -0.015765  0.110360  0.179363
  2O   1pz        0.000085  0.075472 -0.231676 -0.090795 -0.195185 -0.430560
  2O   1px        0.006945  0.318402 -0.235604 -0.293751 -0.003183  0.250777
  2O   1py       -0.004486 -0.017251 -0.005404  0.022717 -0.231763 -0.164133
  2O   2pz        0.001544  0.020682 -0.102549 -0.037608 -0.102115 -0.227194
  2O   2px        0.002022  0.136686 -0.088287 -0.120422  0.004750  0.130389
  2O   2py       -0.001018 -0.009910 -0.003560  0.010467 -0.131123 -0.087015
  2O   1dz2       0.001166  0.005002 -0.007694 -0.003793 -0.002793 -0.006143
  2O   1dxz      -0.001156  0.008578 -0.000798 -0.008386  0.000981  0.007504
  2O   1dyz       0.000139  0.000004 -0.002418 -0.000052 -0.006316 -0.005666
  2O   1dx2y2    -0.001284 -0.004670  0.002107  0.002812  0.002217 -0.000706
  2O   1dxy       0.000759  0.003801 -0.002120 -0.003673  0.004408  0.002890
  3O   1s        -0.190748  0.021765 -0.021855 -0.031952  0.059374 -0.037323
  3O   2s        -0.399120  0.049252 -0.046019 -0.070976  0.129730 -0.077824
  3O   3s        -0.182756  0.025317 -0.055550 -0.066946  0.147975 -0.119266
  3O   1pz        0.019528 -0.274461  0.090077 -0.418081  0.003889 -0.051099
  3O   1px       -0.066549 -0.068202  0.086032  0.067124 -0.324922  0.187322
  3O   1py       -0.008087  0.118140 -0.056132  0.134219 -0.189608  0.092917
  3O   2pz        0.000993 -0.114327  0.038026 -0.170541 -0.006825 -0.015730
  3O   2px       -0.000541 -0.040370  0.040232  0.035694 -0.174415  0.095133
  3O   2py        0.000211  0.050304 -0.024509  0.051535 -0.106090  0.054735
  3O   1dz2      -0.000089  0.001148 -0.003276 -0.001825  0.003071  0.001131
  3O   1dxz      -0.000117 -0.009790  0.003874 -0.011028 -0.001171 -0.000022
  3O   1dyz       0.001665  0.000199  0.000366 -0.000947 -0.001375 -0.000649
  3O   1dx2y2    -0.002469 -0.002926  0.003987  0.001543 -0.007736  0.002753
  3O   1dxy       0.000098  0.004133 -0.002980  0.003208 -0.005850  0.002479
  4H   1s         0.132884  0.156991  0.235954 -0.080089 -0.097392 -0.044341
  4H   2s        -0.005505  0.019131  0.042651 -0.011558 -0.004802 -0.008328
  4H   1pz       -0.004355  0.004910  0.002485  0.005894  0.009875 -0.011629
  4H   1px        0.020201  0.016720  0.022007 -0.005962 -0.010108 -0.004538
  4H   1py       -0.012589 -0.010341 -0.014657  0.005364 -0.001172  0.001973
  5H   1s        -0.116876  0.155488 -0.041407  0.246666 -0.112324  0.096289
  5H   2s         0.004196  0.018588 -0.011245  0.043966 -0.005674  0.009828
  5H   1pz       -0.018031  0.012563 -0.001854  0.020769 -0.015511  0.010600
  5H   1px        0.007978 -0.015045  0.007717 -0.014403 -0.004328  0.000283
  5H   1py        0.007394 -0.004731 -0.000732 -0.010208 -0.000813 -0.002988
  6H   1s        -0.012581  0.167982 -0.186013 -0.155745 -0.095088 -0.099591
  6H   2s         0.000782  0.020671 -0.031367 -0.030700 -0.004802 -0.006281
  6H   1pz        0.002144 -0.019977  0.014044  0.017186  0.004694 -0.003659
  6H   1px        0.001525 -0.006955  0.014347  0.005591  0.009552  0.022094
  6H   1py        0.000314 -0.004452  0.003601  0.004004 -0.006754 -0.004629
                     12        13        14        15        16        17   
                  -0.46315  -0.43750  -0.40752  -0.40672  -0.06955  -0.04580
                   2.00000   2.00000   2.00000   2.00000   0.00000   0.00000
                  --------  --------  --------  --------  --------  --------
  0B   1s         0.003830 -0.031731 -0.001468  0.000928  0.017199  0.093209
  0B   2s         0.008125 -0.071685 -0.003076  0.001568  0.035917  0.139157
  0B   3s         0.000391  0.006533 -0.000482  0.001955  0.036085  0.709363
  0B   1pz       -0.209561 -0.002612  0.018931 -0.005895  0.002541 -0.001336
  0B   1px       -0.082523 -0.058311  0.001900  0.013782  0.200643 -0.028755
  0B   1py        0.030754 -0.165337 -0.005273 -0.002464  0.679133 -0.097973
  0B   2pz        0.000097  0.001949  0.037335 -0.012120  0.010244 -0.000191
  0B   2px       -0.058571  0.014768  0.004049  0.027911 -0.138697  0.023384
  0B   2py        0.014519  0.068192  0.000406 -0.007214 -0.469846  0.071898
  0B   1dz2      -0.010689 -0.006154 -0.018033  0.011053 -0.003282 -0.015924
  0B   1dxz      -0.046157 -0.000126  0.007946  0.022987 -0.000200  0.000221
  0B   1dyz       0.022868  0.004437 -0.013270  0.029992  0.000569  0.000274
  0B   1dx2y2     0.003786 -0.000022 -0.010357 -0.011397 -0.002708 -0.024078
  0B   1dxy      -0.007250  0.003969 -0.034749 -0.007600  0.002717  0.016293
  1O   1s        -0.060406  0.026031  0.002347 -0.003817 -0.018635 -0.081086
  1O   2s        -0.127486  0.057605  0.006250 -0.008905 -0.041946 -0.189212
  1O   3s        -0.177875  0.065805 -0.004815 -0.006616 -0.097977 -0.446408
  1O   1pz       -0.346213  0.130426  0.111105 -0.006800  0.015428  0.114961
  1O   1px       -0.196935  0.296678  0.021365  0.270051  0.106099  0.050651
  1O   1py        0.160800  0.203368 -0.031871  0.471765  0.208938 -0.094835
  1O   2pz       -0.183823  0.078348  0.061361 -0.003563  0.009019  0.103288
  1O   2px       -0.097382  0.171644  0.014436  0.173910  0.100505  0.064118
  1O   2py        0.085242  0.129090 -0.021249  0.301470  0.165095 -0.091568
  1O   1dz2       0.004723 -0.001387 -0.000629 -0.000697 -0.001186 -0.002909
  1O   1dxz       0.004148 -0.006601 -0.001531 -0.004257  0.003251 -0.003308
  1O   1dyz      -0.004158 -0.005510  0.001024 -0.007565  0.014616 -0.000284
  1O   1dx2y2     0.000951 -0.004131 -0.000080 -0.006040 -0.003732  0.001638
  1O   1dxy      -0.003074  0.001404 -0.000225 -0.002620 -0.005715 -0.000349
  2O   1s         0.015499  0.025995  0.004107  0.000505 -0.018110 -0.081278
  2O   2s         0.032005  0.057867  0.008905  0.002144 -0.041291 -0.189735
  2O   3s         0.057576  0.065364  0.014505 -0.008327 -0.090076 -0.448698
  2O   1pz       -0.006908 -0.251403  0.131902  0.037058 -0.042301 -0.123366
  2O   1px       -0.149725  0.040889 -0.103050  0.005704  0.049054  0.037543
  2O   1py       -0.052903  0.264419 -0.410727 -0.322549  0.223656 -0.096325
  2O   2pz        0.007698 -0.143727  0.083337  0.025347 -0.048699 -0.127134
  2O   2px       -0.069771  0.032560 -0.060267 -0.003317  0.027404  0.023502
  2O   2py       -0.035341  0.161095 -0.263705 -0.205539  0.184589 -0.084155
  2O   1dz2       0.001228 -0.006012  0.003766  0.002025 -0.000728 -0.000998
  2O   1dxz      -0.005289  0.002045 -0.002723 -0.000431  0.001189  0.004139
  2O   1dyz      -0.000356  0.003917 -0.006748 -0.004719 -0.001944 -0.001176
  2O   1dx2y2    -0.000861 -0.004372  0.003020  0.002893  0.008071 -0.000343
  2O   1dxy       0.000664 -0.004149  0.002209  0.001989  0.014349 -0.001313
  3O   1s         0.036159  0.030861 -0.001844  0.000451 -0.022328 -0.081853
  3O   2s         0.075868  0.067880 -0.004770  0.000119 -0.049670 -0.190887
  3O   3s         0.100059  0.080400  0.001863  0.008840 -0.115880 -0.453468
  3O   1pz       -0.106319  0.163840  0.197635 -0.072434  0.046097  0.002571
  3O   1px       -0.414037 -0.206577  0.042498  0.064217  0.026945 -0.156264
  3O   1py        0.095992  0.228901  0.467925 -0.245878  0.214932 -0.057730
  3O   2pz       -0.045318  0.088797  0.121942 -0.051111  0.059116  0.020321
  3O   2px       -0.218297 -0.117575  0.025405  0.036860  0.013779 -0.150535
  3O   2py        0.053083  0.141426  0.299934 -0.154368  0.168972 -0.054706
  3O   1dz2       0.006778  0.001393 -0.001117 -0.000553  0.000734  0.003353
  3O   1dxz      -0.002033  0.004267  0.003521 -0.001806 -0.004476 -0.001121
  3O   1dyz      -0.000658  0.002694  0.000378  0.000545 -0.013241  0.000601
  3O   1dx2y2    -0.008249 -0.003088 -0.000251  0.000922 -0.007264 -0.001639
  3O   1dxy       0.001564  0.006199  0.009546 -0.004957 -0.006933  0.001546
  4H   1s         0.118838 -0.068723 -0.004250  0.010595  0.058517  0.118398
  4H   2s         0.009476 -0.008262  0.007602  0.006845  0.102164  0.390237
  4H   1pz       -0.016703  0.003954  0.002166  0.000320  0.003963  0.002049
  4H   1px        0.009094  0.001284 -0.000385  0.011996  0.005100 -0.009279
  4H   1py       -0.004759  0.013536  0.000658  0.016159  0.006268  0.004297
  5H   1s        -0.025404 -0.083800  0.002458 -0.003488  0.086339  0.120408
  5H   2s         0.000871 -0.013739  0.003478 -0.013712  0.135618  0.407359
  5H   1pz       -0.010221 -0.004282  0.007849 -0.003704  0.001458 -0.008876
  5H   1px       -0.014883  0.000570 -0.000177  0.000906 -0.007126  0.004975
  5H   1py        0.005144  0.012625  0.016888 -0.009164  0.006784  0.002960
  6H   1s        -0.074521 -0.072465 -0.012858  0.001262  0.063031  0.117710
  6H   2s        -0.009102 -0.008469 -0.011136  0.003555  0.105439  0.393120
  6H   1pz        0.008078  0.000938  0.006399  0.002721 -0.005496  0.007942
  6H   1px        0.000923  0.007031 -0.002499 -0.000360  0.003836  0.006943
  6H   1py        0.000799  0.012217 -0.015285 -0.010518  0.006224 -0.000079
                     18        19        20        21        22        23   
                   0.01029   0.01170   0.06359   0.15436   0.15638   0.22442
                   0.00000   0.00000   0.00000   0.00000   0.00000   0.00000
                  --------  --------  --------  --------  --------  --------
  0B   1s         0.001091  0.000421  0.167655 -0.000599 -0.000997  0.201968
  0B   2s         0.003896  0.001955  0.433402 -0.009442 -0.007432  1.194749
  0B   3s         0.014587 -0.004222  1.565680  0.036027  0.023859 -1.224599
  0B   1pz       -0.014877 -0.144254 -0.010115  0.527804  0.141133  0.041821
  0B   1px        0.132782 -0.017060 -0.008873  0.136868 -0.510470  0.182381
  0B   1py       -0.034795  0.001064 -0.045344 -0.074270  0.138549  0.690227
  0B   2pz        0.032537  0.102827  0.019261 -1.429382 -0.963363 -0.051565
  0B   2px       -0.087357  0.035619  0.002125 -0.926824  1.387550  0.243659
  0B   2py        0.027460 -0.009390  0.002631  0.249794 -0.408120  0.910536
  0B   1dz2      -0.019581 -0.008738 -0.031234  0.039989  0.046927 -0.014767
  0B   1dxz      -0.010267  0.020446  0.000324 -0.052190  0.044209 -0.001631
  0B   1dyz       0.000433 -0.011710  0.000854  0.022314 -0.022551  0.001405
  0B   1dx2y2     0.012090  0.003345 -0.045821 -0.023670 -0.026729 -0.035333
  0B   1dxy       0.001742 -0.004605  0.027136  0.003727  0.007671  0.021134
  1O   1s         0.029798 -0.074791 -0.023181  0.068693  0.024505 -0.012243
  1O   2s         0.069543 -0.159675 -0.062897  0.159131  0.053772 -0.050264
  1O   3s         0.167853 -0.568322 -0.075779  0.521142  0.276265  0.105140
  1O   1pz        0.056498  0.008103  0.214321 -0.106204 -0.173797  0.114927
  1O   1px        0.003423  0.230507 -0.146215  0.205744 -0.028950 -0.021948
  1O   1py        0.040156 -0.130307  0.089674 -0.076970 -0.031520 -0.049333
  1O   2pz        0.038119 -0.009525  0.250649 -0.177238 -0.247518  0.057759
  1O   2px       -0.047768  0.260211 -0.221109  0.271465  0.023834 -0.014251
  1O   2py        0.054977 -0.159008  0.128560 -0.093494 -0.067166 -0.087841
  1O   1dz2       0.007430 -0.000495  0.006341 -0.003134 -0.012215  0.014848
  1O   1dxz       0.004199 -0.005905 -0.001581  0.013366 -0.018508 -0.005027
  1O   1dyz      -0.001562  0.003302 -0.000715 -0.005187  0.006320  0.013900
  1O   1dx2y2    -0.003830  0.000467 -0.006026 -0.003268  0.006418  0.000398
  1O   1dxy       0.003674 -0.003828  0.005761  0.003500 -0.011992 -0.003009
  2O   1s         0.051359  0.061186 -0.021857 -0.013554 -0.073298 -0.018157
  2O   2s         0.107528  0.135167 -0.059902 -0.034100 -0.168958 -0.067287
  2O   3s         0.412398  0.418502 -0.067234 -0.024855 -0.603464  0.080923
  2O   1pz        0.208342  0.088805  0.033397  0.162914  0.066811 -0.044296
  2O   1px        0.090840  0.118526  0.264895 -0.027337  0.248008  0.107987
  2O   1py        0.008451  0.037457 -0.019283 -0.020948 -0.030017 -0.083797
  2O   2pz        0.203152  0.146227  0.084183  0.159423  0.096095 -0.030864
  2O   2px        0.121855  0.143688  0.336447 -0.061744  0.379407  0.042072
  2O   2py        0.021539  0.040735 -0.024005 -0.030500 -0.054133 -0.102803
  2O   1dz2       0.002824  0.001095 -0.006682 -0.008372 -0.003995 -0.008708
  2O   1dxz      -0.000025 -0.011057 -0.007531  0.024956 -0.006833 -0.007038
  2O   1dyz      -0.001682  0.001441  0.001429 -0.001130 -0.000511 -0.002195
  2O   1dx2y2    -0.004125 -0.003097 -0.001486  0.012186  0.003853  0.020632
  2O   1dxy      -0.000447 -0.000872 -0.001104 -0.002701 -0.003897  0.001430
  3O   1s        -0.077011  0.012502 -0.019822 -0.058193  0.046950 -0.014628
  3O   2s        -0.166847  0.021779 -0.054594 -0.133332  0.111304 -0.056741
  3O   3s        -0.557708  0.142823 -0.054831 -0.514113  0.311114  0.089654
  3O   1pz        0.187091 -0.083561 -0.243099 -0.174764  0.184805 -0.091285
  3O   1px       -0.112964  0.105994 -0.077629 -0.112318 -0.088758 -0.117203
  3O   1py       -0.088728 -0.026068  0.101754  0.106639  0.041352 -0.014067
  3O   2pz        0.234716 -0.071349 -0.324033 -0.297973  0.223387 -0.048100
  3O   2px       -0.140598  0.074105 -0.063052 -0.146810 -0.082200 -0.086731
  3O   2py       -0.107504 -0.005831  0.126267  0.149879  0.048048 -0.061342
  3O   1dz2       0.008242  0.003338 -0.004341 -0.012342 -0.021818  0.003845
  3O   1dxz      -0.002069 -0.005089  0.009191  0.008356 -0.003483  0.013459
  3O   1dyz      -0.004958  0.002313  0.000889  0.005270  0.007229 -0.012086
  3O   1dx2y2    -0.003191 -0.001672 -0.001127  0.005638  0.004318  0.001838
  3O   1dxy       0.002152  0.001737  0.000315 -0.006728 -0.004313 -0.013190
  4H   1s        -0.127197  0.236809 -0.162899 -0.017458  0.178849  0.005489
  4H   2s        -0.302821  0.973330 -0.720183  0.307419  0.721982  0.174820
  4H   1pz       -0.005399  0.005375  0.006878 -0.017230  0.026055  0.017238
  4H   1px        0.002108 -0.011739  0.004575 -0.007828  0.002575  0.005630
  4H   1py        0.001112  0.009582  0.002121  0.005331 -0.001708  0.010987
  5H   1s         0.264010 -0.017132 -0.161096 -0.147527 -0.093232 -0.007836
  5H   2s         0.958880 -0.225399 -0.737336 -0.780783 -0.088974  0.082916
  5H   1pz       -0.013506  0.002821  0.002512  0.007374  0.006549 -0.003526
  5H   1px        0.001648 -0.005204 -0.006262  0.009782  0.027679 -0.013148
  5H   1py        0.006634 -0.004610  0.005663 -0.004240 -0.002447  0.014077
  6H   1s        -0.152157 -0.223567 -0.159598  0.163666 -0.080215  0.005988
  6H   2s        -0.711945 -0.727398 -0.715305  0.457901 -0.641596  0.156878
  6H   1pz       -0.008904 -0.003180 -0.006731 -0.021032 -0.005680 -0.012958
  6H   1px       -0.008135 -0.010992  0.004475  0.020746 -0.002909  0.018057
  6H   1py       -0.004460  0.001234  0.002899 -0.008759 -0.002060  0.007042
                     24        25        26        27        28        29   
                   0.24613   0.29737   0.30028   0.48483   0.48572   0.49162
                   0.00000   0.00000   0.00000   0.00000   0.00000   0.00000
                  --------  --------  --------  --------  --------  --------
  0B   1s        -0.252159  0.003397 -0.001902 -0.000033  0.000422 -0.006485
  0B   2s        -1.629121  0.019779 -0.017281 -0.071385  0.054258 -0.364132
  0B   3s         2.149101 -0.025858  0.038689  0.118376 -0.077899  0.500093
  0B   1pz        0.041212  0.953808 -0.282082  0.280149  0.129838 -0.049811
  0B   1px        0.149299 -0.293255 -0.912179 -0.096642  0.280327  0.069948
  0B   1py        0.538765  0.047831  0.266138  0.001269 -0.064466 -0.070141
  0B   2pz        0.014910  1.792544 -0.353055 -0.173258 -0.039225  0.042019
  0B   2px        0.223610 -0.327026 -1.776055  0.055259 -0.174325 -0.013836
  0B   2py        0.826016  0.008200  0.523366  0.016066  0.035333  0.077043
  0B   1dz2       0.019834  0.130312  0.018956 -0.090812 -0.101058 -0.034677
  0B   1dxz      -0.003072 -0.023941  0.143704 -0.116799  0.075042  0.044667
  0B   1dyz       0.000915 -0.000631 -0.043469  0.018932 -0.069128 -0.012953
  0B   1dx2y2     0.019859 -0.067306 -0.007924  0.055873  0.053080 -0.064260
  0B   1dxy      -0.014412  0.039871  0.010681  0.041177 -0.058020  0.032074
  1O   1s         0.030228  0.019442  0.011830  0.009800 -0.039465 -0.043460
  1O   2s         0.112331  0.119208  0.030453  0.009340 -0.179608 -0.198675
  1O   3s        -0.105759 -0.486171  0.165590  0.166353  0.369197  0.328004
  1O   1pz       -0.135510 -0.264674  0.100696 -0.039747  0.095674  0.172924
  1O   1px       -0.020566  0.009546 -0.039382  0.047703  0.231918  0.227020
  1O   1py       -0.022965  0.023815  0.025286 -0.028331 -0.135901 -0.160389
  1O   2pz       -0.076854 -0.073204  0.017104 -0.114469 -0.164868 -0.211288
  1O   2px       -0.053277 -0.011207  0.107867  0.009499  0.023769  0.017992
  1O   2py       -0.039794  0.013341 -0.025900  0.003944 -0.000335  0.003232
  1O   1dz2      -0.021619 -0.049685 -0.006228 -0.011341 -0.029652 -0.031853
  1O   1dxz       0.015578  0.016733 -0.019261  0.010572 -0.001121 -0.011214
  1O   1dyz       0.002999 -0.006213  0.005282 -0.003257  0.005763  0.004354
  1O   1dx2y2    -0.005437 -0.002499  0.008559  0.003752  0.028742  0.023968
  1O   1dxy       0.002784 -0.001247 -0.004672 -0.002093 -0.058926 -0.057181
  2O   1s         0.028000 -0.001692 -0.021332  0.023717  0.045646 -0.030009
  2O   2s         0.104467 -0.040302 -0.113768  0.122859  0.178936 -0.156990
  2O   3s        -0.096497  0.377349  0.346156 -0.339918 -0.180736  0.364813
  2O   1pz        0.081256 -0.074607 -0.107913  0.191024  0.240729 -0.280625
  2O   1px       -0.096042  0.207754  0.131563  0.073099 -0.007226 -0.029683
  2O   1py        0.005247 -0.048879 -0.062055  0.028027  0.073518 -0.080020
  2O   2pz        0.072632 -0.112292  0.011287 -0.052646 -0.031395  0.108261
  2O   2px       -0.052415  0.004217  0.062595  0.139773  0.055561 -0.217469
  2O   2py       -0.039252  0.008722 -0.027272 -0.049127 -0.018231  0.068836
  2O   1dz2       0.008098 -0.017474 -0.012460 -0.031836 -0.019028  0.028817
  2O   1dxz       0.005676  0.001482 -0.032817 -0.036939 -0.045459  0.052182
  2O   1dyz      -0.004519 -0.002463  0.007104 -0.008668 -0.015916  0.014761
  2O   1dx2y2    -0.014876  0.025557  0.026196 -0.015290 -0.028589  0.015683
  2O   1dxy       0.017197 -0.016990 -0.015524 -0.010732 -0.004637  0.010736
  3O   1s         0.029402 -0.017889  0.010515 -0.055944  0.009451 -0.018359
  3O   2s         0.108441 -0.079403  0.088090 -0.238855  0.076439 -0.092660
  3O   3s        -0.090422  0.113837 -0.515352  0.371568 -0.334646  0.165254
  3O   1pz        0.038483  0.006772  0.157396  0.153518 -0.134568  0.047265
  3O   1px        0.102238 -0.069039  0.220859 -0.317353  0.110052 -0.164523
  3O   1py       -0.039695 -0.009944 -0.058952 -0.060346  0.040770 -0.024360
  3O   2pz       -0.005111 -0.079574 -0.021213  0.106963 -0.115866  0.078976
  3O   2px        0.065800  0.021579  0.090874  0.131423 -0.153622  0.113979
  3O   2py       -0.060503 -0.013466 -0.024089 -0.030126  0.034528 -0.027806
  3O   1dz2      -0.011521 -0.015165 -0.018782  0.042369 -0.011171  0.015798
  3O   1dxz      -0.018694  0.020690 -0.039419 -0.051915  0.037998 -0.020126
  3O   1dyz       0.002941 -0.005206  0.010337 -0.047037  0.014936 -0.016129
  3O   1dx2y2    -0.011507  0.015426 -0.014754  0.015423 -0.006381  0.001406
  3O   1dxy       0.000544 -0.011971  0.013200  0.020987 -0.008787  0.013580
  4H   1s        -0.000063  0.146235  0.157551  0.032876  0.821014  0.834012
  4H   2s        -0.515220 -0.597351 -0.689778 -0.018695 -0.891496 -0.972679
  4H   1pz       -0.022394 -0.023205  0.010182 -0.022849 -0.009155  0.004727
  4H   1px        0.009874  0.002403 -0.005500 -0.014561 -0.100630 -0.100206
  4H   1py        0.012484  0.002770 -0.012343  0.005360  0.063635  0.068854
  5H   1s         0.002745 -0.196370  0.069055  1.021581 -0.434133  0.381817
  5H   2s        -0.572168  0.868852 -0.253083 -1.143092  0.464352 -0.476469
  5H   1pz        0.019260  0.002481  0.018697 -0.110712  0.043603 -0.041711
  5H   1px        0.016668 -0.000488  0.022822  0.073385 -0.056900  0.029804
  5H   1py        0.009438  0.013538  0.007403  0.048565 -0.015713  0.023501
  6H   1s         0.007321  0.052260 -0.206673 -0.577676 -0.711700  0.726235
  6H   2s        -0.531706 -0.259270  0.882655  0.598667  0.809746 -0.850874
  6H   1pz        0.003522 -0.009023 -0.007579 -0.080347 -0.071893  0.093252
  6H   1px       -0.016025  0.016370  0.013936 -0.032748 -0.067137  0.051405
  6H   1py        0.019862 -0.020906  0.000411 -0.014547 -0.015626  0.023552
                     30        31        32        33        34        35   
                   0.74534   0.74825   0.79999   0.80284   0.81083   0.91647
                   0.00000   0.00000   0.00000   0.00000   0.00000   0.00000
                  --------  --------  --------  --------  --------  --------
  0B   1s         0.006018  0.001730  0.002872  0.032560 -0.048690  0.004533
  0B   2s         0.073346  0.012543  0.057623  0.576551 -0.860308  0.047683
  0B   3s         0.010693 -0.019527  0.062784  0.466928 -0.753608 -0.051000
  0B   1pz        0.061711 -0.189305 -0.607596  0.218819  0.089804 -0.046678
  0B   1px        0.243856  0.068381 -0.226312 -0.469256 -0.319386  0.013766
  0B   1py       -0.067931 -0.022977  0.071731  0.147007  0.042529 -0.019796
  0B   2pz       -0.195335  0.107860  0.231201  0.483880  0.301431 -0.064054
  0B   2px       -0.131192 -0.168561 -0.577269  0.219422  0.047716  0.253326
  0B   2py        0.050785  0.045805  0.165566 -0.026709 -0.162677 -0.094887
  0B   1dz2       0.022995  0.109458  0.191963 -0.141902 -0.228506  0.186911
  0B   1dxz       0.203031 -0.017620 -0.254718 -0.111639 -0.087557 -0.215399
  0B   1dyz       0.168520 -0.061863  0.123161  0.205741  0.151565 -0.336900
  0B   1dx2y2     0.040627  0.064538 -0.178110  0.245194 -0.065581  0.183136
  0B   1dxy       0.034854  0.216996 -0.108819 -0.052238  0.097052  0.498843
  1O   1s         0.008539 -0.063544 -0.122072 -0.049605  0.045436  0.013626
  1O   2s         0.041490 -0.302501 -0.572108 -0.293766  0.144530  0.087981
  1O   3s        -0.012647  0.248714  0.435777  0.395760  0.111755 -0.075913
  1O   1pz       -0.040757 -0.197853 -0.353264 -0.130605  0.394636 -0.171073
  1O   1px       -0.332178  0.126658 -0.022075  0.097708 -0.059883 -0.019766
  1O   1py       -0.487856  0.241729 -0.183719 -0.268199 -0.149608 -0.210504
  1O   2pz        0.014601  0.382370  0.930151  0.203822 -0.843973  0.354396
  1O   2px        0.382362 -0.224320 -0.166057 -0.341075  0.133697 -0.040606
  1O   2py        0.477333 -0.183196  0.289279  0.410428  0.152172  0.457534
  1O   1dz2      -0.000147  0.004120  0.024065 -0.008473 -0.016068  0.011698
  1O   1dxz      -0.011010 -0.007073 -0.005949  0.016350  0.024032  0.007615
  1O   1dyz      -0.008428  0.013224 -0.006274 -0.016739 -0.018561  0.062960
  1O   1dx2y2     0.007675  0.011371 -0.002020 -0.004594 -0.004003  0.006956
  1O   1dxy       0.004967  0.002486 -0.017810  0.008750  0.023147 -0.004144
  2O   1s         0.052538  0.048772  0.070511 -0.112913  0.020060 -0.005972
  2O   2s         0.254399  0.227199  0.410719 -0.477969  0.101591 -0.075071
  2O   3s        -0.239034 -0.140404 -0.547704  0.194505 -0.082850  0.224005
  2O   1pz       -0.120831  0.095254  0.091888  0.238041 -0.014008 -0.236687
  2O   1px        0.163208 -0.002750  0.166348 -0.448356  0.217690 -0.002557
  2O   1py        0.032958 -0.660206  0.247740  0.038032 -0.036906  0.162245
  2O   2pz        0.109856 -0.095988 -0.261280 -0.443432 -0.070448  0.548936
  2O   2px       -0.344810 -0.156136 -0.382268  1.145329 -0.369165  0.072985
  2O   2py       -0.021842  0.702677 -0.263758 -0.206982  0.052920 -0.314604
  2O   1dz2       0.005955 -0.000610 -0.015213 -0.010250 -0.001021 -0.010423
  2O   1dxz      -0.004078  0.002043  0.014774  0.001354 -0.003273  0.014458
  2O   1dyz       0.012753  0.002988 -0.011002  0.021528  0.001880 -0.006654
  2O   1dx2y2    -0.009932 -0.010839  0.027326  0.038246  0.001963 -0.041457
  2O   1dxy       0.009072 -0.011306  0.003789 -0.010877 -0.005157 -0.072697
  3O   1s        -0.080087  0.014164  0.039758  0.052579  0.116312 -0.010314
  3O   2s        -0.373138  0.082488  0.109639  0.306042  0.544308 -0.004802
  3O   3s         0.255146 -0.157328  0.145491 -0.422821 -0.387569 -0.238239
  3O   1pz        0.276111  0.064372 -0.000640  0.026110 -0.300724 -0.358966
  3O   1px        0.212131 -0.037018 -0.282601  0.115642 -0.304255  0.140732
  3O   1py        0.418387  0.405321 -0.009929  0.207321  0.323127  0.006067
  3O   2pz       -0.517106  0.012111  0.125845  0.093695  0.845528  0.879532
  3O   2px       -0.339230  0.023819  0.676750 -0.129962  0.649266 -0.376051
  3O   2py       -0.338819 -0.459144 -0.057896 -0.271517 -0.524255 -0.126802
  3O   1dz2       0.009261 -0.011085 -0.026643  0.020474  0.001423 -0.033867
  3O   1dxz       0.002820 -0.005441 -0.019510  0.001952 -0.010648 -0.020963
  3O   1dyz      -0.011336 -0.008759  0.030970 -0.013937  0.015872 -0.038171
  3O   1dx2y2    -0.003974  0.002488 -0.010498 -0.014465 -0.018004  0.015627
  3O   1dxy      -0.012502  0.001379  0.006947 -0.008355 -0.007826  0.011973
  4H   1s         0.018325  0.026230  0.068722 -0.169512 -0.211771 -0.003700
  4H   2s         0.067138 -0.272672 -0.802657 -0.486731  0.406211 -0.121603
  4H   1pz        0.032416  0.058498 -0.004268 -0.053774 -0.089093  0.090985
  4H   1px        0.008383 -0.054158 -0.066115 -0.082414  0.008274 -0.018235
  4H   1py       -0.001801 -0.009154  0.075247  0.071750 -0.016369  0.033392
  5H   1s         0.048057  0.044394 -0.260434  0.125103 -0.054738  0.331462
  5H   2s        -0.345018  0.098300  0.153120  0.302179  0.937307  0.377529
  5H   1pz       -0.071580  0.062857  0.011749 -0.001760  0.072482  0.212223
  5H   1px       -0.021184  0.023938  0.080652 -0.111592 -0.071575  0.021313
  5H   1py        0.000173 -0.021244 -0.002519 -0.011006 -0.076944  0.030433
  6H   1s        -0.009585 -0.029684  0.194406  0.195408  0.022812 -0.226501
  6H   2s         0.231221  0.212180  0.524046 -0.813802  0.284626 -0.191964
  6H   1pz       -0.006802 -0.017634 -0.135087  0.028640 -0.028574  0.097006
  6H   1px       -0.079298 -0.016310  0.021834  0.089316 -0.040983  0.018550
  6H   1py        0.036180  0.018322 -0.062407  0.026012 -0.015188 -0.106620
                     36        37        38        39        40        41   
                   0.92114   0.92782   0.94687   1.00894   1.02261   1.15979
                   0.00000   0.00000   0.00000   0.00000   0.00000   0.00000
                  --------  --------  --------  --------  --------  --------
  0B   1s         0.001984  0.020617 -0.012208  0.000207 -0.001551 -0.051083
  0B   2s         0.016047 -0.042684  0.015542  0.008016 -0.050010 -0.738411
  0B   3s        -0.007748 -0.733296  0.274631  0.012850 -0.152090 -0.252952
  0B   1pz        0.060497 -0.011017 -0.012416  0.053034  0.018526  0.079854
  0B   1px       -0.042381 -0.022125  0.045938  0.014421 -0.096910 -0.038247
  0B   1py        0.013038 -0.002886  0.081119 -0.009441 -0.002828  0.164253
  0B   2pz       -0.179735 -0.015774  0.012107 -0.869575  0.466637 -0.373912
  0B   2px       -0.010026 -0.122939 -0.128921  0.401254  0.889382  0.051514
  0B   2py        0.067595 -0.230386 -0.681008 -0.094472 -0.207857 -0.203035
  0B   1dz2      -0.124697  0.070386 -0.056871 -0.114920  0.121709  0.036433
  0B   1dxz      -0.332633  0.001081 -0.026190 -0.024822 -0.160234 -0.054992
  0B   1dyz      -0.518265  0.010778 -0.057165  0.544166 -0.027058 -0.000408
  0B   1dx2y2    -0.114033  0.143506 -0.197151 -0.040241 -0.348043  0.381858
  0B   1dxy      -0.362802 -0.123507 -0.002346 -0.162812 -0.458757 -0.119646
  1O   1s        -0.006797 -0.080470  0.061333 -0.007025  0.023112 -0.112364
  1O   2s        -0.001767 -0.414931  0.332428 -0.019962  0.088581 -0.819535
  1O   3s        -0.167128  0.364726 -0.357576  0.095067  0.038499  1.671026
  1O   1pz        0.034235  0.035341 -0.043966 -0.252623  0.005057  0.138364
  1O   1px       -0.299943 -0.446295 -0.094603 -0.159551  0.357299  0.137672
  1O   1py        0.031207 -0.040713 -0.473698  0.180982 -0.115307 -0.141105
  1O   2pz       -0.114262 -0.064421  0.052735  0.259775  0.090352 -0.317364
  1O   2px        0.746241  0.868785  0.024360  0.582418 -0.902579 -0.469845
  1O   2py       -0.128375 -0.087055  0.780021 -0.607420  0.334729  0.487567
  1O   1dz2      -0.000834 -0.004375  0.007255  0.006161  0.010291 -0.005095
  1O   1dxz       0.042399  0.036059 -0.005851  0.004124 -0.007262  0.062955
  1O   1dyz       0.041842 -0.008897  0.034485 -0.079810 -0.016468 -0.006954
  1O   1dx2y2    -0.033333  0.013219 -0.030364  0.041144 -0.019064  0.005074
  1O   1dxy      -0.041316 -0.024740 -0.002986 -0.023234  0.000541  0.050995
  2O   1s         0.003873 -0.075414  0.057718  0.039274 -0.020606 -0.076604
  2O   2s         0.006201 -0.383717  0.297649  0.184767 -0.101425 -0.517559
  2O   3s         0.117754  0.332830 -0.272258 -0.155299 -0.061606  0.828747
  2O   1pz       -0.119935  0.346305 -0.014920 -0.414645 -0.043707 -0.314543
  2O   1px       -0.238800  0.149317 -0.169616 -0.175259  0.222810  0.142015
  2O   1py       -0.001971 -0.223600 -0.465379 -0.056941 -0.106119 -0.147836
  2O   2pz        0.331141 -0.706628  0.184264  1.025325  0.115398  0.736133
  2O   2px        0.610867 -0.336414  0.296568  0.714299 -0.203593  0.121925
  2O   2py        0.061114  0.286615  0.753474  0.159468  0.281204  0.277505
  2O   1dz2      -0.009265  0.043858 -0.029816 -0.043593 -0.027853  0.012407
  2O   1dxz      -0.003393 -0.001107 -0.009974 -0.012374 -0.006639 -0.030978
  2O   1dyz      -0.042084  0.010149 -0.011032 -0.004651 -0.032891 -0.025013
  2O   1dx2y2     0.021061  0.007575  0.012352  0.013773  0.016996 -0.039354
  2O   1dxy      -0.004350  0.012523  0.035677  0.037530  0.065755 -0.011920
  3O   1s        -0.021445 -0.067554  0.056062 -0.022895 -0.043181 -0.079180
  3O   2s        -0.138284 -0.360078  0.297402 -0.107379 -0.231202 -0.580207
  3O   3s         0.202520  0.361475 -0.291365 -0.023193  0.381845  1.127912
  3O   1pz        0.087506 -0.344359 -0.004448 -0.301849 -0.196718  0.050581
  3O   1px       -0.118995  0.088352 -0.067562 -0.007574  0.377865 -0.207974
  3O   1py        0.275318 -0.189990 -0.420870  0.004471  0.099612 -0.101416
  3O   2pz       -0.163320  0.617496 -0.056624  0.600498  0.847358 -0.343836
  3O   2px        0.169174 -0.198111  0.180710 -0.001767 -0.744072  0.576333
  3O   2py       -0.526698  0.215656  0.631597  0.010004 -0.425477  0.373817
  3O   1dz2       0.012428 -0.008669 -0.009818 -0.003076  0.013132 -0.008415
  3O   1dxz       0.011198 -0.029648  0.016463 -0.005197 -0.030203 -0.004240
  3O   1dyz       0.061673 -0.002405 -0.011741 -0.009644  0.042502  0.044239
  3O   1dx2y2     0.032018  0.019397 -0.016407 -0.037644  0.066609 -0.017939
  3O   1dxy       0.056733 -0.007986 -0.002374 -0.019952  0.030483 -0.038870
  4H   1s         0.262505  0.330521 -0.152186  0.430094 -0.363804 -0.589078
  4H   2s         0.300101  0.126742  0.046656  0.368817 -0.153627 -0.084844
  4H   1pz       -0.056328 -0.143579  0.081855 -0.109659 -0.019387 -0.201555
  4H   1px        0.165248  0.089363  0.031260  0.023506 -0.075224 -0.128078
  4H   1py        0.061609 -0.039011  0.117708 -0.132777  0.056429  0.022199
  5H   1s        -0.085144  0.219517 -0.139176  0.107360  0.532955 -0.547976
  5H   2s        -0.060745  0.095878  0.084008 -0.009391  0.401498 -0.258681
  5H   1pz       -0.001799  0.095311 -0.023346  0.022214  0.100235 -0.077451
  5H   1px        0.095989  0.047172 -0.021565 -0.067653  0.039766  0.113487
  5H   1py       -0.101541 -0.049149  0.096653  0.049090 -0.176429 -0.062349
  6H   1s        -0.159166  0.332474 -0.197111 -0.510291 -0.108391 -0.500845
  6H   2s        -0.311800  0.115593  0.025154 -0.354564 -0.200218 -0.083950
  6H   1pz        0.044509 -0.013651 -0.036966  0.045563 -0.055548  0.172498
  6H   1px        0.125195 -0.154429  0.117928  0.141905  0.077471 -0.072526
  6H   1py       -0.077292  0.027236  0.084610  0.071774  0.067179 -0.005120
                     42        43        44        45        46        47   
                   1.18001   1.18754   1.20502   1.28724   1.29586   1.34265
                   0.00000   0.00000   0.00000   0.00000   0.00000   0.00000
                  --------  --------  --------  --------  --------  --------
  0B   1s         0.019483  0.002102  0.158853  0.006709  0.001280  0.037584
  0B   2s         0.241601 -0.032025  1.341064  0.062369  0.035003  0.329241
  0B   3s         0.176081  0.095770  1.799158  0.010444 -0.023446  0.070985
  0B   1pz        0.296297 -0.473784  0.002648  0.655052 -0.066482 -0.017715
  0B   1px       -0.429670 -0.312696  0.032417 -0.100340 -0.644805 -0.037468
  0B   1py        0.102980  0.121346 -0.000573  0.026046  0.179888 -0.135201
  0B   2pz       -1.122428  1.106534 -0.004228 -0.581904  0.322201 -0.000481
  0B   2px        1.077287  1.115910 -0.110513  0.375717  0.567346  0.069074
  0B   2py       -0.252844 -0.372227  0.061353 -0.119597 -0.158971  0.125669
  0B   1dz2      -0.477227  0.380457  0.516401  0.025053 -0.559707  0.160236
  0B   1dxz      -0.395485 -0.495786  0.037255  0.542875 -0.024992 -0.007430
  0B   1dyz      -0.000302  0.357086 -0.030690 -0.196629 -0.127939  0.050845
  0B   1dx2y2     0.312170  0.013573  0.752744 -0.012675  0.273737  0.197795
  0B   1dxy       0.059372  0.173611 -0.505183 -0.151308 -0.091159 -0.105119
  1O   1s        -0.072505  0.062331  0.075477 -0.108704  0.083385 -0.001811
  1O   2s        -0.541831  0.561280  0.675249 -0.827270  0.436361  0.032515
  1O   3s         1.250849 -1.636131 -1.794048  1.746411 -0.359291 -0.217688
  1O   1pz        0.085403  0.405093  0.047936  0.173012 -0.277786  0.080623
  1O   1px       -0.002421  0.037732  0.031995 -0.021210  0.148821  0.052099
  1O   1py        0.085871 -0.003312 -0.044671 -0.018044 -0.034404  0.078322
  1O   2pz       -0.445144 -0.097206  0.708594 -0.812732  0.007685  0.102675
  1O   2px        0.098206 -0.101753 -0.040105 -0.278345 -0.183424 -0.251296
  1O   2py       -0.134513 -0.069082  0.045765  0.303973  0.108582 -0.353508
  1O   1dz2      -0.015403  0.018444  0.058144 -0.087860 -0.001151  0.023225
  1O   1dxz       0.092315 -0.017262 -0.020548 -0.079170 -0.018004  0.012903
  1O   1dyz      -0.011186 -0.016247  0.007923  0.030202  0.051772 -0.031782
  1O   1dx2y2    -0.017879  0.016518  0.056117  0.023732  0.015974 -0.128511
  1O   1dxy       0.007406 -0.008694 -0.039506  0.086594  0.003141 -0.070465
  2O   1s         0.131267  0.047106  0.058202  0.122634  0.054777  0.000072
  2O   2s         1.045486  0.329649  0.561777  0.791402  0.516601  0.038312
  2O   3s        -2.584735 -0.648560 -1.611266 -1.287837 -1.380472 -0.211245
  2O   1pz       -0.105695  0.137729 -0.087930  0.009305  0.037486 -0.047642
  2O   1px        0.198293 -0.238590  0.074379 -0.291698  0.035408  0.058973
  2O   1py       -0.041463 -0.030813 -0.049510  0.086565  0.013050  0.054781
  2O   2pz       -0.199507 -0.247744 -0.253143 -0.190876 -0.681317  0.052049
  2O   2px        0.140090  0.525973  0.524715  0.388995  0.349581  0.062165
  2O   2py       -0.238782  0.015129 -0.118130 -0.129856 -0.353919 -0.325434
  2O   1dz2      -0.040862 -0.046616  0.028771  0.033802  0.070216 -0.022432
  2O   1dxz       0.040931  0.038803 -0.008604 -0.035206 -0.081301 -0.016942
  2O   1dyz       0.021341 -0.010873  0.002810  0.017253  0.121585  0.097410
  2O   1dx2y2     0.050030  0.046289  0.068659  0.058050  0.017987 -0.008403
  2O   1dxy      -0.048592 -0.034375 -0.035675  0.011637  0.002228  0.036018
  3O   1s         0.019513 -0.129567  0.075562 -0.019561 -0.129092  0.001774
  3O   2s         0.067281 -1.005567  0.693671  0.019044 -0.898411  0.046520
  3O   3s         0.192696  2.391100 -1.910904 -0.516865  1.666598 -0.199393
  3O   1pz        0.148353  0.044649 -0.046791 -0.169607 -0.213047  0.004646
  3O   1px        0.375656  0.042859 -0.124619 -0.076503 -0.151279 -0.028046
  3O   1py       -0.180464  0.014353 -0.009062  0.030739  0.035373  0.091199
  3O   2pz       -0.072896  0.183081 -0.337874  0.021252  0.235581 -0.169977
  3O   2px       -0.446929  0.464286 -0.506468 -0.530006  0.669396 -0.108741
  3O   2py        0.279961  0.022056  0.172039 -0.046665 -0.040889 -0.295294
  3O   1dz2       0.041129 -0.082648  0.060146 -0.085294  0.051747 -0.070736
  3O   1dxz       0.013946 -0.051752  0.016129  0.008142 -0.004463  0.025199
  3O   1dyz      -0.017495  0.028736 -0.015473 -0.031587  0.063255 -0.071711
  3O   1dx2y2    -0.013949 -0.010256  0.062607  0.073772 -0.089401 -0.005171
  3O   1dxy      -0.006039 -0.036330 -0.033631  0.042861  0.028696  0.056004
  4H   1s        -0.117059  0.256332  0.273496 -0.521567 -0.017673 -0.007749
  4H   2s         0.517268  0.239713 -0.244915  0.116753  0.064214  0.051194
  4H   1pz       -0.201699  0.022705 -0.021419  0.231544  0.223142 -0.120514
  4H   1px       -0.008471  0.002800  0.010631 -0.162581  0.000436  0.329726
  4H   1py        0.060334 -0.055503 -0.099052 -0.181865 -0.081550  0.540327
  5H   1s         0.010699 -0.448667  0.304271  0.233111 -0.402303  0.016997
  5H   2s        -0.434715  0.271374 -0.203811 -0.092412  0.064501  0.028596
  5H   1pz       -0.040959  0.043647 -0.003629  0.261339 -0.132422  0.236585
  5H   1px       -0.106378  0.216955 -0.027357  0.306304 -0.070295  0.076941
  5H   1py        0.012414  0.006797 -0.140720  0.181733 -0.056892  0.451575
  6H   1s         0.493838  0.055927  0.239326  0.223721  0.451175 -0.017581
  6H   2s        -0.025873 -0.606758 -0.162770 -0.001465 -0.096550  0.033865
  6H   1pz       -0.160845 -0.098949  0.005494 -0.051214  0.102275 -0.056981
  6H   1px        0.106071  0.112598 -0.082048 -0.016238 -0.266415 -0.038961
  6H   1py       -0.087324 -0.083497 -0.063355  0.006120  0.350417  0.452187
                     48        49        50        51        52        53   
                   1.35252   1.36032   1.48191   1.68970   1.69392   2.00751
                   0.00000   0.00000   0.00000   0.00000   0.00000   0.00000
                  --------  --------  --------  --------  --------  --------
  0B   1s        -0.003136 -0.011567  0.080648  0.001112 -0.000324  0.014427
  0B   2s        -0.040756 -0.118920  1.283757  0.031149  0.000944  0.210226
  0B   3s         0.011448 -0.026888  0.005614  0.014933 -0.001781 -0.182044
  0B   1pz       -0.020639  0.265362 -0.022165  0.141544 -0.365023  0.071726
  0B   1px       -0.223136 -0.014647  0.017351 -0.351947 -0.138160  0.033433
  0B   1py        0.081953  0.007977  0.037179  0.094245  0.032735 -0.017200
  0B   2pz        0.011230 -0.371869  0.029871 -0.762899  0.228685  0.061584
  0B   2px        0.321655  0.019905 -0.026375  0.202112  0.745774  0.005437
  0B   2py       -0.103516  0.003137 -0.108210 -0.031483 -0.204796 -0.047746
  0B   1dz2      -0.163326  0.061544 -0.093496  0.458597  0.312181  0.001974
  0B   1dxz       0.101223  0.282199  0.002244 -0.403418  0.497557  0.075656
  0B   1dyz       0.154389  0.178624  0.064721 -0.010357 -0.320134  0.002642
  0B   1dx2y2    -0.048763  0.016157 -0.144678 -0.332010 -0.139730 -0.053202
  0B   1dxy      -0.240263  0.186495  0.109674  0.007005  0.155702 -0.007150
  1O   1s         0.019701 -0.052046  0.059180 -0.089231  0.024186  0.002100
  1O   2s         0.080379 -0.383595  0.424699 -0.559090  0.168153  0.012778
  1O   3s         0.028621  0.803561 -0.755849  0.825173 -0.285878 -0.025399
  1O   1pz       -0.061456  0.035031 -0.125306  0.258271 -0.041044 -0.014573
  1O   1px        0.094546 -0.011632  0.030306 -0.097584  0.088488  0.015279
  1O   1py       -0.000544  0.055698 -0.023638  0.059849 -0.034783 -0.017470
  1O   2pz       -0.073145 -0.338231  0.618678 -0.282008  0.466625  0.025064
  1O   2px       -0.280528 -0.187932 -0.029633  0.145721 -0.616190 -0.035925
  1O   2py       -0.137618 -0.270680  0.034927 -0.036704  0.262156  0.021246
  1O   1dz2      -0.003127 -0.049856  0.060442  0.027974  0.012981 -0.020187
  1O   1dxz      -0.036416 -0.076826  0.104250 -0.001276 -0.022496 -0.026072
  1O   1dyz      -0.033300  0.001764 -0.084275  0.037130 -0.019417 -0.038192
  1O   1dx2y2    -0.079776 -0.122714  0.004479 -0.025491  0.000202 -0.004130
  1O   1dxy      -0.024802 -0.023707 -0.018020  0.015798 -0.013161  0.001455
  2O   1s         0.024621  0.043412  0.053350  0.067783  0.071796 -0.001914
  2O   2s         0.210334  0.244071  0.381147  0.442370  0.441037  0.004222
  2O   3s        -0.538223 -0.277561 -0.668227 -0.686225 -0.613424 -0.116959
  2O   1pz        0.027624 -0.034628  0.036644 -0.034207  0.064451 -0.080854
  2O   1px        0.005767 -0.128954 -0.124609 -0.208834 -0.219266 -0.093432
  2O   1py       -0.078490  0.040306  0.018447  0.039063  0.045212  0.003740
  2O   2pz       -0.316470  0.110332 -0.271880  0.280810 -0.198498  0.015382
  2O   2px        0.209235  0.103524  0.526904  0.806889 -0.077511  0.067176
  2O   2py        0.407085 -0.063579 -0.077220 -0.165586 -0.024766 -0.018136
  2O   1dz2       0.120424 -0.003931  0.093842  0.009177  0.040438  0.030061
  2O   1dxz      -0.034995 -0.004480 -0.082718  0.014175  0.013992  0.001634
  2O   1dyz      -0.126773  0.022465  0.051711  0.027123 -0.007819 -0.001095
  2O   1dx2y2     0.044546 -0.003035 -0.018868 -0.004995 -0.015688  0.027114
  2O   1dxy      -0.065125 -0.017345 -0.023455 -0.037168  0.005063  0.034790
  3O   1s        -0.046131 -0.001716  0.055125  0.029802 -0.094109 -0.093514
  3O   2s        -0.309562  0.040559  0.385944  0.170861 -0.601632 -0.421547
  3O   3s         0.561718 -0.257451 -0.651308 -0.204744  0.903301 -0.508343
  3O   1pz       -0.076891 -0.102898  0.108738  0.033399 -0.237903  0.456663
  3O   1px       -0.007428 -0.011105  0.086138  0.101604 -0.139245 -0.301412
  3O   1py        0.026141 -0.051698 -0.044346 -0.031234  0.083460 -0.191620
  3O   2pz        0.122119  0.211221 -0.356096  0.541939  0.627891  0.102490
  3O   2px        0.134848 -0.190439 -0.452089 -0.059689  0.185653 -0.119347
  3O   2py       -0.162108  0.433569  0.220125 -0.089353 -0.130480 -0.038526
  3O   1dz2      -0.002069  0.041759 -0.085799 -0.015407 -0.020064  0.115298
  3O   1dxz       0.013201 -0.058738 -0.016934 -0.042766  0.014803 -0.128365
  3O   1dyz      -0.028239  0.060495  0.018575  0.001632 -0.024146 -0.147631
  3O   1dx2y2    -0.069111  0.064669  0.110895 -0.011057 -0.028498  0.091025
  3O   1dxy       0.035259 -0.127358 -0.007519 -0.034793 -0.044863  0.062472
  4H   1s        -0.080376 -0.091513  0.108019 -0.023709 -0.261794 -0.016715
  4H   2s         0.076070 -0.039300  0.043285  0.147386  0.067272  0.028438
  4H   1pz        0.085857  0.236945 -0.516095  0.061119 -0.697449 -0.037391
  4H   1px        0.186216  0.306564 -0.090822 -0.073304 -0.041849  0.019219
  4H   1py        0.273457  0.461971  0.014613 -0.045022  0.104248 -0.006379
  5H   1s        -0.012080  0.083051  0.062550  0.231535  0.082742  0.275508
  5H   2s        -0.076759 -0.069093  0.049399 -0.136851  0.112990  0.498491
  5H   1pz        0.032353 -0.192471  0.163189 -0.239155 -0.227214  0.962324
  5H   1px       -0.126041  0.129274  0.484642 -0.524123 -0.353887 -0.528380
  5H   1py        0.288864 -0.630934 -0.193133  0.043846 -0.023560 -0.408415
  6H   1s         0.093549 -0.034396  0.085760 -0.204362  0.161805  0.019589
  6H   2s        -0.022244  0.080012  0.041479 -0.024520 -0.175734  0.072988
  6H   1pz        0.304789 -0.018871  0.341342  0.355181 -0.212099 -0.122461
  6H   1px       -0.236630  0.007397 -0.388940 -0.489175  0.204681 -0.117106
[...]
                  6          7          8          9         10         11    
      0      -0.001056   0.000511   0.000627  -0.000332   0.000368  -0.001026
      1       0.000511   0.000620  -0.000176   0.000368   0.000640   0.000344
      2       0.000627  -0.000176   0.000547  -0.001026   0.000344  -0.000196
      3      -0.000081   0.000079   0.000370   0.000174   0.000028  -0.000212
      4       0.000079   0.000220  -0.000091   0.000028   0.000227   0.000092
      5       0.000370  -0.000091  -0.000189  -0.000212   0.000092  -0.000451
      6       0.001320  -0.001407   0.000988  -0.000435   0.000205  -0.000145
      7      -0.001407  -0.002859  -0.000426   0.000205   0.000177   0.000044
      8       0.000988  -0.000426  -0.000215  -0.000145   0.000044   0.000208
      9      -0.000435   0.000205  -0.000145  -0.000865  -0.000728   0.000237
     10       0.000205   0.000177   0.000044  -0.000728  -0.003065  -0.000305
     11      -0.000145   0.000044   0.000208   0.000237  -0.000305   0.002176
     12      -0.000091   0.000032   0.000097   0.000135  -0.000001   0.000058
     13       0.000032   0.000023  -0.000025  -0.000001   0.000140   0.000010
     14       0.000097  -0.000025  -0.000045   0.000058   0.000010  -0.000480
     15      -0.000241   0.000125  -0.000278   0.001452   0.000077   0.001158
     16       0.000125   0.000099   0.000091   0.000077   0.001866  -0.000208
     17      -0.000278   0.000091  -0.000064   0.001158  -0.000208  -0.001258
     18       0.000584   0.000455  -0.001659  -0.000129   0.000051  -0.000070
     19       0.000455   0.001720   0.000583   0.000051   0.000016   0.000022
     20      -0.001659   0.000583  -0.000243  -0.000070   0.000022   0.000001
                 12         13         14         15         16         17    
      0      -0.000072   0.000047   0.000246   0.000068   0.000023  -0.000159
      1       0.000047   0.000113  -0.000059   0.000023   0.000114   0.000066
      2       0.000246  -0.000059  -0.000185  -0.000159   0.000066  -0.000327
      3      -0.001335   0.000924   0.000563   0.000029   0.000002  -0.000023
      4       0.000924   0.001614  -0.000162   0.000002   0.000031   0.000016
      5       0.000563  -0.000162   0.001781  -0.000023   0.000016  -0.000172
      6      -0.000091   0.000032   0.000097  -0.000241   0.000125  -0.000278
      7       0.000032   0.000023  -0.000025   0.000125   0.000099   0.000091
      8       0.000097  -0.000025  -0.000045  -0.000278   0.000091  -0.000064
      9       0.000135  -0.000001   0.000058   0.001452   0.000077   0.001158
     10      -0.000001   0.000140   0.000010   0.000077   0.001866  -0.000208
     11       0.000058   0.000010  -0.000480   0.001158  -0.000208  -0.001258
     12       0.001373  -0.001007  -0.000972   0.000002   0.000000   0.000003
     13      -0.001007  -0.001893   0.000239   0.000000   0.000002  -0.000000
     14      -0.000972   0.000239  -0.001057   0.000003  -0.000000  -0.000014
     15       0.000002   0.000000   0.000003  -0.001303  -0.000229  -0.000693
     16       0.000000   0.000002  -0.000000  -0.000229  -0.002113   0.000032
     17       0.000003  -0.000000  -0.000014  -0.000693   0.000032   0.001840
     18      -0.000011   0.000004   0.000005  -0.000007   0.000003  -0.000008
     19       0.000004   0.000001  -0.000001   0.000003   0.000001   0.000003
     20       0.000005  -0.000001   0.000000  -0.000008   0.000003  -0.000005
                  18         19         20    
      0      -0.000337   0.000140  -0.000078
      1       0.000140   0.000082   0.000024
      2      -0.000078   0.000024   0.000111
      3      -0.000336   0.000131   0.000232
      4       0.000131   0.000104  -0.000064
      5       0.000232  -0.000064   0.000027
      6       0.000584   0.000455  -0.001659
      7       0.000455   0.001720   0.000583
      8      -0.001659   0.000583  -0.000243
      9      -0.000129   0.000051  -0.000070
     10       0.000051   0.000016   0.000022
     11      -0.000070   0.000022   0.000001
     12      -0.000011   0.000004   0.000005
     13       0.000004   0.000001  -0.000001
     14       0.000005  -0.000001   0.000000
     15      -0.000007   0.000003  -0.000008
     16       0.000003   0.000001   0.000003
     17      -0.000008   0.000003  -0.000005
     18       0.000237  -0.000783   0.001578
     19      -0.000783  -0.001924  -0.000566
     20       0.001578  -0.000566   0.000109

done   (      0.0 sec)
Dipol derivatives                                ... done   (      0.2 sec)

-------
TIMINGS
-------

Total SCF Hessian time: 0 days 0 hours 0 min 17 sec 
                   F(y)            G[Q(x)]           CPSCF         Total
Table01         0.4  0.02         0.4  0.03         7.2  0.42        17.0 
Table01a        0.4  0.02,        0.4, 0.03,        7.2  0.42        17.0 
Table01b        0.4   2.5,        0.4,  2.6,        7.2  42.5        17.0 

Writing the Hessian file to the disk             ... done


Maximum memory used throughout the entire calculation: 132.5 MB

-----------------------
VIBRATIONAL FREQUENCIES
-----------------------

Scaling factor for frequencies =  1.000000000  (already applied!)

   0:         0.00 cm**-1
   1:         0.00 cm**-1
   2:         0.00 cm**-1
   3:         0.00 cm**-1
   4:         0.00 cm**-1
   5:         0.00 cm**-1
   6:       397.34 cm**-1
   7:       428.35 cm**-1
   8:       428.56 cm**-1
   9:       501.18 cm**-1
  10:       501.23 cm**-1
  11:       644.62 cm**-1
  12:       847.12 cm**-1
  13:       992.53 cm**-1
  14:       992.56 cm**-1
  15:       998.87 cm**-1
  16:      1422.33 cm**-1
  17:      1422.37 cm**-1
  18:      3705.90 cm**-1
  19:      3706.67 cm**-1
  20:      3706.71 cm**-1


------------
NORMAL MODES
------------

These modes are the Cartesian displacements weighted by the diagonal matrix
M(i,i)=1/sqrt(m[i]) where m[i] is the mass of the displaced atom
Thus, these vectors are normalized but *not* orthogonal

                  0          1          2          3          4          5    
      0       0.000000   0.000000   0.000000   0.000000   0.000000   0.000000
      1       0.000000   0.000000   0.000000   0.000000   0.000000   0.000000
      2       0.000000   0.000000   0.000000   0.000000   0.000000   0.000000
      3       0.000000   0.000000   0.000000   0.000000   0.000000   0.000000
      4       0.000000   0.000000   0.000000   0.000000   0.000000   0.000000
      5       0.000000   0.000000   0.000000   0.000000   0.000000   0.000000
      6       0.000000   0.000000   0.000000   0.000000   0.000000   0.000000
      7       0.000000   0.000000   0.000000   0.000000   0.000000   0.000000
      8       0.000000   0.000000   0.000000   0.000000   0.000000   0.000000
      9       0.000000   0.000000   0.000000   0.000000   0.000000   0.000000
     10       0.000000   0.000000   0.000000   0.000000   0.000000   0.000000
     11       0.000000   0.000000   0.000000   0.000000   0.000000   0.000000
     12       0.000000   0.000000   0.000000   0.000000   0.000000   0.000000
     13       0.000000   0.000000   0.000000   0.000000   0.000000   0.000000
     14       0.000000   0.000000   0.000000   0.000000   0.000000   0.000000
     15       0.000000   0.000000   0.000000   0.000000   0.000000   0.000000
     16       0.000000   0.000000   0.000000   0.000000   0.000000   0.000000
     17       0.000000   0.000000   0.000000   0.000000   0.000000   0.000000
     18       0.000000   0.000000   0.000000   0.000000   0.000000   0.000000
     19       0.000000   0.000000   0.000000   0.000000   0.000000   0.000000
     20       0.000000   0.000000   0.000000   0.000000   0.000000   0.000000
                  6          7          8          9         10         11    
      0       0.011371   0.033905  -0.162416   0.000132   0.000106  -0.261192
      1       0.038396  -0.016973   0.046620   0.000020   0.000073  -0.883602
      2       0.001356   0.168886   0.037274  -0.000047   0.000006  -0.037944
      3       0.007867  -0.166162   0.188278   0.008642  -0.018652   0.059981
      4       0.026114   0.042954  -0.061187   0.029722  -0.062879   0.203178
      5       0.000819   0.147349   0.128931   0.001137  -0.002709   0.009035
      6       0.008031  -0.088860  -0.184103  -0.020383   0.001757   0.060252
      7       0.026083   0.036761   0.051983  -0.069308   0.005729   0.203164
      8       0.001497  -0.241467   0.053113  -0.003003   0.000199   0.008653
      9       0.007332   0.194894   0.069108   0.011682   0.016856   0.059915
     10       0.026203  -0.058251  -0.009648   0.039646   0.057131   0.203349
     11       0.001215   0.018551  -0.245713   0.001898   0.002530   0.008456
     12      -0.162677  -0.211109   0.265729  -0.183661   0.138549  -0.019529
     13      -0.552002   0.063786  -0.107534  -0.621834   0.470123  -0.066752
     14      -0.023751  -0.122515   0.627535  -0.027079   0.019749  -0.001762
     15      -0.164084   0.464113   0.509313  -0.029064  -0.228738  -0.019537
     16      -0.551511  -0.145657  -0.149586  -0.096766  -0.773413  -0.067795
     17      -0.023825   0.122587  -0.078859  -0.004109  -0.033160  -0.002957
     18      -0.163884   0.337750  -0.196400   0.212248   0.089688  -0.019174
     19      -0.552616  -0.076782   0.056375   0.717434   0.302816  -0.066539
     20      -0.023012  -0.611832   0.062136   0.031182   0.013038  -0.003312
                 12         13         14         15         16         17    
      0       0.000151  -0.050322  -0.016480  -0.000243  -0.234255  -0.560715
      1       0.000404   0.014172   0.007095   0.000054   0.043959   0.175873
      2      -0.000008   0.017835  -0.052206   0.000000   0.586983  -0.236928
      3      -0.092223  -0.045468  -0.048335   0.026890   0.068485   0.052190
      4       0.011983   0.017643   0.012616  -0.010075  -0.011834  -0.018248
      5       0.352873  -0.098902   0.038282   0.050009  -0.195319   0.066130
      6       0.338478   0.077809   0.024000   0.028975   0.123417   0.154988
      7      -0.096024  -0.021954  -0.003152  -0.006388  -0.032638  -0.046134
      8      -0.096919  -0.024585  -0.090914  -0.050512  -0.088973   0.007510
      9      -0.246389  -0.045974   0.094754  -0.055826   0.006909   0.151204
     10       0.083717   0.011416  -0.029610   0.016487   0.001898  -0.050224
     11      -0.255957   0.050287   0.037540   0.000154  -0.091494   0.128923
     12      -0.088124   0.094920   0.020589  -0.083626   0.049994  -0.072537
     13       0.006986  -0.056863  -0.024308   0.048703  -0.001804   0.042758
     14       0.438607   0.676592   0.427462  -0.562432  -0.301940  -0.497888
     15      -0.319358   0.617271  -0.345156   0.515854  -0.503271  -0.030239
     16       0.107464  -0.194736   0.106946  -0.161049   0.159490   0.005572
     17      -0.294064   0.285920  -0.116966   0.202396  -0.250832   0.077862
     18       0.407980   0.043848  -0.616378  -0.430231  -0.190051   0.427750
     19      -0.113659  -0.013158   0.161041   0.111406   0.046633  -0.115376
     20      -0.144402   0.008058   0.488907   0.365571   0.222325  -0.254201
                  18         19         20    
      0       0.000111  -0.002347  -0.002759
      1      -0.000029   0.000816   0.000708
      2      -0.000063  -0.002847   0.002480
      3       0.034849  -0.041683  -0.020323
      4      -0.009919   0.011887   0.005808
      5      -0.008496   0.009627   0.004413
      6      -0.023823  -0.026942   0.016727
      7       0.008206   0.009329  -0.005775
      8      -0.026743  -0.031345   0.019079
      9      -0.009869  -0.000629  -0.015437
     10       0.001505   0.000068   0.002465
     11       0.032911   0.002743   0.048858
     12      -0.560052   0.680718   0.330143
     13       0.160351  -0.194828  -0.094486
     14       0.114446  -0.140741  -0.068343
     15       0.176074   0.014924   0.265922
     16      -0.029814  -0.002518  -0.044769
     17      -0.517909  -0.044095  -0.788097
     18       0.364426   0.428744  -0.264375
     19      -0.126924  -0.149222   0.092011
     20       0.441108   0.516532  -0.318499


-----------
IR SPECTRUM
-----------

 Mode    freq (cm**-1)   T**2         TX         TY         TZ
-------------------------------------------------------------------
   6:       397.34  324.595859  ( -5.115754 -17.258792  -0.747679)
   7:       428.35   24.252952  (  4.706737  -1.448953   0.010788)
   8:       428.56   24.230673  ( -0.073449  -0.208033   4.917520)
   9:       501.18    0.000180  (  0.000534  -0.012960  -0.003450)
  10:       501.23    0.000088  ( -0.002182  -0.008092  -0.004163)
  11:       644.62   58.047718  ( -2.155343  -7.301092  -0.310265)
  12:       847.12    0.000076  (  0.004512   0.007452   0.000685)
  13:       992.53  169.108488  (  0.812514  -0.793893  12.954460)
  14:       992.56  169.079641  (-12.444233   3.634718   1.004757)
  15:       998.87    0.004458  ( -0.014953   0.000692   0.065065)
  16:      1422.33  362.219681  (-11.735102   2.835520  14.712814)
  17:      1422.37  362.235708  (-13.981536   4.650377 -12.046840)
  18:      3705.90    0.098853  ( -0.072608   0.003755   0.305887)
  19:      3706.67   81.080618  (  8.631556  -2.558594   0.174512)
  20:      3706.71   80.989210  (  0.270413   0.308739  -8.990037)

The first frequency considered to be a vibration is 6
The total number of vibrations considered is 15


--------------------------
THERMOCHEMISTRY AT 298.15K
--------------------------

Temperature         ... 298.15 K
Pressure            ... 1.00 atm
Total Mass          ... 61.83 AMU

Throughout the following assumptions are being made:
  (1) The electronic state is orbitally nondegenerate
  (2) There are no thermally accessible electronically excited states
  (3) Hindered rotations indicated by low frequency modes are not
      treated as such but are treated as vibrations and this may
      cause some error
  (4) All equations used are the standard statistical mechanics
      equations for an ideal gas
  (5) All vibrations are strictly harmonic

freq.     397.34  E(vib)   ...       0.20 
freq.     428.35  E(vib)   ...       0.18 
freq.     428.56  E(vib)   ...       0.18 
freq.     501.18  E(vib)   ...       0.14 
freq.     501.23  E(vib)   ...       0.14 
freq.     644.62  E(vib)   ...       0.09 
freq.     847.12  E(vib)   ...       0.04 
freq.     992.53  E(vib)   ...       0.02 
freq.     992.56  E(vib)   ...       0.02 
freq.     998.87  E(vib)   ...       0.02 
freq.    1422.33  E(vib)   ...       0.00 
freq.    1422.37  E(vib)   ...       0.00 
freq.    3705.90  E(vib)   ...       0.00 
freq.    3706.67  E(vib)   ...       0.00 
freq.    3706.71  E(vib)   ...       0.00 

------------
INNER ENERGY
------------

The inner energy is: U= E(el) + E(ZPE) + E(vib) + E(rot) + E(trans)
    E(el)   - is the total energy from the electronic structure calculation
              = E(kin-el) + E(nuc-el) + E(el-el) + E(nuc-nuc)
    E(ZPE)  - the the zero temperature vibrational energy from the frequency calculation
    E(vib)  - the the finite temperature correction to E(ZPE) due to population
              of excited vibrational states
    E(rot)  - is the rotational thermal energy
    E(trans)- is the translational thermal energy

Summary of contributions to the inner energy U:
Electronic energy                ...   -252.19271542 Eh
Zero point energy                ...      0.04714974 Eh      29.59 kcal/mol
Thermal vibrational correction   ...      0.00165313 Eh       1.04 kcal/mol
Thermal rotational correction    ...      0.00141627 Eh       0.89 kcal/mol
Thermal translational correction ...      0.00141627 Eh       0.89 kcal/mol
-----------------------------------------------------------------------
Total thermal energy                   -252.14108000 Eh


Summary of corrections to the electronic energy:
(perhaps to be used in another calculation)
Total thermal correction                  0.00448567 Eh       2.81 kcal/mol
Non-thermal (ZPE) correction              0.04714974 Eh      29.59 kcal/mol
-----------------------------------------------------------------------
Total correction                          0.05163541 Eh      32.40 kcal/mol


--------
ENTHALPY
--------

The enthalpy is H = U + kB*T
                kB is Boltzmann's constant
Total free energy                 ...   -252.14108000 Eh 
Thermal Enthalpy correction       ...      0.00094421 Eh       0.59 kcal/mol
-----------------------------------------------------------------------
Total Enthalpy                    ...   -252.14013579 Eh


Note: Only C1 symmetry has been detected, increase convergence thresholds 
      if your molecule has a higher symmetry. Symmetry factor of 1.0 is   
      used for the rotational entropy correction. 
 

Note: Rotational entropy computed according to Herzberg 
Infrared and Raman Spectra, Chapter V,1, Van Nostrand Reinhold, 1945 
Point Group:  C1, Symmetry Number:   1  
Rotational constants in cm-1:     0.324104     0.324090     0.162048 

Vibrational entropy computed according to the QRRHO of S. Grimme
Chem.Eur.J. 2012 18 9955


-------
ENTROPY
-------

The entropy contributions are T*S = T*(S(el)+S(vib)+S(rot)+S(trans))
     S(el)   - electronic entropy
     S(vib)  - vibrational entropy
     S(rot)  - rotational entropy
     S(trans)- translational entropy
The entropies will be listed as mutliplied by the temperature to get
units of energy

Electronic entropy                ...      0.00000000 Eh      0.00 kcal/mol
Vibrational entropy               ...      0.00232281 Eh      1.46 kcal/mol
Rotational entropy                ...      0.01143377 Eh      7.17 kcal/mol
Translational entropy             ...      0.01819035 Eh     11.41 kcal/mol
-----------------------------------------------------------------------
Final entropy term                ...      0.03194693 Eh     20.05 kcal/mol

In case the symmetry of your molecule has not been determined correctly
or in case you have a reason to use a different symmetry number we print 
out the resulting rotational entropy values for sn=1,12 :
 --------------------------------------------------------
|  sn= 1 | S(rot)=       0.01143377 Eh      7.17 kcal/mol|
|  sn= 2 | S(rot)=       0.01077931 Eh      6.76 kcal/mol|
|  sn= 3 | S(rot)=       0.01039648 Eh      6.52 kcal/mol|
|  sn= 4 | S(rot)=       0.01012486 Eh      6.35 kcal/mol|
|  sn= 5 | S(rot)=       0.00991417 Eh      6.22 kcal/mol|
|  sn= 6 | S(rot)=       0.00974202 Eh      6.11 kcal/mol|
|  sn= 7 | S(rot)=       0.00959648 Eh      6.02 kcal/mol|
|  sn= 8 | S(rot)=       0.00947040 Eh      5.94 kcal/mol|
|  sn= 9 | S(rot)=       0.00935919 Eh      5.87 kcal/mol|
|  sn=10 | S(rot)=       0.00925971 Eh      5.81 kcal/mol|
|  sn=11 | S(rot)=       0.00916972 Eh      5.75 kcal/mol|
|  sn=12 | S(rot)=       0.00908757 Eh      5.70 kcal/mol|
 --------------------------------------------------------


-------------------
GIBBS FREE ENERGY
-------------------

The Gibbs free energy is G = H - T*S

Total enthalpy                    ...   -252.14013579 Eh 
Total entropy correction          ...     -0.03194693 Eh    -20.05 kcal/mol
-----------------------------------------------------------------------
Final Gibbs free energy         ...   -252.17208272 Eh

For completeness - the Gibbs free energy minus the electronic energy
G-E(el)                           ...      0.02063270 Eh     12.95 kcal/mol


Timings for individual modules:

Sum of individual times         ...      109.110 sec (=   1.818 min)
GTO integral calculation        ...       11.377 sec (=   0.190 min)  10.4 %
SCF iterations                  ...       61.234 sec (=   1.021 min)  56.1 %
SCF Gradient evaluation         ...       18.261 sec (=   0.304 min)  16.7 %
Geometry relaxation             ...        0.327 sec (=   0.005 min)   0.3 %
Analytical frequency calculation...       17.909 sec (=   0.298 min)  16.4 %
                             ****ORCA TERMINATED NORMALLY****
TOTAL RUN TIME: 0 days 0 hours 1 minutes 51 seconds 269 msec
