
                                 *****************
                                 * O   R   C   A *
                                 *****************

           --- An Ab Initio, DFT and Semiempirical electronic structure package ---

                  #######################################################
                  #                        -***-                        #
                  #          Department of theory and spectroscopy      #
                  #               Directorship: Frank Neese             #
                  #        Max Planck Institute fuer Kohlenforschung    #
                  #                Kaiser Wilhelm Platz 1               #
                  #                 D-45470 Muelheim/Ruhr               #
                  #                      Germany                        #
                  #                                                     #
                  #                  All rights reserved                #
                  #                        -***-                        #
                  #######################################################


                         Program Version 4.2.1 -  RELEASE  -


 With contributions from (in alphabetic order):
   Daniel Aravena         : Magnetic Suceptibility
   Michael Atanasov       : Ab Initio Ligand Field Theory (pilot matlab implementation)
   Alexander A. Auer      : GIAO ZORA, VPT2
   Ute Becker             : Parallelization
   Giovanni Bistoni       : ED, misc. LED, open-shell LED, HFLD
   Martin Brehm           : Molecular dynamics
   Dmytro Bykov           : SCF Hessian
   Vijay G. Chilkuri      : MRCI spin determinant printing, contributions to CSF-ICE
   Dipayan Datta          : RHF DLPNO-CCSD density
   Achintya Kumar Dutta   : EOM-CC, STEOM-CC
   Dmitry Ganyushin       : Spin-Orbit,Spin-Spin,Magnetic field MRCI
   Miquel Garcia          : C-PCM Hessian, Gaussian charge scheme
   Yang Guo               : DLPNO-NEVPT2, CIM, IAO-localization
   Andreas Hansen         : Spin unrestricted coupled pair/coupled cluster methods
   Benjamin Helmich-Paris : CASSCF linear response (MC-RPA)
   Lee Huntington         : MR-EOM, pCC
   Robert Izsak           : Overlap fitted RIJCOSX, COSX-SCS-MP3, EOM
   Christian Kollmar      : KDIIS, OOCD, Brueckner-CCSD(T), CCSD density
   Simone Kossmann        : Meta GGA functionals, TD-DFT gradient, OOMP2, MP2 Hessian
   Martin Krupicka        : AUTO-CI
   Lucas Lang             : DCDCAS
   Dagmar Lenk            : GEPOL surface, SMD
   Dimitrios Liakos       : Extrapolation schemes; Compound Job, initial MDCI parallelization
   Dimitrios Manganas     : Further ROCIS development; embedding schemes
   Dimitrios Pantazis     : SARC Basis sets
   Taras Petrenko         : DFT Hessian,TD-DFT gradient, ASA, ECA, R-Raman, ABS, FL, XAS/XES, NRVS
   Peter Pinski           : DLPNO-MP2, DLPNO-MP2 Gradient
   Christoph Reimann      : Effective Core Potentials
   Marius Retegan         : Local ZFS, SOC
   Christoph Riplinger    : Optimizer, TS searches, QM/MM, DLPNO-CCSD(T), (RO)-DLPNO pert. Triples
   Tobias Risthaus        : Range-separated hybrids, TD-DFT gradient, RPA, STAB
   Michael Roemelt        : Original ROCIS implementation
   Masaaki Saitow         : Open-shell DLPNO-CCSD energy and density
   Barbara Sandhoefer     : DKH picture change effects
   Avijit Sen             : IP-ROCIS
   Kantharuban Sivalingam : CASSCF convergence, NEVPT2, FIC-MRCI
   Bernardo de Souza      : ESD, SOC TD-DFT
   Georgi Stoychev        : AutoAux, RI-MP2 NMR
   Willem Van den Heuvel  : Paramagnetic NMR
   Boris Wezisla          : Elementary symmetry handling
   Frank Wennmohs         : Technical directorship


 We gratefully acknowledge several colleagues who have allowed us to
 interface, adapt or use parts of their codes:
   Stefan Grimme, W. Hujo, H. Kruse,             : VdW corrections, initial TS optimization,
                  C. Bannwarth                     DFT functionals, gCP, sTDA/sTD-DF
   Ed Valeev, F. Pavosevic, A. Kumar             : LibInt (2-el integral package), F12 methods
   Garnet Chan, S. Sharma, J. Yang, R. Olivares  : DMRG
   Ulf Ekstrom                                   : XCFun DFT Library
   Mihaly Kallay                                 : mrcc  (arbitrary order and MRCC methods)
   Andreas Klamt, Michael Diedenhofen            : otool_cosmo (COSMO solvation model)
   Jiri Pittner, Ondrej Demel                    : Mk-CCSD
   Frank Weinhold                                : gennbo (NPA and NBO analysis)
   Christopher J. Cramer and Donald G. Truhlar   : smd solvation model
   Lars Goerigk                                  : TD-DFT with DH, B97 family of functionals
   V. Asgeirsson, H. Jonsson                     : NEB implementation
   FAccTs GmbH                                   : IRC, NEB, NEB-TS, Multilevel, MM, QM/MM, CI optimization
   S Lehtola, MJT Oliveira, MAL Marques          : LibXC Library


 Your calculation uses the libint2 library for the computation of 2-el integrals
 For citations please refer to: http://libint.valeyev.net

 Your ORCA version has been built with support for libXC version: 4.2.3
 For citations please refer to: https://tddft.org/programs/libxc/

 This ORCA versions uses:
   CBLAS   interface :  Fast vector & matrix operations
   LAPACKE interface :  Fast linear algebra routines
   SCALAPACK package :  Parallel linear algebra routines


Your calculation utilizes the geometrical counterpoise correction gCP
Please cite in your paper:
H.Kruse, S. Grimme J.Chem.Phys., 136, (2012), 154101 
   

Your calculation utilizes the atom-pairwise dispersion correction
based on tight binding partial charges (D4)
Cite in your paper:
E.Caldeweyher, C.Bannwarth, S.Grimme, J.Chem.Phys., (2017), 147, 034112.
E.Caldeweyher, S.Ehlert, A.Hansen, H.Neugebauer, S.Grimme, J.Chem.Phys., (2018), in progress.
   

----- Orbital basis set information -----
Your calculation utilizes the basis: def2-SVP
   F. Weigend and R. Ahlrichs, Phys. Chem. Chem. Phys. 7, 3297 (2005).

----- AuxJ basis set information -----
Your calculation utilizes the auxiliary basis: def2/J
   F. Weigend, Phys. Chem. Chem. Phys. 8, 1057 (2006).

================================================================================
                                        WARNINGS
                       Please study these warnings very carefully!
================================================================================


WARNING: Geometry Optimization
  ===> : Switching off AutoStart
         For restart on a previous wavefunction, please use MOREAD

INFO   : the flag for use of LIBINT has been found!

================================================================================
                                       INPUT FILE
================================================================================
NAME = C60.inp
|  1> ! revPBE D4 gCP(DFT/SVP) def2-SVP Opt Freq TightOpt TightSCF Grid4 FinalGrid5
|  2> 
|  3> %pal
|  4>  nprocs 12
|  5> end
|  6> 
|  7> *xyz 0 1
|  8> C        0.000008000      1.242305000      3.350373000
|  9> C       -1.181453000      0.383851000      3.350005000
| 10> C       -0.730198000     -1.005165000      3.350316000
| 11> C        0.730215000     -1.005164000      3.350311000
| 12> C        1.181468000      0.383851000      3.349999000
| 13> C        2.321353000      0.754344000      2.609404000
| 14> C        3.051561000     -0.250784000      1.841535000
| 15> C        2.616358000     -1.590909000      1.841738000
| 16> C        1.434616000     -1.974674000      2.609391000
| 17> C        0.704466000     -2.979976000      1.841693000
| 18> C       -0.704456000     -2.979976000      1.841696000
| 19> C       -1.434603000     -1.974675000      2.609399000
| 20> C       -2.616349000     -1.590911000      1.841751000
| 21> C       -3.051552000     -0.250786000      1.841550000
| 22> C       -2.321342000      0.754343000      2.609416000
| 23> C       -2.321481000      1.996934000      1.841800000
| 24> C       -3.051374000      1.759347000      0.599238000
| 25> C       -3.502787000      0.370445000      0.599279000
| 26> C       -3.502788000     -0.370446000     -0.599262000
| 27> C       -3.051376000     -1.759348000     -0.599224000
| 28> C       -2.616060000     -2.358581000      0.599307000
| 29> C       -1.434764000     -3.217176000      0.599308000
| 30> C       -0.730220000     -3.446017000     -0.599295000
| 31> C        0.730219000     -3.446017000     -0.599299000
| 32> C        1.434769000     -3.217176000      0.599301000
| 33> C        2.616065000     -2.358581000      0.599295000
| 34> C        3.051374000     -1.759347000     -0.599238000
| 35> C        3.502786000     -0.370444000     -0.599279000
| 36> C        3.502790000      0.370446000      0.599262000
| 37> C        3.051377000      1.759349000      0.599224000
| 38> C        2.616060000      2.358581000     -0.599307000
| 39> C        2.616349000      1.590910000     -1.841751000
| 40> C        3.051552000      0.250786000     -1.841551000
| 41> C        2.321341000     -0.754343000     -2.609417000
| 42> C        2.321482000     -1.996935000     -1.841801000
| 43> C        1.181540000     -2.825148000     -1.841827000
| 44> C       -0.000006000     -2.441170000     -2.609792000
| 45> C       -1.181548000     -2.825148000     -1.841821000
| 46> C       -2.321490000     -1.996936000     -1.841790000
| 47> C       -2.321354000     -0.754344000     -2.609406000
| 48> C       -3.051562000      0.250784000     -1.841536000
| 49> C       -2.616358000      1.590909000     -1.841739000
| 50> C       -2.616063000      2.358579000     -0.599294000
| 51> C       -1.434768000      3.217175000     -0.599301000
| 52> C       -0.704467000      2.979977000     -1.841693000
| 53> C       -1.434616000      1.974675000     -2.609393000
| 54> C       -0.730213000      1.005163000     -3.350309000
| 55> C       -1.181467000     -0.383851000     -3.349996000
| 56> C       -0.000008000     -1.242304000     -3.350370000
| 57> C        1.181451000     -0.383850000     -3.350002000
| 58> C        0.730197000      1.005163000     -3.350312000
| 59> C        1.434602000      1.974674000     -2.609399000
| 60> C        0.704457000      2.979977000     -1.841697000
| 61> C        1.434764000      3.217176000     -0.599308000
| 62> C        0.730220000      3.446019000      0.599295000
| 63> C       -0.730219000      3.446018000      0.599299000
| 64> C       -1.181540000      2.825147000      1.841826000
| 65> C        0.000006000      2.441170000      2.609791000
| 66> C        1.181547000      2.825147000      1.841820000
| 67> C        2.321489000      1.996935000      1.841789000
| 68> *
| 69> 
| 70>                          ****END OF INPUT****
================================================================================

                       *****************************
                       * Geometry Optimization Run *
                       *****************************

Geometry optimization settings:
Update method            Update   .... BFGS
Choice of coordinates    CoordSys .... Z-matrix Internals
Initial Hessian          InHess   .... Almoef's Model

Convergence Tolerances:
Energy Change            TolE     ....  1.0000e-06 Eh
Max. Gradient            TolMAXG  ....  1.0000e-04 Eh/bohr
RMS Gradient             TolRMSG  ....  3.0000e-05 Eh/bohr
Max. Displacement        TolMAXD  ....  1.0000e-03 bohr
RMS Displacement         TolRMSD  ....  6.0000e-04 bohr
Strict Convergence                ....  False
------------------------------------------------------------------------------
                        ORCA OPTIMIZATION COORDINATE SETUP
------------------------------------------------------------------------------

The optimization will be done in new redundant internal coordinates
Making redundant internal coordinates   ...  (new redundants) done
Evaluating the initial hessian          ...  (Almloef) done
Evaluating the coordinates              ...  done
Calculating the B-matrix                .... done
Calculating the G-matrix                .... done
Diagonalizing the G-matrix              .... done
The first mode is                       ....  456
The number of degrees of freedom        ....  174

    -----------------------------------------------------------------
                    Redundant Internal Coordinates


    -----------------------------------------------------------------
         Definition                    Initial Value    Approx d2E/dq
    -----------------------------------------------------------------
      1. B(C   1,C   0)                  1.4604         0.482399   
      2. B(C   2,C   1)                  1.4605         0.482275   
      3. B(C   3,C   2)                  1.4604         0.482391   
      4. B(C   4,C   3)                  1.4605         0.482278   
      5. B(C   4,C   0)                  1.4604         0.482400   
      6. B(C   5,C   4)                  1.4089         0.582823   
      7. B(C   6,C   5)                  1.4605         0.482207   
      8. B(C   7,C   6)                  1.4090         0.582631   
      9. B(C   8,C   7)                  1.4605         0.482224   
     10. B(C   8,C   3)                  1.4089         0.582816   
     11. B(C   9,C   8)                  1.4605         0.482206   
     12. B(C  10,C   9)                  1.4089         0.582840   
     13. B(C  11,C  10)                  1.4605         0.482205   
     14. B(C  11,C   2)                  1.4089         0.582816   
     15. B(C  12,C  11)                  1.4605         0.482224   
     16. B(C  13,C  12)                  1.4090         0.582631   
     17. B(C  14,C  13)                  1.4605         0.482207   
     18. B(C  14,C   1)                  1.4089         0.582824   
     19. B(C  15,C  14)                  1.4606         0.482112   
     20. B(C  16,C  15)                  1.4605         0.482181   
     21. B(C  17,C  16)                  1.4604         0.482381   
     22. B(C  17,C  13)                  1.4604         0.482408   
     23. B(C  18,C  17)                  1.4090         0.582568   
     24. B(C  19,C  18)                  1.4604         0.482382   
     25. B(C  20,C  19)                  1.4089         0.582844   
     26. B(C  20,C  12)                  1.4605         0.482283   
     27. B(C  21,C  20)                  1.4604         0.482488   
     28. B(C  21,C  10)                  1.4605         0.482187   
     29. B(C  22,C  21)                  1.4090         0.582583   
     30. B(C  23,C  22)                  1.4604         0.482345   
     31. B(C  24,C   9)                  1.4605         0.482186   
     32. B(C  24,C  23)                  1.4090         0.582582   
     33. B(C  25,C  24)                  1.4604         0.482488   
     34. B(C  25,C   7)                  1.4605         0.482282   
     35. B(C  26,C  25)                  1.4089         0.582844   
     36. B(C  27,C  26)                  1.4604         0.482380   
     37. B(C  28,C  27)                  1.4090         0.582569   
     38. B(C  28,C   6)                  1.4604         0.482409   
     39. B(C  29,C  28)                  1.4604         0.482379   
     40. B(C  30,C  29)                  1.4089         0.582844   
     41. B(C  31,C  30)                  1.4605         0.482282   
     42. B(C  32,C  31)                  1.4090         0.582633   
     43. B(C  32,C  27)                  1.4604         0.482408   
     44. B(C  33,C  32)                  1.4605         0.482206   
     45. B(C  34,C  33)                  1.4606         0.482110   
     46. B(C  34,C  26)                  1.4605         0.482180   
     47. B(C  35,C  34)                  1.4090         0.582580   
     48. B(C  35,C  23)                  1.4605         0.482246   
     49. B(C  36,C  35)                  1.4606         0.482115   
     50. B(C  37,C  36)                  1.4606         0.482116   
     51. B(C  37,C  22)                  1.4605         0.482245   
     52. B(C  38,C  37)                  1.4090         0.582581   
     53. B(C  38,C  19)                  1.4605         0.482181   
     54. B(C  39,C  38)                  1.4606         0.482110   
     55. B(C  40,C  39)                  1.4605         0.482206   
     56. B(C  40,C  18)                  1.4604         0.482409   
     57. B(C  41,C  40)                  1.4090         0.582631   
     58. B(C  42,C  41)                  1.4605         0.482281   
     59. B(C  42,C  16)                  1.4089         0.582846   
     60. B(C  43,C  42)                  1.4604         0.482489   
     61. B(C  44,C  43)                  1.4605         0.482188   
     62. B(C  45,C  44)                  1.4605         0.482205   
     63. B(C  45,C  41)                  1.4605         0.482223   
     64. B(C  46,C  45)                  1.4089         0.582816   
     65. B(C  47,C  46)                  1.4605         0.482279   
     66. B(C  47,C  39)                  1.4089         0.582825   
     67. B(C  48,C  47)                  1.4604         0.482402   
     68. B(C  48,C  36)                  1.4092         0.582328   
     69. B(C  49,C  48)                  1.4604         0.482401   
     70. B(C  49,C  33)                  1.4089         0.582826   
     71. B(C  50,C  49)                  1.4605         0.482281   
     72. B(C  50,C  46)                  1.4604         0.482396   
     73. B(C  51,C  50)                  1.4089         0.582819   
     74. B(C  51,C  31)                  1.4605         0.482222   
     75. B(C  52,C  51)                  1.4605         0.482205   
     76. B(C  52,C  44)                  1.4089         0.582836   
     77. B(C  53,C  52)                  1.4605         0.482187   
     78. B(C  53,C  30)                  1.4604         0.482488   
     79. B(C  54,C  53)                  1.4090         0.582583   
     80. B(C  55,C  54)                  1.4604         0.482345   
     81. B(C  55,C  43)                  1.4090         0.582583   
     82. B(C  56,C  55)                  1.4605         0.482246   
     83. B(C  56,C  15)                  1.4090         0.582581   
     84. B(C  57,C  56)                  1.4606         0.482116   
     85. B(C  57,C   0)                  1.4092         0.582326   
     86. B(C  58,C  57)                  1.4606         0.482117   
     87. B(C  58,C  54)                  1.4605         0.482245   
     88. B(C  59,C  58)                  1.4090         0.582581   
     89. B(C  59,C  29)                  1.4605         0.482181   
     90. B(C  59,C   5)                  1.4606         0.482112   
     91. A(C   1,C   0,C   4)          107.9954         0.397012   
     92. A(C   4,C   0,C  57)          119.9974         0.410420   
     93. A(C   1,C   0,C  57)          119.9974         0.410420   
     94. A(C   0,C   1,C  14)          120.0048         0.410482   
     95. A(C   0,C   1,C   2)          108.0047         0.396994   
     96. A(C   2,C   1,C  14)          120.0120         0.410463   
     97. A(C   1,C   2,C  11)          119.9907         0.410462   
     98. A(C   3,C   2,C  11)          119.9970         0.410480   
     99. A(C   1,C   2,C   3)          107.9976         0.396993   
    100. A(C   2,C   3,C   8)          119.9970         0.410480   
    101. A(C   2,C   3,C   4)          107.9976         0.396993   
    102. A(C   4,C   3,C   8)          119.9908         0.410463   
    103. A(C   3,C   4,C   5)          120.0120         0.410464   
    104. A(C   0,C   4,C   5)          120.0048         0.410482   
    105. A(C   0,C   4,C   3)          108.0048         0.396994   
    106. A(C   4,C   5,C   6)          119.9922         0.410453   
    107. A(C   6,C   5,C  59)          108.0069         0.396943   
    108. A(C   4,C   5,C  59)          120.0031         0.410439   
    109. A(C   5,C   6,C   7)          120.0033         0.410429   
    110. A(C   5,C   6,C  28)          107.9961         0.396985   
    111. A(C   7,C   6,C  28)          120.0092         0.410459   
    112. A(C   8,C   7,C  25)          107.9907         0.396970   
    113. A(C   6,C   7,C  25)          119.9914         0.410440   
    114. A(C   6,C   7,C   8)          119.9937         0.410432   
    115. A(C   7,C   8,C   9)          108.0045         0.396959   
    116. A(C   3,C   8,C   9)          120.0080         0.410452   
    117. A(C   3,C   8,C   7)          120.0079         0.410455   
    118. A(C  10,C   9,C  24)          120.0019         0.410452   
    119. A(C   8,C   9,C  24)          107.9954         0.396953   
    120. A(C   8,C   9,C  10)          119.9950         0.410455   
    121. A(C   9,C  10,C  21)          120.0019         0.410452   
    122. A(C  11,C  10,C  21)          107.9954         0.396953   
    123. A(C   9,C  10,C  11)          119.9950         0.410455   
    124. A(C  10,C  11,C  12)          108.0045         0.396958   
    125. A(C   2,C  11,C  12)          120.0080         0.410454   
    126. A(C   2,C  11,C  10)          120.0080         0.410452   
    127. A(C  13,C  12,C  20)          119.9914         0.410440   
    128. A(C  11,C  12,C  20)          107.9907         0.396970   
    129. A(C  11,C  12,C  13)          119.9937         0.410431   
    130. A(C  12,C  13,C  17)          120.0092         0.410459   
    131. A(C  14,C  13,C  17)          107.9961         0.396985   
    132. A(C  12,C  13,C  14)          120.0034         0.410429   
    133. A(C   1,C  14,C  15)          120.0031         0.410439   
    134. A(C   1,C  14,C  13)          119.9922         0.410453   
    135. A(C  13,C  14,C  15)          108.0069         0.396942   
    136. A(C  14,C  15,C  16)          107.9856         0.396939   
    137. A(C  16,C  15,C  56)          119.9956         0.410419   
    138. A(C  14,C  15,C  56)          119.9983         0.410408   
    139. A(C  15,C  16,C  17)          108.0081         0.396978   
    140. A(C  17,C  16,C  42)          120.0007         0.410482   
    141. A(C  15,C  16,C  42)          120.0085         0.410452   
    142. A(C  13,C  17,C  16)          108.0032         0.397010   
    143. A(C  16,C  17,C  18)          120.0024         0.410447   
    144. A(C  13,C  17,C  18)          119.9922         0.410451   
    145. A(C  17,C  18,C  40)          119.9924         0.410451   
    146. A(C  19,C  18,C  40)          108.0032         0.397011   
    147. A(C  17,C  18,C  19)          120.0025         0.410447   
    148. A(C  20,C  19,C  38)          120.0086         0.410452   
    149. A(C  18,C  19,C  38)          108.0082         0.396978   
    150. A(C  18,C  19,C  20)          120.0007         0.410482   
    151. A(C  19,C  20,C  21)          119.9991         0.410498   
    152. A(C  12,C  20,C  21)          108.0108         0.397008   
    153. A(C  12,C  20,C  19)          120.0039         0.410467   
    154. A(C  20,C  21,C  22)          119.9969         0.410465   
    155. A(C  10,C  21,C  22)          119.9969         0.410420   
    156. A(C  10,C  21,C  20)          107.9986         0.396994   
    157. A(C  21,C  22,C  23)          120.0012         0.410444   
    158. A(C  23,C  22,C  37)          108.0003         0.396982   
    159. A(C  21,C  22,C  37)          120.0092         0.410429   
    160. A(C  22,C  23,C  24)          120.0012         0.410444   
    161. A(C  24,C  23,C  35)          120.0092         0.410429   
    162. A(C  22,C  23,C  35)          108.0003         0.396982   
    163. A(C  23,C  24,C  25)          119.9969         0.410465   
    164. A(C   9,C  24,C  25)          107.9986         0.396994   
    165. A(C   9,C  24,C  23)          119.9969         0.410420   
    166. A(C  24,C  25,C  26)          119.9991         0.410498   
    167. A(C   7,C  25,C  26)          120.0039         0.410467   
    168. A(C   7,C  25,C  24)          108.0108         0.397008   
    169. A(C  25,C  26,C  27)          120.0008         0.410482   
    170. A(C  27,C  26,C  34)          108.0081         0.396977   
    171. A(C  25,C  26,C  34)          120.0086         0.410451   
    172. A(C  28,C  27,C  32)          119.9924         0.410451   
    173. A(C  26,C  27,C  32)          108.0032         0.397010   
    174. A(C  26,C  27,C  28)          120.0024         0.410447   
    175. A(C  27,C  28,C  29)          120.0024         0.410447   
    176. A(C   6,C  28,C  29)          108.0032         0.397010   
    177. A(C   6,C  28,C  27)          119.9923         0.410452   
    178. A(C  28,C  29,C  59)          108.0081         0.396977   
    179. A(C  30,C  29,C  59)          120.0085         0.410452   
    180. A(C  28,C  29,C  30)          120.0007         0.410481   
    181. A(C  29,C  30,C  53)          119.9991         0.410498   
    182. A(C  31,C  30,C  53)          108.0108         0.397008   
    183. A(C  29,C  30,C  31)          120.0039         0.410467   
    184. A(C  30,C  31,C  32)          119.9914         0.410440   
    185. A(C  32,C  31,C  51)          119.9937         0.410431   
    186. A(C  30,C  31,C  51)          107.9907         0.396969   
    187. A(C  31,C  32,C  33)          120.0034         0.410429   
    188. A(C  27,C  32,C  33)          107.9961         0.396985   
    189. A(C  27,C  32,C  31)          120.0091         0.410459   
    190. A(C  34,C  33,C  49)          120.0031         0.410439   
    191. A(C  32,C  33,C  49)          119.9921         0.410453   
    192. A(C  32,C  33,C  34)          108.0069         0.396942   
    193. A(C  33,C  34,C  35)          119.9982         0.410408   
    194. A(C  26,C  34,C  35)          119.9956         0.410418   
    195. A(C  26,C  34,C  33)          107.9856         0.396938   
    196. A(C  34,C  35,C  36)          119.9967         0.410409   
    197. A(C  23,C  35,C  36)          108.0051         0.396949   
    198. A(C  23,C  35,C  34)          119.9906         0.410428   
    199. A(C  37,C  36,C  48)          119.9997         0.410377   
    200. A(C  35,C  36,C  48)          119.9997         0.410377   
    201. A(C  35,C  36,C  37)          107.9892         0.396930   
    202. A(C  36,C  37,C  38)          119.9967         0.410409   
    203. A(C  22,C  37,C  38)          119.9907         0.410428   
    204. A(C  22,C  37,C  36)          108.0051         0.396949   
    205. A(C  37,C  38,C  39)          119.9983         0.410408   
    206. A(C  19,C  38,C  39)          107.9856         0.396938   
    207. A(C  19,C  38,C  37)          119.9956         0.410419   
    208. A(C  40,C  39,C  47)          119.9922         0.410453   
    209. A(C  38,C  39,C  47)          120.0030         0.410439   
    210. A(C  38,C  39,C  40)          108.0069         0.396942   
    211. A(C  39,C  40,C  41)          120.0033         0.410429   
    212. A(C  18,C  40,C  41)          120.0092         0.410459   
    213. A(C  18,C  40,C  39)          107.9961         0.396985   
    214. A(C  42,C  41,C  45)          107.9907         0.396969   
    215. A(C  40,C  41,C  45)          119.9938         0.410431   
    216. A(C  40,C  41,C  42)          119.9913         0.410440   
    217. A(C  41,C  42,C  43)          108.0108         0.397008   
    218. A(C  16,C  42,C  43)          119.9992         0.410498   
    219. A(C  16,C  42,C  41)          120.0040         0.410467   
    220. A(C  42,C  43,C  44)          107.9987         0.396994   
    221. A(C  44,C  43,C  55)          119.9970         0.410420   
    222. A(C  42,C  43,C  55)          119.9969         0.410465   
    223. A(C  43,C  44,C  45)          107.9955         0.396953   
    224. A(C  45,C  44,C  52)          119.9949         0.410454   
    225. A(C  43,C  44,C  52)          120.0018         0.410452   
    226. A(C  44,C  45,C  46)          120.0080         0.410452   
    227. A(C  41,C  45,C  46)          120.0079         0.410454   
    228. A(C  41,C  45,C  44)          108.0044         0.396958   
    229. A(C  45,C  46,C  47)          119.9908         0.410463   
    230. A(C  47,C  46,C  50)          107.9976         0.396994   
    231. A(C  45,C  46,C  50)          119.9971         0.410481   
    232. A(C  46,C  47,C  48)          108.0047         0.396995   
    233. A(C  39,C  47,C  48)          120.0049         0.410483   
    234. A(C  39,C  47,C  46)          120.0121         0.410464   
    235. A(C  36,C  48,C  47)          119.9975         0.410421   
    236. A(C  47,C  48,C  49)          107.9953         0.397013   
    237. A(C  36,C  48,C  49)          119.9975         0.410420   
    238. A(C  48,C  49,C  50)          108.0047         0.396995   
    239. A(C  33,C  49,C  50)          120.0121         0.410464   
    240. A(C  33,C  49,C  48)          120.0048         0.410483   
    241. A(C  49,C  50,C  51)          119.9908         0.410463   
    242. A(C  46,C  50,C  51)          119.9971         0.410481   
    243. A(C  46,C  50,C  49)          107.9976         0.396994   
    244. A(C  50,C  51,C  52)          120.0080         0.410452   
    245. A(C  31,C  51,C  52)          108.0044         0.396958   
    246. A(C  31,C  51,C  50)          120.0079         0.410455   
    247. A(C  51,C  52,C  53)          107.9954         0.396953   
    248. A(C  44,C  52,C  53)          120.0018         0.410452   
    249. A(C  44,C  52,C  51)          119.9949         0.410454   
    250. A(C  52,C  53,C  54)          119.9970         0.410420   
    251. A(C  30,C  53,C  54)          119.9969         0.410465   
    252. A(C  30,C  53,C  52)          107.9986         0.396994   
    253. A(C  55,C  54,C  58)          108.0002         0.396982   
    254. A(C  53,C  54,C  58)          120.0091         0.410429   
    255. A(C  53,C  54,C  55)          120.0012         0.410444   
    256. A(C  54,C  55,C  56)          108.0003         0.396982   
    257. A(C  43,C  55,C  56)          120.0091         0.410429   
    258. A(C  43,C  55,C  54)          120.0012         0.410444   
    259. A(C  55,C  56,C  57)          108.0051         0.396949   
    260. A(C  15,C  56,C  57)          119.9967         0.410409   
    261. A(C  15,C  56,C  55)          119.9907         0.410429   
    262. A(C  56,C  57,C  58)          107.9892         0.396930   
    263. A(C   0,C  57,C  58)          119.9997         0.410377   
    264. A(C   0,C  57,C  56)          119.9997         0.410377   
    265. A(C  57,C  58,C  59)          119.9967         0.410409   
    266. A(C  54,C  58,C  59)          119.9907         0.410428   
    267. A(C  54,C  58,C  57)          108.0051         0.396949   
    268. A(C  29,C  59,C  58)          119.9956         0.410419   
    269. A(C   5,C  59,C  58)          119.9983         0.410408   
    270. A(C   5,C  59,C  29)          107.9856         0.396939   
    271. D(C   2,C   1,C   0,C  57)    142.6461         0.015844   
    272. D(C  14,C   1,C   0,C  57)     -0.0101         0.015844   
    273. D(C   2,C   1,C   0,C   4)      0.0376         0.015844   
    274. D(C  14,C   1,C   0,C   4)   -142.6185         0.015844   
    275. D(C  11,C   2,C   1,C   0)   -142.6254         0.015836   
    276. D(C  11,C   2,C   1,C  14)      0.0276         0.015836   
    277. D(C   3,C   2,C   1,C   0)     -0.0233         0.015836   
    278. D(C   3,C   2,C   1,C  14)    142.6297         0.015836   
    279. D(C   4,C   3,C   2,C   1)      0.0001         0.015843   
    280. D(C   8,C   3,C   2,C   1)   -142.5994         0.015843   
    281. D(C   4,C   3,C   2,C  11)    142.5994         0.015843   
    282. D(C   8,C   3,C   2,C  11)     -0.0001         0.015843   
    283. D(C   3,C   4,C   0,C   1)     -0.0376         0.015844   
    284. D(C   5,C   4,C   0,C   1)    142.6185         0.015844   
    285. D(C   5,C   4,C   3,C   2)   -142.6298         0.015836   
    286. D(C   5,C   4,C   0,C  57)      0.0101         0.015844   
    287. D(C   0,C   4,C   3,C   2)      0.0232         0.015836   
    288. D(C   0,C   4,C   3,C   8)    142.6254         0.015836   
    289. D(C   5,C   4,C   3,C   8)     -0.0275         0.015836   
    290. D(C   3,C   4,C   0,C  57)   -142.6460         0.015844   
    291. D(C   6,C   5,C   4,C   0)   -138.2044         0.023348   
    292. D(C  59,C   5,C   4,C   3)    138.2154         0.023348   
    293. D(C   6,C   5,C   4,C   3)      0.0196         0.023348   
    294. D(C  59,C   5,C   4,C   0)     -0.0087         0.023348   
    295. D(C  28,C   6,C   5,C   4)    142.6170         0.015831   
    296. D(C   7,C   6,C   5,C  59)   -142.6480         0.015831   
    297. D(C  28,C   6,C   5,C  59)     -0.0105         0.015831   
    298. D(C   7,C   6,C   5,C   4)     -0.0205         0.015831   
    299. D(C  25,C   7,C   6,C   5)    138.1778         0.023332   
    300. D(C   8,C   7,C   6,C   5)      0.0283         0.023332   
    301. D(C   8,C   7,C   6,C  28)   -138.1730         0.023332   
    302. D(C  25,C   7,C   6,C  28)     -0.0235         0.023332   
    303. D(C   9,C   8,C   7,C   6)    142.6168         0.015832   
    304. D(C   9,C   8,C   7,C  25)      0.0300         0.015832   
    305. D(C   9,C   8,C   3,C   4)   -138.1871         0.023348   
    306. D(C   3,C   8,C   7,C  25)   -142.6230         0.015832   
    307. D(C   3,C   8,C   7,C   6)     -0.0362         0.015832   
    308. D(C   9,C   8,C   3,C   2)     -0.0205         0.023348   
    309. D(C   7,C   8,C   3,C   4)      0.0353         0.023348   
    310. D(C   7,C   8,C   3,C   2)    138.2019         0.023348   
    311. D(C  24,C   9,C   8,C   7)     -0.0193         0.015831   
    312. D(C  10,C   9,C   8,C   3)      0.0206         0.015831   
    313. D(C  10,C   9,C   8,C   7)   -142.6324         0.015831   
    314. D(C  24,C   9,C   8,C   3)    142.6336         0.015831   
    315. D(C  21,C  10,C   9,C   8)    138.1762         0.023350   
    316. D(C  21,C  10,C   9,C  24)      0.0000         0.023350   
    317. D(C  11,C  10,C   9,C  24)   -138.1762         0.023350   
    318. D(C  11,C  10,C   9,C   8)     -0.0001         0.023350   
    319. D(C  12,C  11,C  10,C  21)      0.0193         0.015831   
    320. D(C   2,C  11,C  10,C  21)   -142.6336         0.015831   
    321. D(C   2,C  11,C  10,C   9)     -0.0205         0.015831   
    322. D(C  12,C  11,C   2,C   3)   -138.2017         0.023347   
    323. D(C  12,C  11,C   2,C   1)     -0.0353         0.023347   
    324. D(C  12,C  11,C  10,C   9)    142.6325         0.015831   
    325. D(C  10,C  11,C   2,C   3)      0.0206         0.023347   
    326. D(C  10,C  11,C   2,C   1)    138.1871         0.023347   
    327. D(C  20,C  12,C  11,C  10)     -0.0300         0.015832   
    328. D(C  13,C  12,C  11,C  10)   -142.6168         0.015832   
    329. D(C  20,C  12,C  11,C   2)    142.6229         0.015832   
    330. D(C  13,C  12,C  11,C   2)      0.0361         0.015832   
    331. D(C  17,C  13,C  12,C  11)    138.1730         0.023332   
    332. D(C  14,C  13,C  12,C  20)   -138.1777         0.023332   
    333. D(C  14,C  13,C  12,C  11)     -0.0283         0.023332   
    334. D(C  17,C  13,C  12,C  20)      0.0236         0.023332   
    335. D(C  15,C  14,C  13,C  17)      0.0104         0.015831   
    336. D(C  15,C  14,C  13,C  12)    142.6480         0.015831   
    337. D(C   1,C  14,C  13,C  17)   -142.6170         0.015831   
    338. D(C   1,C  14,C  13,C  12)      0.0206         0.015831   
    339. D(C  15,C  14,C   1,C   0)      0.0087         0.023348   
    340. D(C  15,C  14,C   1,C   2)   -138.2154         0.023348   
    341. D(C  13,C  14,C   1,C   2)     -0.0197         0.023348   
    342. D(C  13,C  14,C   1,C   0)    138.2043         0.023348   
    343. D(C  56,C  15,C  14,C   1)      0.0053         0.015825   
    344. D(C  56,C  15,C  14,C  13)   -142.6173         0.015825   
    345. D(C  16,C  15,C  14,C  13)     -0.0242         0.015825   
    346. D(C  16,C  15,C  14,C   1)    142.5984         0.015825   
    347. D(C  42,C  16,C  15,C  56)     -0.0230         0.015830   
    348. D(C  17,C  16,C  15,C  56)    142.6231         0.015830   
    349. D(C  17,C  16,C  15,C  14)      0.0287         0.015830   
    350. D(C  42,C  16,C  15,C  14)   -142.6174         0.015830   
    351. D(C  18,C  17,C  16,C  42)      0.0104         0.015843   
    352. D(C  18,C  17,C  13,C  14)    142.6287         0.015844   
    353. D(C  13,C  17,C  16,C  42)    142.6272         0.015843   
    354. D(C  18,C  17,C  16,C  15)   -142.6391         0.015843   
    355. D(C  13,C  17,C  16,C  15)     -0.0223         0.015843   
    356. D(C  18,C  17,C  13,C  12)     -0.0064         0.015844   
    357. D(C  16,C  17,C  13,C  14)      0.0074         0.015844   
    358. D(C  16,C  17,C  13,C  12)   -142.6277         0.015844   
    359. D(C  40,C  18,C  17,C  16)     -0.0110         0.023327   
    360. D(C  40,C  18,C  17,C  13)   -138.1988         0.023327   
    361. D(C  19,C  18,C  17,C  16)    138.1771         0.023327   
    362. D(C  19,C  18,C  17,C  13)     -0.0107         0.023327   
    363. D(C  38,C  19,C  18,C  40)     -0.0222         0.015843   
    364. D(C  38,C  19,C  18,C  17)   -142.6393         0.015843   
    365. D(C  20,C  19,C  18,C  40)    142.6274         0.015843   
    366. D(C  20,C  19,C  18,C  17)      0.0103         0.015843   
    367. D(C  21,C  20,C  19,C  38)      0.0114         0.023350   
    368. D(C  21,C  20,C  19,C  18)   -138.2079         0.023350   
    369. D(C  12,C  20,C  19,C  38)    138.2262         0.023350   
    370. D(C  12,C  20,C  19,C  18)      0.0070         0.023350   
    371. D(C  21,C  20,C  12,C  13)    142.6170         0.015836   
    372. D(C  21,C  20,C  12,C  11)      0.0293         0.015836   
    373. D(C  19,C  20,C  12,C  13)     -0.0240         0.015836   
    374. D(C  19,C  20,C  12,C  11)   -142.6118         0.015836   
    375. D(C  22,C  21,C  20,C  19)      0.0144         0.015850   
    376. D(C  22,C  21,C  20,C  12)   -142.6287         0.015850   
    377. D(C  10,C  21,C  20,C  19)    142.6258         0.015850   
    378. D(C  10,C  21,C  20,C  12)     -0.0173         0.015850   
    379. D(C  22,C  21,C  10,C  11)    142.6101         0.015830   
    380. D(C  22,C  21,C  10,C   9)      0.0001         0.015830   
    381. D(C  20,C  21,C  10,C  11)     -0.0012         0.015830   
    382. D(C  20,C  21,C  10,C   9)   -142.6113         0.015830   
    383. D(C  37,C  22,C  21,C  20)     -0.0283         0.023328   
    384. D(C  37,C  22,C  21,C  10)   -138.2060         0.023328   
    385. D(C  23,C  22,C  21,C  20)    138.1777         0.023328   
    386. D(C  23,C  22,C  21,C  10)     -0.0001         0.023328   
    387. D(C  35,C  23,C  22,C  37)      0.0000         0.015840   
    388. D(C  35,C  23,C  22,C  21)   -142.6405         0.015840   
    389. D(C  24,C  23,C  22,C  37)    142.6405         0.015840   
    390. D(C  24,C  23,C  22,C  21)      0.0000         0.015840   
    391. D(C   9,C  24,C  23,C  35)    138.2060         0.023328   
    392. D(C   9,C  24,C  23,C  22)      0.0001         0.023328   
    393. D(C  25,C  24,C   9,C  10)    142.6113         0.015830   
    394. D(C  25,C  24,C   9,C   8)      0.0013         0.015830   
    395. D(C  23,C  24,C   9,C  10)     -0.0001         0.015830   
    396. D(C  25,C  24,C  23,C  22)   -138.1777         0.023328   
    397. D(C  23,C  24,C   9,C   8)   -142.6101         0.015830   
    398. D(C  25,C  24,C  23,C  35)      0.0282         0.023328   
    399. D(C  26,C  25,C  24,C  23)     -0.0144         0.015850   
    400. D(C  26,C  25,C  24,C   9)   -142.6258         0.015850   
    401. D(C   7,C  25,C  24,C  23)    142.6286         0.015850   
    402. D(C   7,C  25,C  24,C   9)      0.0172         0.015850   
    403. D(C  26,C  25,C   7,C   8)    142.6117         0.015836   
    404. D(C  26,C  25,C   7,C   6)      0.0238         0.015836   
    405. D(C  24,C  25,C   7,C   8)     -0.0292         0.015836   
    406. D(C  24,C  25,C   7,C   6)   -142.6171         0.015836   
    407. D(C  34,C  26,C  25,C  24)     -0.0114         0.023350   
    408. D(C  34,C  26,C  25,C   7)   -138.2261         0.023350   
    409. D(C  27,C  26,C  25,C  24)    138.2079         0.023350   
    410. D(C  27,C  26,C  25,C   7)     -0.0068         0.023350   
    411. D(C  32,C  27,C  26,C  34)      0.0223         0.015843   
    412. D(C  32,C  27,C  26,C  25)   -142.6274         0.015843   
    413. D(C  28,C  27,C  26,C  34)    142.6393         0.015843   
    414. D(C  28,C  27,C  26,C  25)     -0.0103         0.015843   
    415. D(C  29,C  28,C  27,C  32)      0.0109         0.023327   
    416. D(C  29,C  28,C  27,C  26)   -138.1772         0.023327   
    417. D(C   6,C  28,C  27,C  32)    138.1987         0.023327   
    418. D(C   6,C  28,C  27,C  26)      0.0107         0.023327   
    419. D(C  29,C  28,C   6,C   7)    142.6277         0.015845   
    420. D(C  29,C  28,C   6,C   5)     -0.0073         0.015845   
    421. D(C  27,C  28,C   6,C   7)      0.0064         0.015845   
    422. D(C  27,C  28,C   6,C   5)   -142.6286         0.015845   
    423. D(C  59,C  29,C  28,C  27)    142.6391         0.015843   
    424. D(C  59,C  29,C  28,C   6)      0.0223         0.015843   
    425. D(C  30,C  29,C  28,C  27)     -0.0104         0.015843   
    426. D(C  30,C  29,C  28,C   6)   -142.6272         0.015843   
    427. D(C  53,C  30,C  29,C  59)     -0.0112         0.023350   
    428. D(C  53,C  30,C  29,C  28)    138.2079         0.023350   
    429. D(C  31,C  30,C  29,C  59)   -138.2260         0.023350   
    430. D(C  31,C  30,C  29,C  28)     -0.0070         0.023350   
    431. D(C  51,C  31,C  30,C  53)     -0.0293         0.015836   
    432. D(C  51,C  31,C  30,C  29)    142.6118         0.015836   
    433. D(C  32,C  31,C  30,C  53)   -142.6171         0.015836   
    434. D(C  32,C  31,C  30,C  29)      0.0240         0.015836   
    435. D(C  33,C  32,C  31,C  51)      0.0283         0.023332   
    436. D(C  33,C  32,C  31,C  30)    138.1777         0.023332   
    437. D(C  27,C  32,C  31,C  51)   -138.1730         0.023332   
    438. D(C  27,C  32,C  31,C  30)     -0.0235         0.023332   
    439. D(C  33,C  32,C  27,C  28)   -142.6288         0.015844   
    440. D(C  33,C  32,C  27,C  26)     -0.0073         0.015844   
    441. D(C  31,C  32,C  27,C  28)      0.0062         0.015844   
    442. D(C  31,C  32,C  27,C  26)    142.6277         0.015844   
    443. D(C  49,C  33,C  32,C  31)     -0.0207         0.015831   
    444. D(C  49,C  33,C  32,C  27)    142.6168         0.015831   
    445. D(C  34,C  33,C  32,C  31)   -142.6480         0.015831   
    446. D(C  34,C  33,C  32,C  27)     -0.0105         0.015831   
    447. D(C  35,C  34,C  33,C  49)     -0.0052         0.015825   
    448. D(C  35,C  34,C  33,C  32)    142.6173         0.015825   
    449. D(C  26,C  34,C  33,C  49)   -142.5982         0.015825   
    450. D(C  26,C  34,C  33,C  32)      0.0243         0.015825   
    451. D(C  35,C  34,C  26,C  27)   -142.6230         0.015830   
    452. D(C  35,C  34,C  26,C  25)      0.0233         0.015830   
    453. D(C  33,C  34,C  26,C  27)     -0.0288         0.015830   
    454. D(C  33,C  34,C  26,C  25)    142.6174         0.015830   
    455. D(C  36,C  35,C  34,C  33)      0.0177         0.023328   
    456. D(C  36,C  35,C  34,C  26)    138.1708         0.023328   
    457. D(C  23,C  35,C  34,C  33)   -138.1625         0.023328   
    458. D(C  23,C  35,C  34,C  26)     -0.0094         0.023328   
    459. D(C  36,C  35,C  23,C  24)   -142.6282         0.015834   
    460. D(C  36,C  35,C  23,C  22)      0.0088         0.015834   
    461. D(C  34,C  35,C  23,C  24)     -0.0164         0.015834   
    462. D(C  34,C  35,C  23,C  22)    142.6206         0.015834   
    463. D(C  48,C  36,C  35,C  34)     -0.0165         0.015825   
    464. D(C  48,C  36,C  35,C  23)    142.5927         0.015825   
    465. D(C  37,C  36,C  35,C  34)   -142.6233         0.015825   
    466. D(C  37,C  36,C  35,C  23)     -0.0142         0.015825   
    467. D(C  38,C  37,C  36,C  48)      0.0165         0.015825   
    468. D(C  38,C  37,C  36,C  35)    142.6234         0.015825   
    469. D(C  22,C  37,C  36,C  48)   -142.5927         0.015825   
    470. D(C  22,C  37,C  36,C  35)      0.0142         0.015825   
    471. D(C  38,C  37,C  22,C  23)   -142.6206         0.015834   
    472. D(C  38,C  37,C  22,C  21)      0.0164         0.015834   
    473. D(C  36,C  37,C  22,C  23)     -0.0088         0.015834   
    474. D(C  36,C  37,C  22,C  21)    142.6282         0.015834   
    475. D(C  39,C  38,C  37,C  36)     -0.0178         0.023328   
    476. D(C  39,C  38,C  37,C  22)    138.1625         0.023328   
    477. D(C  19,C  38,C  37,C  36)   -138.1708         0.023328   
    478. D(C  19,C  38,C  37,C  22)      0.0094         0.023328   
    479. D(C  39,C  38,C  19,C  20)   -142.6174         0.015830   
    480. D(C  39,C  38,C  19,C  18)      0.0288         0.015830   
    481. D(C  37,C  38,C  19,C  20)     -0.0232         0.015830   
    482. D(C  37,C  38,C  19,C  18)    142.6229         0.015830   
    483. D(C  47,C  39,C  38,C  37)      0.0051         0.015825   
    484. D(C  47,C  39,C  38,C  19)    142.5981         0.015825   
    485. D(C  40,C  39,C  38,C  37)   -142.6173         0.015825   
    486. D(C  40,C  39,C  38,C  19)     -0.0243         0.015825   
    487. D(C  41,C  40,C  39,C  47)      0.0208         0.015831   
    488. D(C  41,C  40,C  39,C  38)    142.6480         0.015831   
    489. D(C  18,C  40,C  39,C  47)   -142.6167         0.015831   
    490. D(C  18,C  40,C  39,C  38)      0.0106         0.015831   
    491. D(C  41,C  40,C  18,C  19)   -142.6276         0.015845   
    492. D(C  41,C  40,C  18,C  17)     -0.0060         0.015845   
    493. D(C  39,C  40,C  18,C  19)      0.0072         0.015845   
    494. D(C  39,C  40,C  18,C  17)    142.6288         0.015845   
    495. D(C  45,C  41,C  40,C  39)     -0.0282         0.023332   
    496. D(C  45,C  41,C  40,C  18)    138.1729         0.023332   
    497. D(C  42,C  41,C  40,C  39)   -138.1777         0.023332   
    498. D(C  42,C  41,C  40,C  18)      0.0234         0.023332   
    499. D(C  43,C  42,C  41,C  45)      0.0293         0.015836   
    500. D(C  43,C  42,C  41,C  40)    142.6171         0.015836   
    501. D(C  16,C  42,C  41,C  45)   -142.6119         0.015836   
    502. D(C  16,C  42,C  41,C  40)     -0.0240         0.015836   
    503. D(C  43,C  42,C  16,C  17)   -138.2080         0.023350   
    504. D(C  43,C  42,C  16,C  15)      0.0112         0.023350   
    505. D(C  41,C  42,C  16,C  17)      0.0070         0.023350   
    506. D(C  41,C  42,C  16,C  15)    138.2261         0.023350   
    507. D(C  55,C  43,C  42,C  41)   -142.6288         0.015850   
    508. D(C  55,C  43,C  42,C  16)      0.0144         0.015850   
    509. D(C  44,C  43,C  42,C  41)     -0.0173         0.015850   
    510. D(C  44,C  43,C  42,C  16)    142.6260         0.015850   
    511. D(C  52,C  44,C  43,C  55)      0.0002         0.015830   
    512. D(C  52,C  44,C  43,C  42)   -142.6112         0.015830   
    513. D(C  45,C  44,C  43,C  55)    142.6102         0.015830   
    514. D(C  45,C  44,C  43,C  42)     -0.0013         0.015830   
    515. D(C  46,C  45,C  44,C  52)     -0.0203         0.015831   
    516. D(C  46,C  45,C  44,C  43)   -142.6333         0.015831   
    517. D(C  41,C  45,C  44,C  52)    142.6324         0.015831   
    518. D(C  41,C  45,C  44,C  43)      0.0194         0.015831   
    519. D(C  46,C  45,C  41,C  42)    142.6226         0.015832   
    520. D(C  46,C  45,C  41,C  40)      0.0359         0.015832   
    521. D(C  44,C  45,C  41,C  42)     -0.0301         0.015832   
    522. D(C  44,C  45,C  41,C  40)   -142.6169         0.015832   
    523. D(C  50,C  46,C  45,C  41)   -138.2018         0.023347   
    524. D(C  47,C  46,C  45,C  44)    138.1871         0.023347   
    525. D(C  47,C  46,C  45,C  41)     -0.0350         0.023347   
    526. D(C  50,C  46,C  45,C  44)      0.0203         0.023347   
    527. D(C  48,C  47,C  46,C  50)     -0.0233         0.015836   
    528. D(C  48,C  47,C  46,C  45)   -142.6256         0.015836   
    529. D(C  39,C  47,C  46,C  50)    142.6299         0.015836   
    530. D(C  39,C  47,C  46,C  45)      0.0275         0.015836   
    531. D(C  48,C  47,C  39,C  40)    138.2044         0.023348   
    532. D(C  48,C  47,C  39,C  38)      0.0089         0.023348   
    533. D(C  46,C  47,C  39,C  40)     -0.0199         0.023348   
    534. D(C  46,C  47,C  39,C  38)   -138.2154         0.023348   
    535. D(C  49,C  48,C  47,C  46)      0.0376         0.015844   
    536. D(C  49,C  48,C  47,C  39)   -142.6188         0.015844   
    537. D(C  36,C  48,C  47,C  46)    142.6462         0.015844   
    538. D(C  36,C  48,C  47,C  39)     -0.0101         0.015844   
    539. D(C  49,C  48,C  36,C  37)    138.1707         0.023307   
    540. D(C  49,C  48,C  36,C  35)      0.0025         0.023307   
    541. D(C  47,C  48,C  36,C  37)     -0.0025         0.023307   
    542. D(C  47,C  48,C  36,C  35)   -138.1707         0.023307   
    543. D(C  50,C  49,C  48,C  47)     -0.0376         0.015844   
    544. D(C  50,C  49,C  48,C  36)   -142.6462         0.015844   
    545. D(C  33,C  49,C  48,C  47)    142.6187         0.015844   
    546. D(C  33,C  49,C  48,C  36)      0.0101         0.015844   
    547. D(C  50,C  49,C  33,C  34)    138.2154         0.023348   
    548. D(C  50,C  49,C  33,C  32)      0.0198         0.023348   
    549. D(C  48,C  49,C  33,C  34)     -0.0088         0.023348   
    550. D(C  48,C  49,C  33,C  32)   -138.2044         0.023348   
    551. D(C  51,C  50,C  49,C  48)    142.6256         0.015836   
    552. D(C  51,C  50,C  49,C  33)     -0.0275         0.015836   
    553. D(C  46,C  50,C  49,C  48)      0.0232         0.015836   
    554. D(C  46,C  50,C  49,C  33)   -142.6299         0.015836   
    555. D(C  51,C  50,C  46,C  47)   -142.5995         0.015844   
    556. D(C  51,C  50,C  46,C  45)      0.0000         0.015844   
    557. D(C  49,C  50,C  46,C  47)      0.0000         0.015844   
    558. D(C  49,C  50,C  46,C  45)    142.5996         0.015844   
    559. D(C  52,C  51,C  50,C  49)   -138.1872         0.023348   
    560. D(C  52,C  51,C  50,C  46)     -0.0204         0.023348   
    561. D(C  31,C  51,C  50,C  49)      0.0351         0.023348   
    562. D(C  31,C  51,C  50,C  46)    138.2019         0.023348   
    563. D(C  52,C  51,C  31,C  32)    142.6169         0.015832   
    564. D(C  52,C  51,C  31,C  30)      0.0301         0.015832   
    565. D(C  50,C  51,C  31,C  32)     -0.0360         0.015832   
    566. D(C  50,C  51,C  31,C  30)   -142.6228         0.015832   
    567. D(C  53,C  52,C  51,C  50)    142.6334         0.015831   
    568. D(C  53,C  52,C  51,C  31)     -0.0195         0.015831   
    569. D(C  44,C  52,C  51,C  50)      0.0204         0.015831   
    570. D(C  44,C  52,C  51,C  31)   -142.6324         0.015831   
    571. D(C  53,C  52,C  44,C  45)   -138.1762         0.023349   
    572. D(C  53,C  52,C  44,C  43)     -0.0000         0.023349   
    573. D(C  51,C  52,C  44,C  45)     -0.0001         0.023349   
    574. D(C  51,C  52,C  44,C  43)    138.1760         0.023349   
    575. D(C  54,C  53,C  52,C  51)   -142.6101         0.015830   
    576. D(C  54,C  53,C  52,C  44)     -0.0002         0.015830   
    577. D(C  30,C  53,C  52,C  51)      0.0014         0.015830   
    578. D(C  30,C  53,C  52,C  44)    142.6113         0.015830   
    579. D(C  54,C  53,C  30,C  31)    142.6288         0.015850   
    580. D(C  54,C  53,C  30,C  29)     -0.0144         0.015850   
    581. D(C  52,C  53,C  30,C  31)      0.0172         0.015850   
    582. D(C  52,C  53,C  30,C  29)   -142.6260         0.015850   
    583. D(C  58,C  54,C  53,C  52)    138.2059         0.023328   
    584. D(C  58,C  54,C  53,C  30)      0.0280         0.023328   
    585. D(C  55,C  54,C  53,C  52)      0.0002         0.023328   
    586. D(C  55,C  54,C  53,C  30)   -138.1776         0.023328   
    587. D(C  56,C  55,C  54,C  58)      0.0001         0.015840   
    588. D(C  56,C  55,C  54,C  53)    142.6403         0.015840   
    589. D(C  43,C  55,C  54,C  58)   -142.6403         0.015840   
    590. D(C  43,C  55,C  54,C  53)     -0.0001         0.015840   
    591. D(C  56,C  55,C  43,C  44)   -138.2060         0.023328   
    592. D(C  56,C  55,C  43,C  42)     -0.0281         0.023328   
    593. D(C  54,C  55,C  43,C  44)     -0.0002         0.023328   
    594. D(C  54,C  55,C  43,C  42)    138.1777         0.023328   
    595. D(C  57,C  56,C  55,C  54)     -0.0087         0.015834   
    596. D(C  57,C  56,C  55,C  43)    142.6281         0.015834   
    597. D(C  15,C  56,C  55,C  54)   -142.6206         0.015834   
    598. D(C  15,C  56,C  55,C  43)      0.0163         0.015834   
    599. D(C  57,C  56,C  15,C  16)   -138.1709         0.023328   
    600. D(C  57,C  56,C  15,C  14)     -0.0177         0.023328   
    601. D(C  55,C  56,C  15,C  16)      0.0094         0.023328   
    602. D(C  55,C  56,C  15,C  14)    138.1626         0.023328   
    603. D(C  58,C  57,C  56,C  55)      0.0140         0.015825   
    604. D(C  58,C  57,C  56,C  15)    142.6233         0.015825   
    605. D(C   0,C  57,C  56,C  55)   -142.5929         0.015825   
    606. D(C   0,C  57,C  56,C  15)      0.0163         0.015825   
    607. D(C  58,C  57,C   0,C   4)      0.0024         0.023306   
    608. D(C  58,C  57,C   0,C   1)   -138.1707         0.023306   
    609. D(C  56,C  57,C   0,C   4)    138.1707         0.023306   
    610. D(C  56,C  57,C   0,C   1)     -0.0024         0.023306   
    611. D(C  59,C  58,C  57,C  56)   -142.6233         0.015825   
    612. D(C  59,C  58,C  57,C   0)     -0.0164         0.015825   
    613. D(C  54,C  58,C  57,C  56)     -0.0140         0.015825   
    614. D(C  54,C  58,C  57,C   0)    142.5930         0.015825   
    615. D(C  59,C  58,C  54,C  55)    142.6206         0.015834   
    616. D(C  59,C  58,C  54,C  53)     -0.0162         0.015834   
    617. D(C  57,C  58,C  54,C  55)      0.0086         0.015834   
    618. D(C  57,C  58,C  54,C  53)   -142.6281         0.015834   
    619. D(C  29,C  59,C  58,C  57)    138.1710         0.023328   
    620. D(C   5,C  59,C  58,C  57)      0.0178         0.023328   
    621. D(C   5,C  59,C  58,C  54)   -138.1626         0.023328   
    622. D(C  58,C  59,C  29,C  30)      0.0230         0.015830   
    623. D(C  58,C  59,C  29,C  28)   -142.6230         0.015830   
    624. D(C   5,C  59,C  29,C  30)    142.6173         0.015830   
    625. D(C   5,C  59,C  29,C  28)     -0.0287         0.015830   
    626. D(C  58,C  59,C   5,C   6)    142.6173         0.015825   
    627. D(C  58,C  59,C   5,C   4)     -0.0054         0.015825   
    628. D(C  29,C  59,C  58,C  54)     -0.0094         0.023328   
    629. D(C  29,C  59,C   5,C   6)      0.0242         0.015825   
    630. D(C  29,C  59,C   5,C   4)   -142.5985         0.015825   
    -----------------------------------------------------------------

Number of atoms                         .... 60
Number of degrees of freedom            .... 630

         *************************************************************
         *                GEOMETRY OPTIMIZATION CYCLE   1            *
         *************************************************************
---------------------------------
CARTESIAN COORDINATES (ANGSTROEM)
---------------------------------
  C      0.000008    1.242305    3.350373
  C     -1.181453    0.383851    3.350005
  C     -0.730198   -1.005165    3.350316
  C      0.730215   -1.005164    3.350311
  C      1.181468    0.383851    3.349999
  C      2.321353    0.754344    2.609404
  C      3.051561   -0.250784    1.841535
  C      2.616358   -1.590909    1.841738
  C      1.434616   -1.974674    2.609391
  C      0.704466   -2.979976    1.841693
  C     -0.704456   -2.979976    1.841696
  C     -1.434603   -1.974675    2.609399
  C     -2.616349   -1.590911    1.841751
  C     -3.051552   -0.250786    1.841550
  C     -2.321342    0.754343    2.609416
  C     -2.321481    1.996934    1.841800
  C     -3.051374    1.759347    0.599238
  C     -3.502787    0.370445    0.599279
  C     -3.502788   -0.370446   -0.599262
  C     -3.051376   -1.759348   -0.599224
  C     -2.616060   -2.358581    0.599307
  C     -1.434764   -3.217176    0.599308
  C     -0.730220   -3.446017   -0.599295
  C      0.730219   -3.446017   -0.599299
  C      1.434769   -3.217176    0.599301
  C      2.616065   -2.358581    0.599295
  C      3.051374   -1.759347   -0.599238
  C      3.502786   -0.370444   -0.599279
  C      3.502790    0.370446    0.599262
  C      3.051377    1.759349    0.599224
  C      2.616060    2.358581   -0.599307
  C      2.616349    1.590910   -1.841751
  C      3.051552    0.250786   -1.841551
  C      2.321341   -0.754343   -2.609417
  C      2.321482   -1.996935   -1.841801
  C      1.181540   -2.825148   -1.841827
  C     -0.000006   -2.441170   -2.609792
  C     -1.181548   -2.825148   -1.841821
  C     -2.321490   -1.996936   -1.841790
  C     -2.321354   -0.754344   -2.609406
  C     -3.051562    0.250784   -1.841536
  C     -2.616358    1.590909   -1.841739
  C     -2.616063    2.358579   -0.599294
  C     -1.434768    3.217175   -0.599301
  C     -0.704467    2.979977   -1.841693
  C     -1.434616    1.974675   -2.609393
  C     -0.730213    1.005163   -3.350309
  C     -1.181467   -0.383851   -3.349996
  C     -0.000008   -1.242304   -3.350370
  C      1.181451   -0.383850   -3.350002
  C      0.730197    1.005163   -3.350312
  C      1.434602    1.974674   -2.609399
  C      0.704457    2.979977   -1.841697
  C      1.434764    3.217176   -0.599308
  C      0.730220    3.446019    0.599295
  C     -0.730219    3.446018    0.599299
  C     -1.181540    2.825147    1.841826
  C      0.000006    2.441170    2.609791
  C      1.181547    2.825147    1.841820
  C      2.321489    1.996935    1.841789

----------------------------
CARTESIAN COORDINATES (A.U.)
----------------------------
  NO LB      ZA    FRAG     MASS         X           Y           Z
   0 C     6.0000    0    12.011    0.000015    2.347616    6.331287
   1 C     6.0000    0    12.011   -2.232623    0.725373    6.330592
   2 C     6.0000    0    12.011   -1.379874   -1.899487    6.331180
   3 C     6.0000    0    12.011    1.379906   -1.899485    6.331170
   4 C     6.0000    0    12.011    2.232651    0.725373    6.330581
   5 C     6.0000    0    12.011    4.386721    1.425504    4.931059
   6 C     6.0000    0    12.011    5.766615   -0.473913    3.479997
   7 C     6.0000    0    12.011    4.944200   -3.006382    3.480380
   8 C     6.0000    0    12.011    2.711031   -3.731593    4.931034
   9 C     6.0000    0    12.011    1.331248   -5.631339    3.480295
  10 C     6.0000    0    12.011   -1.331229   -5.631339    3.480301
  11 C     6.0000    0    12.011   -2.711007   -3.731595    4.931049
  12 C     6.0000    0    12.011   -4.944183   -3.006386    3.480405
  13 C     6.0000    0    12.011   -5.766598   -0.473917    3.480025
  14 C     6.0000    0    12.011   -4.386701    1.425502    4.931082
  15 C     6.0000    0    12.011   -4.386963    3.773658    3.480498
  16 C     6.0000    0    12.011   -5.766261    3.324684    1.132396
  17 C     6.0000    0    12.011   -6.619308    0.700040    1.132473
  18 C     6.0000    0    12.011   -6.619310   -0.700041   -1.132441
  19 C     6.0000    0    12.011   -5.766265   -3.324686   -1.132369
  20 C     6.0000    0    12.011   -4.943637   -4.457072    1.132526
  21 C     6.0000    0    12.011   -2.711311   -6.079582    1.132528
  22 C     6.0000    0    12.011   -1.379916   -6.512028   -1.132503
  23 C     6.0000    0    12.011    1.379914   -6.512028   -1.132511
  24 C     6.0000    0    12.011    2.711320   -6.079582    1.132515
  25 C     6.0000    0    12.011    4.943646   -4.457072    1.132503
  26 C     6.0000    0    12.011    5.766261   -3.324684   -1.132396
  27 C     6.0000    0    12.011    6.619306   -0.700038   -1.132473
  28 C     6.0000    0    12.011    6.619314    0.700041    1.132441
  29 C     6.0000    0    12.011    5.766267    3.324688    1.132369
  30 C     6.0000    0    12.011    4.943637    4.457072   -1.132526
  31 C     6.0000    0    12.011    4.944183    3.006384   -3.480405
  32 C     6.0000    0    12.011    5.766598    0.473917   -3.480027
  33 C     6.0000    0    12.011    4.386699   -1.425502   -4.931083
  34 C     6.0000    0    12.011    4.386965   -3.773660   -3.480499
  35 C     6.0000    0    12.011    2.232787   -5.338756   -3.480549
  36 C     6.0000    0    12.011   -0.000011   -4.613143   -4.931792
  37 C     6.0000    0    12.011   -2.232802   -5.338756   -3.480537
  38 C     6.0000    0    12.011   -4.386980   -3.773662   -3.480479
  39 C     6.0000    0    12.011   -4.386723   -1.425504   -4.931063
  40 C     6.0000    0    12.011   -5.766616    0.473913   -3.479999
  41 C     6.0000    0    12.011   -4.944200    3.006382   -3.480382
  42 C     6.0000    0    12.011   -4.943643    4.457068   -1.132502
  43 C     6.0000    0    12.011   -2.711319    6.079580   -1.132515
  44 C     6.0000    0    12.011   -1.331250    5.631340   -3.480295
  45 C     6.0000    0    12.011   -2.711031    3.731595   -4.931038
  46 C     6.0000    0    12.011   -1.379903    1.899483   -6.331166
  47 C     6.0000    0    12.011   -2.232649   -0.725373   -6.330575
  48 C     6.0000    0    12.011   -0.000015   -2.347614   -6.331282
  49 C     6.0000    0    12.011    2.232619   -0.725371   -6.330586
  50 C     6.0000    0    12.011    1.379872    1.899483   -6.331172
  51 C     6.0000    0    12.011    2.711005    3.731593   -4.931049
  52 C     6.0000    0    12.011    1.331231    5.631340   -3.480303
  53 C     6.0000    0    12.011    2.711311    6.079582   -1.132528
  54 C     6.0000    0    12.011    1.379916    6.512032    1.132503
  55 C     6.0000    0    12.011   -1.379914    6.512030    1.132511
  56 C     6.0000    0    12.011   -2.232787    5.338754    3.480547
  57 C     6.0000    0    12.011    0.000011    4.613143    4.931790
  58 C     6.0000    0    12.011    2.232800    5.338754    3.480535
  59 C     6.0000    0    12.011    4.386978    3.773660    3.480477

--------------------------------
INTERNAL COORDINATES (ANGSTROEM)
--------------------------------
 C      0   0   0     0.000000000000     0.00000000     0.00000000
 C      1   0   0     1.460408675700     0.00000000     0.00000000
 C      2   1   0     1.460478216202   108.00466685     0.00000000
 C      3   2   1     1.460413000009   107.99758522   359.97668363
 C      1   2   3     1.460407868231   107.99537982     0.03763891
 C      5   1   2     1.408930030306   120.00476095   142.61853418
 C      6   5   1     1.460516628049   119.99219824   221.79555903
 C      7   6   5     1.409019768507   120.00334905     0.00000000
 C      4   3   2     1.408933233088   119.99700682   217.40061431
 C      9   4   3     1.460517494900   120.00800387     0.00000000
 C     10   9   4     1.408922000003   119.99499997     0.00000000
 C      3   2   1     1.408933655292   119.99066813   217.37459533
 C     12   3   2     1.460507400911   120.00801219   359.96472720
 C     13  12   3     1.409019768220   119.99368391     0.03614854
 C      2   1   3     1.408929849675   120.00482016   217.34384615
 C     15   2   1     1.460570688484   120.00307406     0.00000000
 C     16  15   2     1.460531306704   107.98561337   142.59840351
 C     14  13  12     1.460403443582   120.00922970   138.17300889
 C     18  14  13     1.409049325809   119.99223513     0.00000000
 C     19  18  14     1.460418282819   120.00251733     0.00000000
 C     20  19  18     1.408920425754   120.00069928     0.00000000
 C     21  20  19     1.460358042961   119.99911793   221.79212206
 C     22  21  20     1.409042086960   119.99686769     0.00000000
 C     23  22  21     1.460439000005   120.00123204   138.17767089
 C     24  23  22     1.409042535121   120.00119495     0.00000000
 C     25  24  23     1.460358042973   119.99689236   221.82232639
 C     26  25  24     1.408920389634   119.99907319     0.00000000
 C     27  26  25     1.460419233930   120.00075652   138.20786094
 C     28  27  26     1.409048800006   120.00244426     0.00000000
 C     29  28  27     1.460419542947   120.00243676   221.82284521
 C     30  29  28     1.408920309412   120.00067659     0.00000000
 C     31  30  29     1.460474560168   120.00394451     0.00000000
 C     32  31  30     1.409018816973   119.99143392     0.02402912
 C     33  32  31     1.460517238898   120.00340043   138.17769645
 C     27  26  25     1.460531820392   120.00858035     0.00000000
 C     35  27  26     1.409043838001   119.99561644     0.02326034
 C     36  35  27     1.460568483785   119.99665014   138.17081027
 C     23  22  21     1.460495169256   120.00916590   359.97173298
 C     38  23  22     1.409043250319   119.99067564     0.00000000
 C     39  38  23     1.460571538959   119.99828152   138.16245137
 C     19  18  14     1.460402789319   119.99236035   221.80120814
 C     41  19  18     1.409020077376   120.00916265     0.00000000
 C     17  16  15     1.408919306266   120.00851256   217.38263567
 C     43  17  16     1.460357822005   119.99916819     0.00000000
 C     44  43  17     1.460527412776   107.99865248   142.62599264
 C     42  41  19     1.460507843538   119.99378422   138.17291686
 C     46  42  41     1.408933505744   120.00787032     0.03585773
 C     40  39  38     1.408929020184   120.00304086     0.00000000
 C     37  36  35     1.409161261192   119.99968667     0.00000000
 C     34  33  32     1.408928819130   119.99210996     0.00000000
 C     47  46  42     1.460410000003   119.99707786   221.79822802
 C     51  47  46     1.408932239930   119.99705855     0.00000000
 C     45  44  43     1.408924000006   120.00184913   217.38875006
 C     31  30  29     1.460358042961   119.99913104   138.20790966
 C     54  31  30     1.409042411780   119.99691527     0.00000000
 C     44  43  17     1.409042359920   119.99686488     0.00000000
 C     16  15   2     1.409043028983   119.99833274     0.00000000
 C      1   2   3     1.409162512613   119.99739533   142.64608852
 C     55  54  31     1.460495284805   120.00907777     0.02804972
 C     59  55  54     1.409043250319   119.99071625     0.00000000

---------------------------
INTERNAL COORDINATES (A.U.)
---------------------------
 C      0   0   0     0.000000000000     0.00000000     0.00000000
 C      1   0   0     2.759772440676     0.00000000     0.00000000
 C      2   1   0     2.759903853181   108.00466685     0.00000000
 C      3   2   1     2.759780612435   107.99758522   359.97668363
 C      1   2   3     2.759770914781   107.99537982     0.03763891
 C      5   1   2     2.662491899136   120.00476095   142.61853418
 C      6   5   1     2.759976441052   119.99219824   221.79555903
 C      7   6   5     2.662661479759   120.00334905     0.00000000
 C      4   3   2     2.662497951517   119.99700682   217.40061431
 C      9   4   3     2.759978079161   120.00800387     0.00000000
 C     10   9   4     2.662476724063   119.99499997     0.00000000
 C      3   2   1     2.662498749366   119.99066813   217.37459533
 C     12   3   2     2.759959004287   120.00801219   359.96472720
 C     13  12   3     2.662661479217   119.99368391     0.03614854
 C      2   1   3     2.662491557793   120.00482016   217.34384615
 C     15   2   1     2.760078600467   120.00307406     0.00000000
 C     16  15   2     2.760004179688   107.98561337   142.59840351
 C     14  13  12     2.759762553406   120.00922970   138.17300889
 C     18  14  13     2.662717334966   119.99223513     0.00000000
 C     19  18  14     2.759790595499   120.00251733     0.00000000
 C     20  19  18     2.662473749162   120.00069928     0.00000000
 C     21  20  19     2.759676758666   119.99911793   221.79212206
 C     22  21  20     2.662703655524   119.99686769     0.00000000
 C     23  22  21     2.759829745308   120.00123204   138.17767089
 C     24  23  22     2.662704502425   120.00119495     0.00000000
 C     25  24  23     2.759676758689   119.99689236   221.82232639
 C     26  25  24     2.662473680906   119.99907319     0.00000000
 C     27  26  25     2.759792392840   120.00075652   138.20786094
 C     28  27  26     2.662716341341   120.00244426     0.00000000
 C     29  28  27     2.759792976797   120.00243676   221.82284521
 C     30  29  28     2.662473529309   120.00067659     0.00000000
 C     31  30  29     2.759896944277   120.00394451     0.00000000
 C     32  31  30     2.662659681621   119.99143392     0.02402912
 C     33  32  31     2.759977595388   120.00340043   138.17769645
 C     27  26  25     2.760005150418   120.00858035     0.00000000
 C     35  27  26     2.662706964511   119.99561644     0.02326034
 C     36  35  27     2.760074434190   119.99665014   138.17081027
 C     23  22  21     2.759935889809   120.00916590   359.97173298
 C     38  23  22     2.662705853953   119.99067564     0.00000000
 C     39  38  23     2.760080207632   119.99828152   138.16245137
 C     19  18  14     2.759761317028   119.99236035   221.80120814
 C     41  19  18     2.662662063438   120.00916265     0.00000000
 C     17  16  15     2.662471633637   120.00851256   217.38263567
 C     43  17  16     2.759676341118   119.99916819     0.00000000
 C     44  43  17     2.759996821230   107.99865248   142.62599264
 C     42  41  19     2.759959840731   119.99378422   138.17291686
 C     46  42  41     2.662498466762   120.00787032     0.03585773
 C     40  39  38     2.662489990283   120.00304086     0.00000000
 C     37  36  35     2.662928862184   119.99968667     0.00000000
 C     34  33  32     2.662489610344   119.99210996     0.00000000
 C     47  46  42     2.759774943246   119.99707786   221.79822802
 C     51  47  46     2.662496074720   119.99705855     0.00000000
 C     45  44  43     2.662480503520   120.00184913   217.38875006
 C     31  30  29     2.759676758666   119.99913104   138.20790966
 C     54  31  30     2.662704269344   119.99691527     0.00000000
 C     44  43  17     2.662704171344   119.99686488     0.00000000
 C     16  15   2     2.662705435689   119.99833274     0.00000000
 C      1   2   3     2.662931227026   119.99739533   142.64608852
 C     55  54  31     2.759936108165   120.00907777     0.02804972
 C     59  55  54     2.662705853953   119.99071625     0.00000000

---------------------
BASIS SET INFORMATION
---------------------
There are 1 groups of distinct atoms

 Group   1 Type C   : 7s4p1d contracted to 3s2p1d pattern {511/31/1}

Atom   0C    basis set group =>   1
Atom   1C    basis set group =>   1
Atom   2C    basis set group =>   1
Atom   3C    basis set group =>   1
Atom   4C    basis set group =>   1
Atom   5C    basis set group =>   1
Atom   6C    basis set group =>   1
Atom   7C    basis set group =>   1
Atom   8C    basis set group =>   1
Atom   9C    basis set group =>   1
Atom  10C    basis set group =>   1
Atom  11C    basis set group =>   1
Atom  12C    basis set group =>   1
Atom  13C    basis set group =>   1
Atom  14C    basis set group =>   1
Atom  15C    basis set group =>   1
Atom  16C    basis set group =>   1
Atom  17C    basis set group =>   1
Atom  18C    basis set group =>   1
Atom  19C    basis set group =>   1
Atom  20C    basis set group =>   1
Atom  21C    basis set group =>   1
Atom  22C    basis set group =>   1
Atom  23C    basis set group =>   1
Atom  24C    basis set group =>   1
Atom  25C    basis set group =>   1
Atom  26C    basis set group =>   1
Atom  27C    basis set group =>   1
Atom  28C    basis set group =>   1
Atom  29C    basis set group =>   1
Atom  30C    basis set group =>   1
Atom  31C    basis set group =>   1
Atom  32C    basis set group =>   1
Atom  33C    basis set group =>   1
Atom  34C    basis set group =>   1
Atom  35C    basis set group =>   1
Atom  36C    basis set group =>   1
Atom  37C    basis set group =>   1
Atom  38C    basis set group =>   1
Atom  39C    basis set group =>   1
Atom  40C    basis set group =>   1
Atom  41C    basis set group =>   1
Atom  42C    basis set group =>   1
Atom  43C    basis set group =>   1
Atom  44C    basis set group =>   1
Atom  45C    basis set group =>   1
Atom  46C    basis set group =>   1
Atom  47C    basis set group =>   1
Atom  48C    basis set group =>   1
Atom  49C    basis set group =>   1
Atom  50C    basis set group =>   1
Atom  51C    basis set group =>   1
Atom  52C    basis set group =>   1
Atom  53C    basis set group =>   1
Atom  54C    basis set group =>   1
Atom  55C    basis set group =>   1
Atom  56C    basis set group =>   1
Atom  57C    basis set group =>   1
Atom  58C    basis set group =>   1
Atom  59C    basis set group =>   1
---------------------------------
AUXILIARY/J BASIS SET INFORMATION
---------------------------------
There are 1 groups of distinct atoms

 Group   1 Type C   : 12s5p4d2f1g contracted to 6s4p3d1f1g pattern {711111/2111/211/2/1}

Atom   0C    basis set group =>   1
Atom   1C    basis set group =>   1
Atom   2C    basis set group =>   1
Atom   3C    basis set group =>   1
Atom   4C    basis set group =>   1
Atom   5C    basis set group =>   1
Atom   6C    basis set group =>   1
Atom   7C    basis set group =>   1
Atom   8C    basis set group =>   1
Atom   9C    basis set group =>   1
Atom  10C    basis set group =>   1
Atom  11C    basis set group =>   1
Atom  12C    basis set group =>   1
Atom  13C    basis set group =>   1
Atom  14C    basis set group =>   1
Atom  15C    basis set group =>   1
Atom  16C    basis set group =>   1
Atom  17C    basis set group =>   1
Atom  18C    basis set group =>   1
Atom  19C    basis set group =>   1
Atom  20C    basis set group =>   1
Atom  21C    basis set group =>   1
Atom  22C    basis set group =>   1
Atom  23C    basis set group =>   1
Atom  24C    basis set group =>   1
Atom  25C    basis set group =>   1
Atom  26C    basis set group =>   1
Atom  27C    basis set group =>   1
Atom  28C    basis set group =>   1
Atom  29C    basis set group =>   1
Atom  30C    basis set group =>   1
Atom  31C    basis set group =>   1
Atom  32C    basis set group =>   1
Atom  33C    basis set group =>   1
Atom  34C    basis set group =>   1
Atom  35C    basis set group =>   1
Atom  36C    basis set group =>   1
Atom  37C    basis set group =>   1
Atom  38C    basis set group =>   1
Atom  39C    basis set group =>   1
Atom  40C    basis set group =>   1
Atom  41C    basis set group =>   1
Atom  42C    basis set group =>   1
Atom  43C    basis set group =>   1
Atom  44C    basis set group =>   1
Atom  45C    basis set group =>   1
Atom  46C    basis set group =>   1
Atom  47C    basis set group =>   1
Atom  48C    basis set group =>   1
Atom  49C    basis set group =>   1
Atom  50C    basis set group =>   1
Atom  51C    basis set group =>   1
Atom  52C    basis set group =>   1
Atom  53C    basis set group =>   1
Atom  54C    basis set group =>   1
Atom  55C    basis set group =>   1
Atom  56C    basis set group =>   1
Atom  57C    basis set group =>   1
Atom  58C    basis set group =>   1
Atom  59C    basis set group =>   1


           ************************************************************
           *        Program running with 12 parallel MPI-processes    *
           *              working on a common directory               *
           ************************************************************
------------------------------------------------------------------------------
                           ORCA GTO INTEGRAL CALCULATION
                           -- RI-GTO INTEGRALS CHOSEN --
------------------------------------------------------------------------------

                         BASIS SET STATISTICS AND STARTUP INFO

Gaussian basis set:
 # of primitive gaussian shells          ...  720
 # of primitive gaussian functions       ... 1440
 # of contracted shells                  ...  360
 # of contracted basis functions         ...  840
 Highest angular momentum                ...    2
 Maximum contraction depth               ...    5
Auxiliary gaussian basis set:
 # of primitive gaussian shells          ... 1440
 # of primitive gaussian functions       ... 4200
 # of contracted shells                  ...  900
 # of contracted aux-basis functions     ... 2940
 Highest angular momentum                ...    4
 Maximum contraction depth               ...    7
Ratio of auxiliary to basis functions    ...  3.50
Integral package used                  ... LIBINT
 One Electron integrals                  ... done
 Ordering auxiliary basis shells         ... done
 Integral threshhold             Thresh  ...  2.500e-11
 Primitive cut-off               TCut    ...  2.500e-12
 Pre-screening matrix                    ... done
 Shell pair data                         ... 
 Ordering of the shell pairs             ... done (   0.014 sec) 49828 of 64980 pairs
 Determination of significant pairs      ... done (   0.000 sec)
 Creation of shell pair data             ... done (   0.012 sec)
 Storage of shell pair data              ... done (   0.067 sec)
 Shell pair data done in (   0.094 sec)
 Computing two index integrals           ... done
 Cholesky decomposition of the V-matrix  ... done


Timings:
 Total evaluation time                   ...   2.959 sec (  0.049 min)
 One electron matrix time                ...   0.713 sec (  0.012 min) = 24.1%
 Schwartz matrix evaluation time         ...   0.692 sec (  0.012 min) = 23.4%
 Two index repulsion integral time       ...   0.360 sec (  0.006 min) = 12.2%
 Cholesky decomposition of V             ...   1.060 sec (  0.018 min) = 35.8%
 Three index repulsion integral time     ...   0.000 sec (  0.000 min) =  0.0%



           ************************************************************
           *        Program running with 12 parallel MPI-processes    *
           *              working on a common directory               *
           ************************************************************
-------------------------------------------------------------------------------
                                 ORCA SCF
-------------------------------------------------------------------------------

------------
SCF SETTINGS
------------
Hamiltonian:
 Density Functional     Method          .... DFT(GTOs)
 Exchange Functional    Exchange        .... PBE
   PBE kappa parameter   XKappa         ....  1.245000
   PBE mue parameter    XMuePBE         ....  0.219520
 Correlation Functional Correlation     .... PBE
   PBE beta parameter  CBetaPBE         ....  0.066725
 LDA part of GGA corr.  LDAOpt          .... PW91-LDA
 Gradients option       PostSCFGGA      .... off
   Density functional embedding theory  .... OFF
   NL short-range parameter             ....  3.700000
 RI-approximation to the Coulomb term is turned on
   Number of auxiliary basis functions  .... 2940


General Settings:
 Integral files         IntName         .... C60
 Hartree-Fock type      HFTyp           .... RHF
 Total Charge           Charge          ....    0
 Multiplicity           Mult            ....    1
 Number of Electrons    NEL             ....  360
 Basis Dimension        Dim             ....  840
 Nuclear Repulsion      ENuc            ....   8272.8254992613 Eh

Convergence Acceleration:
 DIIS                   CNVDIIS         .... on
   Start iteration      DIISMaxIt       ....    12
   Startup error        DIISStart       ....  0.200000
[...]
  81:       707.34    0.000000  ( -0.000199   0.000002   0.000275)
  82:       707.37    0.000000  (  0.000005  -0.000131  -0.000250)
  83:       736.08    0.000000  ( -0.000118  -0.000630  -0.000076)
  84:       736.11    0.000004  ( -0.001151   0.001591   0.000375)
  85:       736.13    0.000009  ( -0.002190  -0.001496   0.001467)
  86:       736.13    0.000011  ( -0.001953   0.000277  -0.002618)
  87:       773.48    0.000001  ( -0.000085   0.000239  -0.000820)
  88:       773.54    0.000001  (  0.000254  -0.000163  -0.000996)
  89:       773.55    0.000001  ( -0.000494  -0.000465  -0.000986)
  90:       773.60    0.000000  ( -0.000130  -0.000141   0.000429)
  91:       773.61    0.000002  ( -0.000275  -0.000403   0.001445)
  92:       774.40    0.000000  (  0.000079  -0.000427   0.000087)
  93:       774.44    0.000000  (  0.000400  -0.000198   0.000328)
  94:       774.44    0.000000  (  0.000062   0.000009   0.000353)
  95:       809.85    0.000000  (  0.000136  -0.000295   0.000228)
  96:       809.91    0.000000  (  0.000103  -0.000005  -0.000019)
  97:       809.96    0.000000  (  0.000231  -0.000152   0.000031)
  98:       925.05    0.000000  ( -0.000155   0.000131   0.000119)
  99:       965.88    0.000006  ( -0.000098   0.002387  -0.000193)
 100:       965.91    0.000008  ( -0.002769  -0.000058  -0.000048)
 101:       965.97    0.000000  (  0.000007  -0.000076  -0.000096)
 102:       965.99    0.000003  ( -0.000034  -0.000358  -0.001643)
 103:       973.53    0.000001  ( -0.000081   0.000893  -0.000238)
 104:       973.60    0.000001  ( -0.000077  -0.000091  -0.000821)
 105:       973.63    0.000010  (  0.000084   0.000923   0.003098)
 106:      1100.95    0.000000  ( -0.000177  -0.000369  -0.000264)
 107:      1101.00    0.000000  ( -0.000161  -0.000043  -0.000219)
 108:      1101.07    0.000000  (  0.000345  -0.000211  -0.000114)
 109:      1101.12    0.000000  (  0.000305  -0.000314   0.000469)
 110:      1107.18    0.000000  ( -0.000232  -0.000035   0.000271)
 111:      1107.24    0.000000  ( -0.000290  -0.000136   0.000020)
 112:      1107.30    0.000000  (  0.000526   0.000089  -0.000133)
 113:      1107.32    0.000000  (  0.000056   0.000495   0.000246)
 114:      1107.37    0.000001  ( -0.000104   0.000619  -0.000575)
 115:      1201.76    8.824683  ( -2.970114   0.045229  -0.032544)
 116:      1201.85    8.825713  ( -0.055076  -2.647215   1.347194)
 117:      1201.93    8.832568  ( -0.008547   1.353513   2.645845)
 118:      1207.12    0.000486  (  0.021903  -0.001316  -0.002101)
 119:      1207.19    0.005891  (  0.002714   0.041926   0.064235)
 120:      1207.41    0.008648  (  0.000018   0.030795  -0.087750)
 121:      1219.24    0.000001  ( -0.000120  -0.000534  -0.000627)
 122:      1219.25    0.000004  (  0.001555   0.000340   0.001311)
 123:      1219.32    0.000008  ( -0.001984  -0.001386  -0.001591)
 124:      1219.41    0.000259  ( -0.002346   0.012800   0.009461)
 125:      1219.44    0.000009  ( -0.000083  -0.002979  -0.000501)
 126:      1265.25    0.000000  ( -0.000546   0.000150   0.000247)
 127:      1265.25    0.000001  ( -0.000013  -0.000766  -0.000321)
 128:      1265.37    0.000001  ( -0.000035  -0.000007   0.000912)
 129:      1265.43    0.000000  (  0.000046   0.000357  -0.000180)
 130:      1265.46    0.000000  (  0.000079   0.000222  -0.000074)
 131:      1280.09    0.000000  ( -0.000004  -0.000238   0.000001)
 132:      1280.14    0.000000  ( -0.000145   0.000159  -0.000254)
 133:      1280.17    0.000000  (  0.000069   0.000213  -0.000067)
 134:      1310.26    0.000000  (  0.000150   0.000026   0.000048)
 135:      1310.28    0.000000  (  0.000071  -0.000114  -0.000089)
 136:      1310.37    0.000000  ( -0.000008   0.000090   0.000135)
 137:      1310.42    0.000000  ( -0.000101  -0.000013  -0.000027)
 138:      1319.26    0.000002  (  0.000397   0.000940   0.001022)
 139:      1319.36    0.000008  ( -0.002763  -0.000043   0.000018)
 140:      1319.58    0.000001  (  0.000603  -0.000597  -0.000104)
 141:      1319.60    0.000054  ( -0.000058  -0.006766  -0.002837)
 142:      1345.62    0.000010  (  0.003141  -0.000005   0.000364)
 143:      1345.75    0.000003  ( -0.001584   0.000087  -0.000178)
 144:      1345.85    0.000009  (  0.000145  -0.002455  -0.001676)
 145:      1345.88    0.000000  (  0.000230   0.000286  -0.000286)
 146:      1345.89    0.000016  ( -0.000071  -0.000405  -0.003985)
 147:      1345.91    0.000000  ( -0.000623  -0.000020   0.000129)
 148:      1346.17    0.000000  (  0.000163  -0.000191   0.000143)
 149:      1346.19    0.000000  (  0.000215   0.000003   0.000104)
 150:      1445.02    0.000006  (  0.000594  -0.001986   0.001404)
 151:      1445.14    0.000001  ( -0.000098   0.000605  -0.000841)
 152:      1445.17    0.000003  (  0.001166  -0.000800  -0.000811)
 153:      1445.24    0.000001  (  0.000723   0.000016   0.000345)
 154:      1445.30    0.000005  ( -0.000555  -0.001503  -0.001617)
 155:      1446.30    0.001369  ( -0.001347  -0.014852  -0.033862)
 156:      1446.30    0.000068  (  0.001637   0.002584   0.007680)
 157:      1446.49    0.000481  ( -0.001325  -0.016608  -0.014265)
 158:      1446.52    0.000060  (  0.007764  -0.000085   0.000015)
 159:      1456.92   10.851552  ( -0.009830  -2.381601  -2.275836)
 160:      1457.12   10.843539  (  1.725144  -1.943684   2.022254)
 161:      1457.12   10.837374  ( -2.803105  -1.187869   1.252574)
 162:      1496.86    0.000000  (  0.000014  -0.000014  -0.000175)
 163:      1508.68    0.000001  (  0.000386  -0.000653  -0.000070)
 164:      1508.80    0.000000  (  0.000054  -0.000015   0.000307)
 165:      1508.86    0.000000  ( -0.000150  -0.000024   0.000277)
 166:      1508.92    0.000000  (  0.000190  -0.000116  -0.000246)
 167:      1534.81    0.000062  ( -0.000212  -0.006763  -0.003982)
 168:      1534.86    0.000005  ( -0.002153   0.000371   0.000318)
 169:      1535.03    0.000072  (  0.000139   0.007760   0.003483)
 170:      1567.96    0.000053  ( -0.000005   0.007105   0.001499)
 171:      1567.99    0.000002  ( -0.001279  -0.000337  -0.000014)
 172:      1568.09    0.000000  ( -0.000340   0.000216   0.000164)
 173:      1568.18    0.000012  (  0.000034  -0.000981   0.003396)
 174:      1568.24    0.000057  ( -0.007573  -0.000178   0.000008)
 175:      1576.95    0.000000  ( -0.000022   0.000214  -0.000129)
 176:      1577.05    0.000000  ( -0.000227  -0.000009   0.000191)
 177:      1577.15    0.000000  (  0.000021  -0.000113  -0.000501)
 178:      1577.25    0.000000  (  0.000001  -0.000142  -0.000077)
 179:      1577.31    0.000000  (  0.000002  -0.000010  -0.000514)

The first frequency considered to be a vibration is 6
The total number of vibrations considered is 174


--------------------------
THERMOCHEMISTRY AT 298.15K
--------------------------

Temperature         ... 298.15 K
Pressure            ... 1.00 atm
Total Mass          ... 720.66 AMU

Throughout the following assumptions are being made:
  (1) The electronic state is orbitally nondegenerate
  (2) There are no thermally accessible electronically excited states
  (3) Hindered rotations indicated by low frequency modes are not
      treated as such but are treated as vibrations and this may
      cause some error
  (4) All equations used are the standard statistical mechanics
      equations for an ideal gas
  (5) All vibrations are strictly harmonic

freq.     255.58  E(vib)   ...       0.30 
freq.     255.61  E(vib)   ...       0.30 
freq.     255.68  E(vib)   ...       0.30 
freq.     255.75  E(vib)   ...       0.30 
freq.     255.82  E(vib)   ...       0.30 
freq.     327.77  E(vib)   ...       0.24 
freq.     327.82  E(vib)   ...       0.24 
freq.     327.88  E(vib)   ...       0.24 
freq.     339.69  E(vib)   ...       0.23 
freq.     339.73  E(vib)   ...       0.23 
freq.     339.87  E(vib)   ...       0.23 
freq.     339.93  E(vib)   ...       0.23 
freq.     395.01  E(vib)   ...       0.20 
freq.     395.03  E(vib)   ...       0.20 
freq.     395.03  E(vib)   ...       0.20 
freq.     395.04  E(vib)   ...       0.20 
freq.     395.09  E(vib)   ...       0.20 
freq.     412.36  E(vib)   ...       0.19 
freq.     412.38  E(vib)   ...       0.19 
freq.     412.41  E(vib)   ...       0.19 
freq.     412.45  E(vib)   ...       0.19 
freq.     412.52  E(vib)   ...       0.19 
freq.     462.97  E(vib)   ...       0.16 
freq.     463.01  E(vib)   ...       0.16 
freq.     463.07  E(vib)   ...       0.16 
freq.     463.11  E(vib)   ...       0.16 
freq.     487.17  E(vib)   ...       0.15 
freq.     507.36  E(vib)   ...       0.14 
freq.     507.47  E(vib)   ...       0.14 
freq.     507.51  E(vib)   ...       0.14 
freq.     510.16  E(vib)   ...       0.14 
freq.     510.17  E(vib)   ...       0.14 
freq.     510.22  E(vib)   ...       0.14 
freq.     510.26  E(vib)   ...       0.14 
freq.     510.28  E(vib)   ...       0.14 
freq.     538.33  E(vib)   ...       0.12 
freq.     538.39  E(vib)   ...       0.12 
freq.     538.39  E(vib)   ...       0.12 
freq.     547.39  E(vib)   ...       0.12 
freq.     547.43  E(vib)   ...       0.12 
freq.     547.43  E(vib)   ...       0.12 
freq.     558.16  E(vib)   ...       0.12 
freq.     558.17  E(vib)   ...       0.12 
freq.     558.18  E(vib)   ...       0.12 
freq.     558.19  E(vib)   ...       0.12 
freq.     577.86  E(vib)   ...       0.11 
freq.     577.91  E(vib)   ...       0.11 
freq.     577.93  E(vib)   ...       0.11 
freq.     653.62  E(vib)   ...       0.08 
freq.     653.63  E(vib)   ...       0.08 
freq.     653.64  E(vib)   ...       0.08 
freq.     653.67  E(vib)   ...       0.08 
freq.     653.68  E(vib)   ...       0.08 
freq.     662.24  E(vib)   ...       0.08 
freq.     662.35  E(vib)   ...       0.08 
freq.     662.40  E(vib)   ...       0.08 
freq.     681.86  E(vib)   ...       0.08 
freq.     681.90  E(vib)   ...       0.08 
freq.     681.91  E(vib)   ...       0.08 
freq.     681.94  E(vib)   ...       0.08 
freq.     682.00  E(vib)   ...       0.08 
freq.     684.78  E(vib)   ...       0.07 
freq.     684.89  E(vib)   ...       0.07 
freq.     684.94  E(vib)   ...       0.07 
freq.     684.95  E(vib)   ...       0.07 
freq.     686.59  E(vib)   ...       0.07 
freq.     686.62  E(vib)   ...       0.07 
freq.     686.68  E(vib)   ...       0.07 
freq.     700.85  E(vib)   ...       0.07 
freq.     700.89  E(vib)   ...       0.07 
freq.     700.94  E(vib)   ...       0.07 
freq.     701.01  E(vib)   ...       0.07 
freq.     701.02  E(vib)   ...       0.07 
freq.     707.19  E(vib)   ...       0.07 
freq.     707.24  E(vib)   ...       0.07 
freq.     707.34  E(vib)   ...       0.07 
freq.     707.37  E(vib)   ...       0.07 
freq.     736.08  E(vib)   ...       0.06 
freq.     736.11  E(vib)   ...       0.06 
freq.     736.13  E(vib)   ...       0.06 
freq.     736.13  E(vib)   ...       0.06 
freq.     773.48  E(vib)   ...       0.05 
freq.     773.54  E(vib)   ...       0.05 
freq.     773.55  E(vib)   ...       0.05 
freq.     773.60  E(vib)   ...       0.05 
freq.     773.61  E(vib)   ...       0.05 
freq.     774.40  E(vib)   ...       0.05 
freq.     774.44  E(vib)   ...       0.05 
freq.     774.44  E(vib)   ...       0.05 
freq.     809.85  E(vib)   ...       0.05 
freq.     809.91  E(vib)   ...       0.05 
freq.     809.96  E(vib)   ...       0.05 
freq.     925.05  E(vib)   ...       0.03 
freq.     965.88  E(vib)   ...       0.03 
freq.     965.91  E(vib)   ...       0.03 
freq.     965.97  E(vib)   ...       0.03 
freq.     965.99  E(vib)   ...       0.03 
freq.     973.53  E(vib)   ...       0.03 
freq.     973.60  E(vib)   ...       0.03 
freq.     973.63  E(vib)   ...       0.03 
freq.    1100.95  E(vib)   ...       0.02 
freq.    1101.00  E(vib)   ...       0.02 
freq.    1101.07  E(vib)   ...       0.02 
freq.    1101.12  E(vib)   ...       0.02 
freq.    1107.18  E(vib)   ...       0.02 
freq.    1107.24  E(vib)   ...       0.02 
freq.    1107.30  E(vib)   ...       0.02 
freq.    1107.32  E(vib)   ...       0.02 
freq.    1107.37  E(vib)   ...       0.02 
freq.    1201.76  E(vib)   ...       0.01 
freq.    1201.85  E(vib)   ...       0.01 
freq.    1201.93  E(vib)   ...       0.01 
freq.    1207.12  E(vib)   ...       0.01 
freq.    1207.19  E(vib)   ...       0.01 
freq.    1207.41  E(vib)   ...       0.01 
freq.    1219.24  E(vib)   ...       0.01 
freq.    1219.25  E(vib)   ...       0.01 
freq.    1219.32  E(vib)   ...       0.01 
freq.    1219.41  E(vib)   ...       0.01 
freq.    1219.44  E(vib)   ...       0.01 
freq.    1265.25  E(vib)   ...       0.01 
freq.    1265.25  E(vib)   ...       0.01 
freq.    1265.37  E(vib)   ...       0.01 
freq.    1265.43  E(vib)   ...       0.01 
freq.    1265.46  E(vib)   ...       0.01 
freq.    1280.09  E(vib)   ...       0.01 
freq.    1280.14  E(vib)   ...       0.01 
freq.    1280.17  E(vib)   ...       0.01 
freq.    1310.26  E(vib)   ...       0.01 
freq.    1310.28  E(vib)   ...       0.01 
freq.    1310.37  E(vib)   ...       0.01 
freq.    1310.42  E(vib)   ...       0.01 
freq.    1319.26  E(vib)   ...       0.01 
freq.    1319.36  E(vib)   ...       0.01 
freq.    1319.58  E(vib)   ...       0.01 
freq.    1319.60  E(vib)   ...       0.01 
freq.    1345.62  E(vib)   ...       0.01 
freq.    1345.75  E(vib)   ...       0.01 
freq.    1345.85  E(vib)   ...       0.01 
freq.    1345.88  E(vib)   ...       0.01 
freq.    1345.89  E(vib)   ...       0.01 
freq.    1345.91  E(vib)   ...       0.01 
freq.    1346.17  E(vib)   ...       0.01 
freq.    1346.19  E(vib)   ...       0.01 
freq.    1445.02  E(vib)   ...       0.00 
freq.    1445.14  E(vib)   ...       0.00 
freq.    1445.17  E(vib)   ...       0.00 
freq.    1445.24  E(vib)   ...       0.00 
freq.    1445.30  E(vib)   ...       0.00 
freq.    1446.30  E(vib)   ...       0.00 
freq.    1446.30  E(vib)   ...       0.00 
freq.    1446.49  E(vib)   ...       0.00 
freq.    1446.52  E(vib)   ...       0.00 
freq.    1456.92  E(vib)   ...       0.00 
freq.    1457.12  E(vib)   ...       0.00 
freq.    1457.12  E(vib)   ...       0.00 
freq.    1496.86  E(vib)   ...       0.00 
freq.    1508.68  E(vib)   ...       0.00 
freq.    1508.80  E(vib)   ...       0.00 
freq.    1508.86  E(vib)   ...       0.00 
freq.    1508.92  E(vib)   ...       0.00 
freq.    1534.81  E(vib)   ...       0.00 
freq.    1534.86  E(vib)   ...       0.00 
freq.    1535.03  E(vib)   ...       0.00 
freq.    1567.96  E(vib)   ...       0.00 
freq.    1567.99  E(vib)   ...       0.00 
freq.    1568.09  E(vib)   ...       0.00 
freq.    1568.18  E(vib)   ...       0.00 
freq.    1568.24  E(vib)   ...       0.00 
freq.    1576.95  E(vib)   ...       0.00 
freq.    1577.05  E(vib)   ...       0.00 
freq.    1577.15  E(vib)   ...       0.00 
freq.    1577.25  E(vib)   ...       0.00 
freq.    1577.31  E(vib)   ...       0.00 

------------
INNER ENERGY
------------

The inner energy is: U= E(el) + E(ZPE) + E(vib) + E(rot) + E(trans)
    E(el)   - is the total energy from the electronic structure calculation
              = E(kin-el) + E(nuc-el) + E(el-el) + E(nuc-nuc)
    E(ZPE)  - the the zero temperature vibrational energy from the frequency calculation
    E(vib)  - the the finite temperature correction to E(ZPE) due to population
              of excited vibrational states
    E(rot)  - is the rotational thermal energy
    E(trans)- is the translational thermal energy

Summary of contributions to the inner energy U:
Electronic energy                ...  -2284.45631222 Eh
Zero point energy                ...      0.36526209 Eh     229.20 kcal/mol
Thermal vibrational correction   ...      0.01944427 Eh      12.20 kcal/mol
Thermal rotational correction    ...      0.00141627 Eh       0.89 kcal/mol
Thermal translational correction ...      0.00141627 Eh       0.89 kcal/mol
-----------------------------------------------------------------------
Total thermal energy                  -2284.06877332 Eh


Summary of corrections to the electronic energy:
(perhaps to be used in another calculation)
Total thermal correction                  0.02227682 Eh      13.98 kcal/mol
Non-thermal (ZPE) correction              0.36526209 Eh     229.20 kcal/mol
-----------------------------------------------------------------------
Total correction                          0.38753890 Eh     243.18 kcal/mol


--------
ENTHALPY
--------

The enthalpy is H = U + kB*T
                kB is Boltzmann's constant
Total free energy                 ...  -2284.06877332 Eh 
Thermal Enthalpy correction       ...      0.00094421 Eh       0.59 kcal/mol
-----------------------------------------------------------------------
Total Enthalpy                    ...  -2284.06782911 Eh


Note: Rotational entropy computed according to Herzberg 
Infrared and Raman Spectra, Chapter V,1, Van Nostrand Reinhold, 1945 
Point Group:  Cs, Symmetry Number:   1  
Rotational constants in cm-1:     0.002748     0.002748     0.002748 

Vibrational entropy computed according to the QRRHO of S. Grimme
Chem.Eur.J. 2012 18 9955


-------
ENTROPY
-------

The entropy contributions are T*S = T*(S(el)+S(vib)+S(rot)+S(trans))
     S(el)   - electronic entropy
     S(vib)  - vibrational entropy
     S(rot)  - rotational entropy
     S(trans)- translational entropy
The entropies will be listed as mutliplied by the temperature to get
units of energy

Electronic entropy                ...      0.00000000 Eh      0.00 kcal/mol
Vibrational entropy               ...      0.02770338 Eh     17.38 kcal/mol
Rotational entropy                ...      0.01786224 Eh     11.21 kcal/mol
Translational entropy             ...      0.02166837 Eh     13.60 kcal/mol
-----------------------------------------------------------------------
Final entropy term                ...      0.06723399 Eh     42.19 kcal/mol

In case the symmetry of your molecule has not been determined correctly
or in case you have a reason to use a different symmetry number we print 
out the resulting rotational entropy values for sn=1,12 :
 --------------------------------------------------------
|  sn= 1 | S(rot)=       0.01786224 Eh     11.21 kcal/mol|
|  sn= 2 | S(rot)=       0.01720779 Eh     10.80 kcal/mol|
|  sn= 3 | S(rot)=       0.01682495 Eh     10.56 kcal/mol|
|  sn= 4 | S(rot)=       0.01655333 Eh     10.39 kcal/mol|
|  sn= 5 | S(rot)=       0.01634264 Eh     10.26 kcal/mol|
|  sn= 6 | S(rot)=       0.01617050 Eh     10.15 kcal/mol|
|  sn= 7 | S(rot)=       0.01602495 Eh     10.06 kcal/mol|
|  sn= 8 | S(rot)=       0.01589887 Eh      9.98 kcal/mol|
|  sn= 9 | S(rot)=       0.01578767 Eh      9.91 kcal/mol|
|  sn=10 | S(rot)=       0.01568819 Eh      9.84 kcal/mol|
|  sn=11 | S(rot)=       0.01559820 Eh      9.79 kcal/mol|
|  sn=12 | S(rot)=       0.01551604 Eh      9.74 kcal/mol|
 --------------------------------------------------------


-------------------
GIBBS FREE ENERGY
-------------------

The Gibbs free energy is G = H - T*S

Total enthalpy                    ...  -2284.06782911 Eh 
Total entropy correction          ...     -0.06723399 Eh    -42.19 kcal/mol
-----------------------------------------------------------------------
Final Gibbs free energy         ...  -2284.13506310 Eh

For completeness - the Gibbs free energy minus the electronic energy
G-E(el)                           ...      0.32124912 Eh    201.59 kcal/mol


Timings for individual modules:

Sum of individual times         ...    14112.372 sec (= 235.206 min)
GTO integral calculation        ...        7.102 sec (=   0.118 min)   0.1 %
SCF iterations                  ...      182.840 sec (=   3.047 min)   1.3 %
SCF Gradient evaluation         ...       54.394 sec (=   0.907 min)   0.4 %
Geometry relaxation             ...        2.910 sec (=   0.048 min)   0.0 %
Analytical frequency calculation...    13865.127 sec (= 231.085 min)  98.2 %
                             ****ORCA TERMINATED NORMALLY****
TOTAL RUN TIME: 0 days 3 hours 55 minutes 18 seconds 783 msec
