
                                 *****************
                                 * O   R   C   A *
                                 *****************

           --- An Ab Initio, DFT and Semiempirical electronic structure package ---

                  #######################################################
                  #                        -***-                        #
                  #          Department of theory and spectroscopy      #
                  #               Directorship: Frank Neese             #
                  #        Max Planck Institute fuer Kohlenforschung    #
                  #                Kaiser Wilhelm Platz 1               #
                  #                 D-45470 Muelheim/Ruhr               #
                  #                      Germany                        #
                  #                                                     #
                  #                  All rights reserved                #
                  #                        -***-                        #
                  #######################################################


                         Program Version 4.2.1 -  RELEASE  -


 With contributions from (in alphabetic order):
   Daniel Aravena         : Magnetic Suceptibility
   Michael Atanasov       : Ab Initio Ligand Field Theory (pilot matlab implementation)
   Alexander A. Auer      : GIAO ZORA, VPT2
   Ute Becker             : Parallelization
   Giovanni Bistoni       : ED, misc. LED, open-shell LED, HFLD
   Martin Brehm           : Molecular dynamics
   Dmytro Bykov           : SCF Hessian
   Vijay G. Chilkuri      : MRCI spin determinant printing, contributions to CSF-ICE
   Dipayan Datta          : RHF DLPNO-CCSD density
   Achintya Kumar Dutta   : EOM-CC, STEOM-CC
   Dmitry Ganyushin       : Spin-Orbit,Spin-Spin,Magnetic field MRCI
   Miquel Garcia          : C-PCM Hessian, Gaussian charge scheme
   Yang Guo               : DLPNO-NEVPT2, CIM, IAO-localization
   Andreas Hansen         : Spin unrestricted coupled pair/coupled cluster methods
   Benjamin Helmich-Paris : CASSCF linear response (MC-RPA)
   Lee Huntington         : MR-EOM, pCC
   Robert Izsak           : Overlap fitted RIJCOSX, COSX-SCS-MP3, EOM
   Christian Kollmar      : KDIIS, OOCD, Brueckner-CCSD(T), CCSD density
   Simone Kossmann        : Meta GGA functionals, TD-DFT gradient, OOMP2, MP2 Hessian
   Martin Krupicka        : AUTO-CI
   Lucas Lang             : DCDCAS
   Dagmar Lenk            : GEPOL surface, SMD
   Dimitrios Liakos       : Extrapolation schemes; Compound Job, initial MDCI parallelization
   Dimitrios Manganas     : Further ROCIS development; embedding schemes
   Dimitrios Pantazis     : SARC Basis sets
   Taras Petrenko         : DFT Hessian,TD-DFT gradient, ASA, ECA, R-Raman, ABS, FL, XAS/XES, NRVS
   Peter Pinski           : DLPNO-MP2, DLPNO-MP2 Gradient
   Christoph Reimann      : Effective Core Potentials
   Marius Retegan         : Local ZFS, SOC
   Christoph Riplinger    : Optimizer, TS searches, QM/MM, DLPNO-CCSD(T), (RO)-DLPNO pert. Triples
   Tobias Risthaus        : Range-separated hybrids, TD-DFT gradient, RPA, STAB
   Michael Roemelt        : Original ROCIS implementation
   Masaaki Saitow         : Open-shell DLPNO-CCSD energy and density
   Barbara Sandhoefer     : DKH picture change effects
   Avijit Sen             : IP-ROCIS
   Kantharuban Sivalingam : CASSCF convergence, NEVPT2, FIC-MRCI
   Bernardo de Souza      : ESD, SOC TD-DFT
   Georgi Stoychev        : AutoAux, RI-MP2 NMR
   Willem Van den Heuvel  : Paramagnetic NMR
   Boris Wezisla          : Elementary symmetry handling
   Frank Wennmohs         : Technical directorship


 We gratefully acknowledge several colleagues who have allowed us to
 interface, adapt or use parts of their codes:
   Stefan Grimme, W. Hujo, H. Kruse,             : VdW corrections, initial TS optimization,
                  C. Bannwarth                     DFT functionals, gCP, sTDA/sTD-DF
   Ed Valeev, F. Pavosevic, A. Kumar             : LibInt (2-el integral package), F12 methods
   Garnet Chan, S. Sharma, J. Yang, R. Olivares  : DMRG
   Ulf Ekstrom                                   : XCFun DFT Library
   Mihaly Kallay                                 : mrcc  (arbitrary order and MRCC methods)
   Andreas Klamt, Michael Diedenhofen            : otool_cosmo (COSMO solvation model)
   Jiri Pittner, Ondrej Demel                    : Mk-CCSD
   Frank Weinhold                                : gennbo (NPA and NBO analysis)
   Christopher J. Cramer and Donald G. Truhlar   : smd solvation model
   Lars Goerigk                                  : TD-DFT with DH, B97 family of functionals
   V. Asgeirsson, H. Jonsson                     : NEB implementation
   FAccTs GmbH                                   : IRC, NEB, NEB-TS, Multilevel, MM, QM/MM, CI optimization
   S Lehtola, MJT Oliveira, MAL Marques          : LibXC Library


 Your calculation uses the libint2 library for the computation of 2-el integrals
 For citations please refer to: http://libint.valeyev.net

 Your ORCA version has been built with support for libXC version: 4.2.3
 For citations please refer to: https://tddft.org/programs/libxc/

 This ORCA versions uses:
   CBLAS   interface :  Fast vector & matrix operations
   LAPACKE interface :  Fast linear algebra routines
   SCALAPACK package :  Parallel linear algebra routines


Your calculation utilizes the geometrical counterpoise correction gCP
Please cite in your paper:
H.Kruse, S. Grimme J.Chem.Phys., 136, (2012), 154101 
   

Your calculation utilizes the atom-pairwise dispersion correction
based on tight binding partial charges (D4)
Cite in your paper:
E.Caldeweyher, C.Bannwarth, S.Grimme, J.Chem.Phys., (2017), 147, 034112.
E.Caldeweyher, S.Ehlert, A.Hansen, H.Neugebauer, S.Grimme, J.Chem.Phys., (2018), in progress.
   

----- Orbital basis set information -----
Your calculation utilizes the basis: def2-SVP
   F. Weigend and R. Ahlrichs, Phys. Chem. Chem. Phys. 7, 3297 (2005).

----- AuxJ basis set information -----
Your calculation utilizes the auxiliary basis: def2/J
   F. Weigend, Phys. Chem. Chem. Phys. 8, 1057 (2006).

================================================================================
                                        WARNINGS
                       Please study these warnings very carefully!
================================================================================


WARNING: Geometry Optimization
  ===> : Switching off AutoStart
         For restart on a previous wavefunction, please use MOREAD

INFO   : the flag for use of LIBINT has been found!

================================================================================
                                       INPUT FILE
================================================================================
NAME = C7H7+.inp
|  1> ! revPBE D4 gCP(DFT/SVP) def2-SVP Opt Freq TightOpt TightSCF Grid4 FinalGrid5 LargePrint
|  2> 
|  3> %pal
|  4>  nprocs 12
|  5> end
|  6> 
|  7> *xyz +1 1
|  8> C       -1.1575282515      2.3912273897     -0.0475892878                 
|  9> C       -2.3503090044      1.5237704594      0.0152965024                 
| 10> C       -2.4325837764      0.1858900810      0.0177755445                 
| 11> C       -1.3550935688     -0.8214068643     -0.0416364066                 
| 12> C       -0.0347435032     -0.6312807474     -0.1128211505                 
| 13> C        0.7056627431      0.6640582602     -0.1513409768                 
| 14> C        0.1295607525      2.0404913124     -0.1177718521                 
| 15> H        1.8124112287      0.5958859759     -0.2113965005                 
| 16> H        0.8542740886      2.8489215660     -0.1555487021                 
| 17> H       -1.3633906952      3.4581179282     -0.0346066988                 
| 18> H       -3.2957707830      2.0571746278      0.0669824845                 
| 19> H       -3.4362671271     -0.2274539609      0.0712158116                 
| 20> H       -1.6901268138     -1.8549789615     -0.0247616726                 
| 21> H        0.5854443974     -1.5225516952     -0.1474484367                 
| 22> *
| 23> 
| 24>                          ****END OF INPUT****
================================================================================

                       *****************************
                       * Geometry Optimization Run *
                       *****************************

Geometry optimization settings:
Update method            Update   .... BFGS
Choice of coordinates    CoordSys .... Z-matrix Internals
Initial Hessian          InHess   .... Almoef's Model

Convergence Tolerances:
Energy Change            TolE     ....  1.0000e-06 Eh
Max. Gradient            TolMAXG  ....  1.0000e-04 Eh/bohr
RMS Gradient             TolRMSG  ....  3.0000e-05 Eh/bohr
Max. Displacement        TolMAXD  ....  1.0000e-03 bohr
RMS Displacement         TolRMSD  ....  6.0000e-04 bohr
Strict Convergence                ....  False
------------------------------------------------------------------------------
                        ORCA OPTIMIZATION COORDINATE SETUP
------------------------------------------------------------------------------

The optimization will be done in new redundant internal coordinates
Making redundant internal coordinates   ...  (new redundants) done
Evaluating the initial hessian          ...  (Almloef) done
Evaluating the coordinates              ...  done
Calculating the B-matrix                .... done
Calculating the G-matrix                .... done
Diagonalizing the G-matrix              .... done
The first mode is                       ....   27
The number of degrees of freedom        ....   36

    -----------------------------------------------------------------
                    Redundant Internal Coordinates


    -----------------------------------------------------------------
         Definition                    Initial Value    Approx d2E/dq
    -----------------------------------------------------------------
      1. B(C   1,C   0)                  1.4762         0.455213   
      2. B(C   2,C   1)                  1.3404         0.749646   
      3. B(C   3,C   2)                  1.4762         0.455213   
      4. B(C   4,C   3)                  1.3359         0.762263   
      5. B(C   5,C   4)                  1.4925         0.428735   
      6. B(C   6,C   5)                  1.4925         0.428735   
      7. B(C   6,C   0)                  1.3359         0.762263   
      8. B(H   7,C   5)                  1.1105         0.334012   
      9. B(H   8,C   6)                  1.0864         0.364937   
     10. B(H   9,C   0)                  1.0866         0.364562   
     11. B(H  10,C   1)                  1.0868         0.364386   
     12. B(H  11,C   2)                  1.0868         0.364386   
     13. B(H  12,C   3)                  1.0866         0.364562   
     14. B(H  13,C   4)                  1.0864         0.364937   
     15. A(C   1,C   0,C   6)          128.7894         0.426162   
     16. A(C   6,C   0,H   9)          116.1637         0.366313   
     17. A(C   1,C   0,H   9)          115.0470         0.335772   
     18. A(C   2,C   1,H  10)          115.8743         0.365237   
     19. A(C   0,C   1,C   2)          129.5086         0.424890   
     20. A(C   0,C   1,H  10)          114.6170         0.335745   
     21. A(C   3,C   2,H  11)          114.6170         0.335745   
     22. A(C   1,C   2,C   3)          129.5086         0.424890   
     23. A(C   1,C   2,H  11)          115.8743         0.365237   
     24. A(C   2,C   3,C   4)          128.7894         0.426162   
     25. A(C   2,C   3,H  12)          115.0470         0.335772   
     26. A(C   4,C   3,H  12)          116.1637         0.366313   
     27. A(C   5,C   4,H  13)          115.3410         0.332504   
     28. A(C   3,C   4,H  13)          116.6914         0.366377   
     29. A(C   3,C   4,C   5)          127.9676         0.421620   
     30. A(C   4,C   5,C   6)          127.4687         0.381000   
     31. A(C   6,C   5,H   7)          116.2656         0.327672   
     32. A(C   4,C   5,H   7)          116.2656         0.327672   
     33. A(C   0,C   6,C   5)          127.9676         0.421620   
     34. A(C   5,C   6,H   8)          115.3410         0.332504   
     35. A(C   0,C   6,H   8)          116.6914         0.366377   
     36. D(C   2,C   1,C   0,C   6)      0.0249         0.014120   
     37. D(H  10,C   1,C   0,C   6)   -179.9788         0.014120   
     38. D(C   2,C   1,C   0,H   9)   -179.9791         0.014120   
     39. D(H  10,C   1,C   0,H   9)      0.0172         0.014120   
     40. D(C   3,C   2,C   1,H  10)   -179.9963         0.040073   
     41. D(H  11,C   2,C   1,C   0)    179.9963         0.040073   
     42. D(H  11,C   2,C   1,H  10)      0.0000         0.040073   
     43. D(C   3,C   2,C   1,C   0)     -0.0000         0.040073   
     44. D(H  12,C   3,C   2,H  11)     -0.0172         0.014120   
     45. D(H  12,C   3,C   2,C   1)    179.9791         0.014120   
     46. D(C   4,C   3,C   2,H  11)    179.9788         0.014120   
     47. D(C   4,C   3,C   2,C   1)     -0.0249         0.014120   
     48. D(H  13,C   4,C   3,C   2)   -179.9955         0.041569   
     49. D(C   5,C   4,C   3,H  12)    179.9983         0.041569   
     50. D(C   5,C   4,C   3,C   2)      0.0023         0.041569   
     51. D(H  13,C   4,C   3,H  12)      0.0005         0.041569   
     52. D(H   7,C   5,C   4,H  13)      0.0047         0.012561   
     53. D(H   7,C   5,C   4,C   3)   -179.9932         0.012561   
     54. D(C   6,C   5,C   4,H  13)   -179.9639         0.012561   
     55. D(C   6,C   5,C   4,C   3)      0.0383         0.012561   
     56. D(H   8,C   6,C   5,H   7)     -0.0047         0.012561   
     57. D(C   0,C   6,C   5,H   7)    179.9932         0.012561   
     58. D(C   0,C   6,C   5,C   4)     -0.0383         0.012561   
     59. D(H   8,C   6,C   0,H   9)     -0.0005         0.041569   
     60. D(H   8,C   6,C   0,C   1)    179.9955         0.041569   
     61. D(H   8,C   6,C   5,C   4)    179.9639         0.012561   
     62. D(C   5,C   6,C   0,H   9)   -179.9983         0.041569   
     63. D(C   5,C   6,C   0,C   1)     -0.0023         0.041569   
    -----------------------------------------------------------------

Number of atoms                         .... 14
Number of degrees of freedom            .... 63

         *************************************************************
         *                GEOMETRY OPTIMIZATION CYCLE   1            *
         *************************************************************
---------------------------------
CARTESIAN COORDINATES (ANGSTROEM)
---------------------------------
  C     -1.157528    2.391227   -0.047589
  C     -2.350309    1.523770    0.015297
  C     -2.432584    0.185890    0.017776
  C     -1.355094   -0.821407   -0.041636
  C     -0.034744   -0.631281   -0.112821
  C      0.705663    0.664058   -0.151341
  C      0.129561    2.040491   -0.117772
  H      1.812411    0.595886   -0.211397
  H      0.854274    2.848922   -0.155549
  H     -1.363391    3.458118   -0.034607
  H     -3.295771    2.057175    0.066982
  H     -3.436267   -0.227454    0.071216
  H     -1.690127   -1.854979   -0.024762
  H      0.585444   -1.522552   -0.147448

----------------------------
CARTESIAN COORDINATES (A.U.)
----------------------------
  NO LB      ZA    FRAG     MASS         X           Y           Z
   0 C     6.0000    0    12.011   -2.187411    4.518765   -0.089931
   1 C     6.0000    0    12.011   -4.441440    2.879509    0.028906
   2 C     6.0000    0    12.011   -4.596917    0.351281    0.033591
   3 C     6.0000    0    12.011   -2.560756   -1.552234   -0.078681
   4 C     6.0000    0    12.011   -0.065656   -1.192948   -0.213201
   5 C     6.0000    0    12.011    1.333509    1.254888   -0.285993
   6 C     6.0000    0    12.011    0.244834    3.855970   -0.222557
   7 H     1.0000    0     1.008    3.424961    1.126061   -0.399481
   8 H     1.0000    0     1.008    1.614344    5.383682   -0.293944
   9 H     1.0000    0     1.008   -2.576435    6.534896   -0.065397
  10 H     1.0000    0     1.008   -6.228104    3.887497    0.126579
  11 H     1.0000    0     1.008   -6.493604   -0.429826    0.134578
  12 H     1.0000    0     1.008   -3.193877   -3.505402   -0.046793
  13 H     1.0000    0     1.008    1.106330   -2.877206   -0.278637

--------------------------------
INTERNAL COORDINATES (ANGSTROEM)
--------------------------------
 C      0   0   0     0.000000000000     0.00000000     0.00000000
 C      1   0   0     1.476198520872     0.00000000     0.00000000
 C      2   1   0     1.340410083021   129.50863354     0.00000000
 C      3   2   1     1.476198517618   129.50863384     0.00000000
 C      4   3   2     1.335866574109   128.78936266   359.97509406
 C      5   4   3     1.492510747428   127.96763572     0.00000000
 C      1   2   3     1.335866569860   128.78936279     0.02490756
 H      6   5   4     1.110471222793   116.26563660   180.00684714
 H      7   1   2     1.086368254715   116.69138803   179.99547065
 H      1   2   3     1.086647741673   115.04695354   180.02091088
 H      2   1   3     1.086779380742   114.61703362   179.99631359
 H      3   2   1     1.086779383129   115.87433252   179.99627548
 H      4   3   2     1.086647740537   115.04695379   179.97908537
 H      5   4   3     1.086368254043   116.69138792   180.00452383

---------------------------
INTERNAL COORDINATES (A.U.)
---------------------------
 C      0   0   0     0.000000000000     0.00000000     0.00000000
 C      1   0   0     2.789610923747     0.00000000     0.00000000
 C      2   1   0     2.533007964057   129.50863354     0.00000000
 C      3   2   1     2.789610917599   129.50863384     0.00000000
 C      4   3   2     2.524421976525   128.78936266   359.97509406
 C      5   4   3     2.820436564573   127.96763572     0.00000000
 C      1   2   3     2.524421968496   128.78936279     0.02490756
 H      6   5   4     2.098486490679   116.26563660   180.00684714
 H      7   1   2     2.052938481998   116.69138803   179.99547065
 H      1   2   3     2.053466635807   115.04695354   180.02091088
 H      2   1   3     2.053715397595   114.61703362   179.99631359
 H      3   2   1     2.053715402106   115.87433252   179.99627548
 H      4   3   2     2.053466633658   115.04695379   179.97908537
 H      5   4   3     2.052938480728   116.69138792   180.00452383

---------------------
BASIS SET INFORMATION
---------------------
There are 2 groups of distinct atoms

 Group   1 Type C   : 7s4p1d contracted to 3s2p1d pattern {511/31/1}
 Group   2 Type H   : 4s1p contracted to 2s1p pattern {31/1}

Atom   0C    basis set group =>   1
Atom   1C    basis set group =>   1
Atom   2C    basis set group =>   1
Atom   3C    basis set group =>   1
Atom   4C    basis set group =>   1
Atom   5C    basis set group =>   1
Atom   6C    basis set group =>   1
Atom   7H    basis set group =>   2
Atom   8H    basis set group =>   2
Atom   9H    basis set group =>   2
Atom  10H    basis set group =>   2
Atom  11H    basis set group =>   2
Atom  12H    basis set group =>   2
Atom  13H    basis set group =>   2

-------------------------
BASIS SET IN INPUT FORMAT
-------------------------

 # Basis set for element : H 
 NewGTO H 
 S 3 
   1      13.0107010000      0.0334854848
   2       1.9622572000      0.2347218709
   3       0.4445379600      0.8137702853
 S 1 
   1       0.1219496200      1.0000000000
 P 1 
   1       0.8000000000      1.0000000000
  end;

 # Basis set for element : C 
 NewGTO C 
 S 5 
   1    1238.4016938000      0.0055173650
   2     186.2900499200      0.0410888285
   3      42.2511763460      0.1822538213
   4      11.6765579320      0.4682845944
   5       3.5930506482      0.4457581734
 S 1 
   1       0.4024514736      1.0000000000
 S 1 
   1       0.1309018267      1.0000000000
 P 3 
   1       9.4680970621      0.0568883320
   2       2.0103545142      0.3129405934
   3       0.5477100471      0.7606501651
 P 1 
   1       0.1526861379      1.0000000000
 D 1 
   1       0.8000000000      1.0000000000
  end;

---------------------------------
AUXILIARY/J BASIS SET INFORMATION
---------------------------------
There are 2 groups of distinct atoms

 Group   1 Type C   : 12s5p4d2f1g contracted to 6s4p3d1f1g pattern {711111/2111/211/2/1}
 Group   2 Type H   : 5s2p1d contracted to 3s1p1d pattern {311/2/1}

Atom   0C    basis set group =>   1
Atom   1C    basis set group =>   1
Atom   2C    basis set group =>   1
Atom   3C    basis set group =>   1
Atom   4C    basis set group =>   1
Atom   5C    basis set group =>   1
Atom   6C    basis set group =>   1
Atom   7H    basis set group =>   2
Atom   8H    basis set group =>   2
Atom   9H    basis set group =>   2
Atom  10H    basis set group =>   2
Atom  11H    basis set group =>   2
Atom  12H    basis set group =>   2
Atom  13H    basis set group =>   2

-------------------------------------
AUXILIARY/J BASIS SET IN INPUT FORMAT
-------------------------------------

 # Auxiliary/J basis set for element : H 
 NewAuxJGTO H 
 S 3 
   1      15.6752927000      0.1007184237
   2       3.6063578000      0.3404257499
   3       1.2080016000      0.6491996172
 S 1 
   1       0.4726794000      1.0000000000
 S 1 
   1       0.2018100000      1.0000000000
 P 2 
   1       2.0281365000      0.5596620919
   2       0.5358730000      0.5596620919
 D 1 
   1       2.2165124000      1.0000000000
  end;

 # Auxiliary/J basis set for element : C 
 NewAuxJGTO C 
 S 7 
   1    1861.0916331000      0.0134602335
   2     642.9939764000      0.0299160374
   3     235.1105725000      0.1008649584
   4      90.7028894000      0.2370970548
   5      36.7794552000      0.3924037254
   6      15.6046273000      0.3195862154
   7       6.8907294000      0.0530104441
 S 1 
   1       3.1478850000     -1.0000000000
 S 1 
   1       1.4777287000      1.0000000000
 S 1 
   1       0.7076466000      1.0000000000
 S 1 
   1       0.3430122000      1.0000000000
 S 1 
   1       0.1669453000      1.0000000000
 P 2 
   1      13.5472892000     -0.6769313712
   2       5.4669419000     -0.3779500978
 P 1 
   1       2.1751721000      1.0000000000
 P 1 
   1       0.8582194000      1.0000000000
 P 1 
   1       0.3376720000      1.0000000000
 D 2 
   1       5.9287253000     -0.3533329857
   2       1.9809209000     -0.7456525731
 D 1 
   1       0.8055417000     -1.0000000000
 D 1 
   1       0.3531244000     -1.0000000000
 F 2 
   1       1.6755626000      0.6311076882
   2       0.5997536000      0.4968166032
 G 1 
   1       1.0024600000     -1.0000000000
  end;



           ************************************************************
           *        Program running with 12 parallel MPI-processes    *
           *              working on a common directory               *
           ************************************************************
------------------------------------------------------------------------------
                           ORCA GTO INTEGRAL CALCULATION
                           -- RI-GTO INTEGRALS CHOSEN --
------------------------------------------------------------------------------

                         BASIS SET STATISTICS AND STARTUP INFO

Gaussian basis set:
 # of primitive gaussian shells          ...  119
 # of primitive gaussian functions       ...  217
 # of contracted shells                  ...   63
 # of contracted basis functions         ...  133
 Highest angular momentum                ...    2
 Maximum contraction depth               ...    5
Auxiliary gaussian basis set:
 # of primitive gaussian shells          ...  224
 # of primitive gaussian functions       ...  602
 # of contracted shells                  ...  140
 # of contracted aux-basis functions     ...  420
 Highest angular momentum                ...    4
 Maximum contraction depth               ...    7
Ratio of auxiliary to basis functions    ...  3.16
Integral package used                  ... LIBINT
 One Electron integrals                  ... done
 Ordering auxiliary basis shells         ... done
 Integral threshhold             Thresh  ...  2.500e-11
 Primitive cut-off               TCut    ...  2.500e-12
 Pre-screening matrix                    ... done
 Shell pair data                         ... 
 Ordering of the shell pairs             ... done (   0.000 sec) 1975 of 2016 pairs
 Determination of significant pairs      ... done (   0.000 sec)
 Creation of shell pair data             ... done (   0.000 sec)
 Storage of shell pair data              ... done (   0.011 sec)
 Shell pair data done in (   0.011 sec)
 Computing two index integrals           ... done
 Cholesky decomposition of the V-matrix  ... done


Timings:
 Total evaluation time                   ...   0.250 sec (  0.004 min)
 One electron matrix time                ...   0.029 sec (  0.000 min) = 11.7%
 Schwartz matrix evaluation time         ...   0.149 sec (  0.002 min) = 59.3%
 Two index repulsion integral time       ...   0.009 sec (  0.000 min) =  3.6%
 Cholesky decomposition of V             ...   0.032 sec (  0.001 min) = 12.6%
 Three index repulsion integral time     ...   0.000 sec (  0.000 min) =  0.0%



           ************************************************************
           *        Program running with 12 parallel MPI-processes    *
           *              working on a common directory               *
           ************************************************************
-------------------------------------------------------------------------------
                                 ORCA SCF
-------------------------------------------------------------------------------

------------
SCF SETTINGS
------------
Hamiltonian:
 Density Functional     Method          .... DFT(GTOs)
 Exchange Functional    Exchange        .... PBE
   PBE kappa parameter   XKappa         ....  1.245000
   PBE mue parameter    XMuePBE         ....  0.219520
 Correlation Functional Correlation     .... PBE
   PBE beta parameter  CBetaPBE         ....  0.066725
 LDA part of GGA corr.  LDAOpt          .... PW91-LDA
 Gradients option       PostSCFGGA      .... off
   Density functional embedding theory  .... OFF
   NL short-range parameter             ....  3.700000
 RI-approximation to the Coulomb term is turned on
   Number of auxiliary basis functions  .... 420


General Settings:
 Integral files         IntName         .... C7H7+
 Hartree-Fock type      HFTyp           .... RHF
 Total Charge           Charge          ....    1
 Multiplicity           Mult            ....    1
 Number of Electrons    NEL             ....   48
 Basis Dimension        Dim             ....  133
 Nuclear Repulsion      ENuc            ....    255.4707259000 Eh

Convergence Acceleration:
 DIIS                   CNVDIIS         .... on
   Start iteration      DIISMaxIt       ....    12
   Startup error        DIISStart       ....  0.200000
   # of expansion vecs  DIISMaxEq       ....     5
   Bias factor          DIISBfac        ....   1.050
   Max. coefficient     DIISMaxC        ....  10.000
 Newton-Raphson         CNVNR           .... off
 SOSCF                  CNVSOSCF        .... on
   Start iteration      SOSCFMaxIt      ....   150
   Startup grad/error   SOSCFStart      ....  0.003300
 Level Shifting         CNVShift        .... on
   Level shift para.    LevelShift      ....    0.2500
   Turn off err/grad.   ShiftErr        ....    0.0010
 Zerner damping         CNVZerner       .... off
 Static damping         CNVDamp         .... on
   Fraction old density DampFac         ....    0.7000
   Max. Damping (<1)    DampMax         ....    0.9800
   Min. Damping (>=0)   DampMin         ....    0.0000
   Turn off err/grad.   DampErr         ....    0.1000
 Fernandez-Rico         CNVRico         .... off

SCF Procedure:
 Maximum # iterations   MaxIter         ....   125
 SCF integral mode      SCFMode         .... Direct
   Integral package                     .... LIBINT
 Reset frequency        DirectResetFreq ....    20
 Integral Threshold     Thresh          ....  2.500e-11 Eh
 Primitive CutOff       TCut            ....  2.500e-12 Eh

Convergence Tolerance:
 Convergence Check Mode ConvCheckMode   .... Total+1el-Energy
 Convergence forced     ConvForced      .... 0
 Energy Change          TolE            ....  1.000e-08 Eh
 1-El. energy change                    ....  1.000e-05 Eh
 Orbital Gradient       TolG            ....  1.000e-05
 Orbital Rotation angle TolX            ....  1.000e-05
 DIIS Error             TolErr          ....  5.000e-07


Diagonalization of the overlap matrix:
Smallest eigenvalue                        ... 6.759e-04
Time for diagonalization                   ...    0.021 sec
Threshold for overlap eigenvalues          ... 1.000e-08
Number of eigenvalues below threshold      ... 0
Time for construction of square roots      ...    0.006 sec
Total time needed                          ...    0.027 sec

-------------------
DFT GRID GENERATION
-------------------

General Integration Accuracy     IntAcc      ...  4.670
Radial Grid Type                 RadialGrid  ... Gauss-Chebyshev
Angular Grid (max. acc.)         AngularGrid ... Lebedev-302
Angular grid pruning method      GridPruning ... 3 (G Style)
Weight generation scheme         WeightScheme... Becke
Basis function cutoff            BFCut       ...    1.0000e-11
Integration weight cutoff        WCut        ...    1.0000e-14
Grids for H and He will be reduced by one unit

# of grid points (after initial pruning)     ...  67242 (   0.0 sec)
# of grid points (after weights+screening)   ...  61957 (   0.0 sec)
nearest neighbour list constructed           ...    0.0 sec
Grid point re-assignment to atoms done       ...    0.0 sec
Grid point division into batches done        ...    0.2 sec
Reduced shell lists constructed in    0.3 sec

Total number of grid points                  ...    61957
Total number of batches                      ...      976
Average number of points per batch           ...       63
Average number of grid points per atom       ...     4426
Average number of shells per batch           ...    51.36 (81.53%)
Average number of basis functions per batch  ...   110.08 (82.77%)
Average number of large shells per batch     ...    42.02 (81.82%)
Average number of large basis fcns per batch ...    87.20 (79.22%)
Maximum spatial batch extension              ...   4.21,  3.98, 16.81 au
Average spatial batch extension              ...   0.12,  0.12,  0.18 au

Time for grid setup =    0.507 sec

------------------------------
INITIAL GUESS: MODEL POTENTIAL
------------------------------
Loading Hartree-Fock densities                     ... done
Calculating cut-offs                               ... done
Setting up the integral package                    ... done
Initializing the effective Hamiltonian             ... done
Starting the Coulomb interaction                   ... done (   0.0 sec)
Reading the grid                                   ... done
Mapping shells                                     ... done
Starting the XC term evaluation                    ... done (   0.1 sec)
  promolecular density results
     # of electrons  =     48.996416022
     EX              =    -38.045215343
     EC              =     -1.587578319
     EX+EC           =    -39.632793662
Transforming the Hamiltonian                       ... done (   0.0 sec)
Diagonalizing the Hamiltonian                      ... done (   0.0 sec)
Back transforming the eigenvectors                 ... done (   0.0 sec)
Now organizing SCF variables                       ... done
                      ------------------
                      INITIAL GUESS DONE (   0.8 sec)
                      ------------------
----------------------
INITIAL GUESS ORBITALS
----------------------
                      0         1         2         3         4         5   
                 -10.08142 -10.08135 -10.08083 -10.08036 -10.07971 -10.07969
                   2.00000   2.00000   2.00000   2.00000   2.00000   2.00000
                  --------  --------  --------  --------  --------  --------
  0C   1s         0.690089  0.691146  0.012601  0.005135  0.095753  0.113382
  0C   2s         0.034647  0.033309 -0.001756  0.002266  0.008959  0.008623
  0C   3s        -0.018510 -0.024191  0.012101 -0.020893 -0.014783 -0.017714
  0C   1pz       -0.000027 -0.000030 -0.000049  0.000061 -0.000119 -0.000117
  0C   1px        0.000502  0.000575  0.000941 -0.001144  0.002188  0.002151
  0C   1py        0.000176  0.000579  0.000843 -0.000624 -0.000525 -0.000206
  0C   2pz        0.000236 -0.000006 -0.000677 -0.000228 -0.000327 -0.000359
  0C   2px       -0.004197  0.000246  0.012515  0.004291  0.006219  0.006758
  0C   2py        0.004969  0.004098 -0.001255  0.002290  0.004654  0.003465
  0C   1dz2      -0.001685 -0.001613  0.000550 -0.000852 -0.001032 -0.000975
  0C   1dxz      -0.000161 -0.000158  0.000072 -0.000105 -0.000138 -0.000131
  0C   1dyz       0.000017  0.000022  0.000051 -0.000052  0.000027  0.000028
  0C   1dx2y2     0.000056  0.000112 -0.000404  0.000491  0.000737  0.000718
  0C   1dxy      -0.000220 -0.000313 -0.000956  0.000996 -0.000464 -0.000493
  1C   1s         0.000408 -0.009688  0.698920 -0.697231 -0.016899  0.033350
  1C   2s        -0.001738 -0.003013  0.031348 -0.038443 -0.000118  0.001146
  1C   3s         0.025324  0.007668 -0.008184  0.036944  0.010210 -0.001634
  1C   1pz        0.000039  0.000067  0.000021 -0.000041 -0.000002  0.000013
  1C   1px       -0.000747 -0.001269 -0.000347  0.000836  0.000017 -0.000262
  1C   1py       -0.000628 -0.000873  0.001365  0.002715 -0.000464 -0.000369
  1C   2pz        0.000211 -0.000165  0.000011 -0.000550 -0.000092 -0.000198
  1C   2px       -0.004334  0.003065 -0.000041  0.010334  0.001851  0.004002
  1C   2py       -0.013805 -0.000201  0.005612  0.003608  0.004672  0.011095
  1C   1dz2       0.000784  0.000578 -0.001008  0.002544  0.000168  0.000170
  1C   1dxz       0.000082  0.000067 -0.000120  0.000173  0.000019  0.000022
  1C   1dyz       0.000060  0.000048  0.000017 -0.000008  0.000010  0.000010
  1C   1dx2y2    -0.000187 -0.000260  0.000477  0.001202 -0.000060 -0.000112
  1C   1dxy      -0.001145 -0.000908 -0.000283 -0.000011 -0.000185 -0.000201
  2C   1s        -0.000426 -0.009683  0.698505  0.697646 -0.016537 -0.033537
  2C   2s         0.001732 -0.003016  0.031325  0.038462 -0.000106 -0.001147
  2C   3s        -0.025307  0.007722 -0.008162 -0.036949  0.010193  0.001744
  2C   1pz       -0.000037  0.000063  0.000026  0.000031 -0.000003 -0.000012
  2C   1px        0.000662 -0.001154 -0.000511 -0.000497  0.000072  0.000215
  2C   1py       -0.000712  0.001024 -0.001313  0.002796  0.000463 -0.000393
  2C   2pz       -0.000160 -0.000165  0.000031  0.000535 -0.000076  0.000155
  2C   2px        0.002617  0.003061 -0.000723 -0.009814  0.001293 -0.002598
  2C   2py       -0.014233 -0.000145 -0.005568  0.004846 -0.004987  0.011449
  2C   1dz2      -0.000784  0.000580 -0.001006 -0.002545  0.000170 -0.000168
  2C   1dxz      -0.000070  0.000057 -0.000123 -0.000174  0.000017 -0.000019
  2C   1dyz       0.000064 -0.000052 -0.000007 -0.000007 -0.000011  0.000012
  2C   1dx2y2    -0.000098 -0.000031  0.000532 -0.001168 -0.000014  0.000059
  2C   1dxy      -0.001154  0.000946  0.000158  0.000281  0.000197 -0.000220
  3C   1s        -0.688606  0.692617  0.012607 -0.005133  0.096992 -0.112359
  3C   2s        -0.034575  0.033383 -0.001754 -0.002267  0.009053 -0.008527
  3C   3s         0.018458 -0.024229  0.012088  0.020900 -0.014974  0.017554
  3C   1pz        0.000026 -0.000028 -0.000046 -0.000058 -0.000122  0.000116
  3C   1px       -0.000476  0.000501  0.000830  0.001059  0.002259 -0.002136
  3C   1py        0.000235 -0.000646 -0.000951 -0.000760  0.000252  0.000062
  3C   2pz       -0.000253  0.000010 -0.000679  0.000218 -0.000313  0.000341
  3C   2px        0.004774 -0.000268  0.012577 -0.003971  0.005669 -0.006222
  3C   2py        0.004407 -0.004106 -0.000292  0.002799 -0.005429  0.004210
  3C   1dz2       0.001681 -0.001617  0.000550  0.000853 -0.001043  0.000964
  3C   1dxz       0.000163 -0.000162  0.000061  0.000094 -0.000143  0.000134
  3C   1dyz       0.000007 -0.000012 -0.000056 -0.000060 -0.000014  0.000015
  3C   1dx2y2    -0.000108  0.000185 -0.000159 -0.000234  0.000837 -0.000808
  3C   1dxy      -0.000199  0.000276  0.001025  0.001086  0.000274 -0.000300
  4C   1s        -0.113521  0.097604 -0.015071  0.032819 -0.695350  0.684789
  4C   2s        -0.002629  0.000763 -0.001817  0.002054 -0.034971  0.034767
  4C   3s        -0.015254  0.006180 -0.012564 -0.002777  0.028196 -0.020576
  4C   1pz        0.000099 -0.000110 -0.000004  0.000014 -0.000045  0.000061
  4C   1px       -0.001834  0.002028  0.000076 -0.000265  0.000858 -0.001141
  4C   1py       -0.000466  0.000193 -0.000358 -0.000152  0.000847 -0.000726
  4C   2pz        0.000215 -0.000022 -0.000387 -0.000123 -0.000130 -0.000120
  4C   2px       -0.004051  0.000460  0.007266  0.002310  0.002562  0.002102
  4C   2py       -0.004870  0.001957  0.005159  0.001656  0.007701 -0.004927
  4C   1dz2      -0.000424  0.000549 -0.000026 -0.000259  0.001922 -0.001748
  4C   1dxz      -0.000082  0.000088 -0.000002 -0.000026  0.000213 -0.000188
  4C   1dyz      -0.000017  0.000013 -0.000007 -0.000004 -0.000008  0.000013
  4C   1dx2y2     0.000780 -0.000669 -0.000001  0.000027 -0.000591  0.000433
  4C   1dxy       0.000307 -0.000253  0.000131  0.000079  0.000086 -0.000186
  5C   1s         0.000000  0.000001 -0.001616 -0.000000  0.000648  0.000004
  5C   2s        -0.000001 -0.001234 -0.001319 -0.000000  0.003949  0.000021
  5C   3s        -0.000005 -0.004153 -0.005032 -0.000001 -0.027347 -0.000148
  5C   1pz        0.000000 -0.000024 -0.000020 -0.000000  0.000053 -0.000004
  5C   1px       -0.000002  0.000443  0.000372  0.000013 -0.000971  0.000138
  5C   1py       -0.000036 -0.000027 -0.000023  0.000202  0.000047  0.002337
  5C   2pz        0.000023  0.000157  0.000064 -0.000004 -0.000227 -0.000000
  5C   2px       -0.000755 -0.002907 -0.001201  0.000139  0.004141 -0.000014
  5C   2py       -0.012219  0.000192  0.000073  0.002267 -0.000252 -0.000602
  5C   1dz2       0.000000 -0.000002  0.000073 -0.000000 -0.001355 -0.000008
  5C   1dxz      -0.000001 -0.000011  0.000008  0.000001 -0.000051  0.000008
  5C   1dyz      -0.000009  0.000001 -0.000000  0.000008 -0.000004  0.000087
  5C   1dx2y2     0.000019  0.000207 -0.000024 -0.000018 -0.001404 -0.000202
  5C   1dxy       0.000152 -0.000026  0.000003 -0.000149  0.000182 -0.001575
  6C   1s         0.113711  0.097342 -0.015058 -0.032828 -0.687909 -0.692269
  6C   2s         0.002630  0.000756 -0.001816 -0.002055 -0.034593 -0.035143
  6C   3s         0.015268  0.006148 -0.012565  0.002770  0.027972  0.020879
  6C   1pz       -0.000097 -0.000108 -0.000006 -0.000014 -0.000041 -0.000058
  6C   1px        0.001768  0.001985  0.000119  0.000244  0.000736  0.001051
  6C   1py       -0.000688 -0.000439  0.000346 -0.000183 -0.000937 -0.000871
  6C   2pz       -0.000196 -0.000014 -0.000367  0.000117 -0.000102  0.000137
  6C   2px        0.003424  0.000209  0.006580 -0.002086  0.001628 -0.002672
  6C   2py       -0.005335 -0.001987 -0.006013  0.001923 -0.007906 -0.004717
  6C   1dz2       0.000425  0.000548 -0.000026  0.000259  0.001903  0.001768
  6C   1dxz       0.000078  0.000084 -0.000001  0.000025  0.000211  0.000191
  6C   1dyz      -0.000026 -0.000023  0.000007 -0.000005 -0.000008 -0.000001
  6C   1dx2y2    -0.000683 -0.000586 -0.000033 -0.000008 -0.000589 -0.000472
  6C   1dxy       0.000489  0.000407 -0.000127  0.000083  0.000062 -0.000073
  7H   1s         0.000001  0.000922  0.000497  0.000000  0.000460  0.000002
  7H   2s         0.000002  0.001517  0.000822  0.000000  0.001658  0.000009
  7H   1pz       -0.000001  0.000003  0.000002  0.000000 -0.000011  0.000001
  7H   1px        0.000041 -0.000058 -0.000035 -0.000006  0.000198 -0.000028
  7H   1py        0.000666  0.000003  0.000002 -0.000103 -0.000010 -0.000473
  8H   1s        -0.000708 -0.000162  0.000709 -0.000015  0.003598  0.004290
  8H   2s        -0.000566  0.000066  0.001224 -0.000605 -0.004404 -0.003310
  8H   1pz        0.000026  0.000020  0.000015 -0.000003  0.000083  0.000074
  8H   1px       -0.000460 -0.000372 -0.000264  0.000052 -0.001571 -0.001419
  8H   1py        0.000439  0.000235  0.000135 -0.000176 -0.001306 -0.001549
  9H   1s        -0.004177 -0.003665  0.000288  0.000620 -0.000893 -0.000669
  9H   2s         0.003102  0.004068  0.000017  0.001832  0.000977  0.001646
  9H   1pz        0.000014  0.000022  0.000038 -0.000000  0.000039  0.000042
  9H   1px       -0.000195 -0.000345 -0.000713  0.000008 -0.000700 -0.000757
  9H   1py        0.001945  0.001924 -0.000239  0.000170  0.000501  0.000522
 10H   1s        -0.000480  0.000418 -0.003837  0.004121 -0.000546 -0.000645
 10H   2s        -0.001681  0.000088  0.002889 -0.004530 -0.001306 -0.000502
 10H   1pz       -0.000024 -0.000014  0.000095 -0.000096  0.000003  0.000012
 10H   1px        0.000472  0.000270 -0.001751  0.001728 -0.000061 -0.000225
 10H   1py        0.000596  0.000117  0.000332 -0.001715 -0.000212 -0.000244
 11H   1s         0.000481  0.000417 -0.003835 -0.004123 -0.000553  0.000639
 11H   2s         0.001681  0.000084  0.002886  0.004532 -0.001311  0.000488
 11H   1pz        0.000022 -0.000014  0.000096  0.000102  0.000002 -0.000011
 11H   1px       -0.000395  0.000255 -0.001777 -0.001926 -0.000036  0.000193
 11H   1py        0.000649 -0.000150 -0.000114 -0.001490  0.000221 -0.000268
 12H   1s         0.004169 -0.003674  0.000289 -0.000620 -0.000900  0.000659
 12H   2s        -0.003093  0.004075  0.000018 -0.001832  0.000995 -0.001635
 12H   1pz       -0.000021  0.000029  0.000037 -0.000000  0.000041 -0.000043
 12H   1px        0.000431 -0.000579 -0.000679  0.000012 -0.000765  0.000807
 12H   1py        0.001903 -0.001871  0.000325  0.000170 -0.000416  0.000421
 13H   1s         0.000708 -0.000164  0.000709  0.000015  0.003644 -0.004251
 13H   2s         0.000566  0.000065  0.001224  0.000606 -0.004439  0.003262
 13H   1pz       -0.000027  0.000021  0.000015  0.000004  0.000078 -0.000067
 13H   1px        0.000509 -0.000399 -0.000279 -0.000073 -0.001412  0.001204
 13H   1py        0.000378 -0.000188 -0.000101 -0.000169  0.001507 -0.001695
                      6         7         8         9        10        11   
                 -10.05792  -0.88763  -0.83779  -0.81943  -0.72294  -0.69714
                   2.00000   2.00000   2.00000   2.00000   2.00000   2.00000
                  --------  --------  --------  --------  --------  --------
  0C   1s        -0.000017  0.121271  0.154743  0.025022  0.116710  0.067235
  0C   2s        -0.000556 -0.244225 -0.317974 -0.051837 -0.249599 -0.146561
  0C   3s        -0.010147 -0.054265 -0.026059 -0.005001 -0.013872 -0.013499
  0C   1pz       -0.000011  0.001662  0.004068  0.005789  0.002591 -0.009711
  0C   1px        0.000225 -0.029243 -0.074382 -0.107600 -0.049069  0.180311
  0C   1py        0.000303  0.046163  0.024624 -0.015260 -0.036955  0.014353
  0C   2pz        0.000493  0.000242  0.000568  0.002244 -0.000377 -0.003170
  0C   2px       -0.009213 -0.003884 -0.010603 -0.042031  0.006850  0.059117
  0C   2py       -0.002123  0.018522 -0.003544 -0.015049 -0.002516  0.014333
  0C   1dz2      -0.000173  0.008833  0.009301  0.001274  0.004268  0.002153
  0C   1dxz      -0.000022  0.001128  0.001364  0.000398  0.000639  0.000074
  0C   1dyz      -0.000006  0.000046 -0.000072 -0.000381  0.000050  0.000318
  0C   1dx2y2     0.000106 -0.005547 -0.009016 -0.004909 -0.004430  0.002130
  0C   1dxy       0.000123 -0.001159  0.001094  0.007133 -0.001031 -0.006093
  1C   1s         0.001342  0.129653  0.047720 -0.152551 -0.048460  0.117620
  1C   2s        -0.000920 -0.261499 -0.097429  0.315192  0.103402 -0.255839
  1C   3s        -0.004347 -0.039302 -0.032478  0.036772  0.011957 -0.003940
  1C   1pz        0.000015  0.001788  0.002073  0.001377  0.003485  0.001483
  1C   1px       -0.000282 -0.031814 -0.039806 -0.028301 -0.067588 -0.031215
  1C   1py        0.000074  0.052456 -0.047798 -0.103404 -0.102949 -0.129754
  1C   2pz        0.000033  0.000485  0.001536  0.000630  0.000796  0.001144
  1C   2px       -0.000689 -0.008790 -0.029037 -0.012340 -0.015462 -0.022744
  1C   2py       -0.002644  0.007784 -0.017707 -0.023554 -0.024512 -0.054105
  1C   1dz2       0.000052  0.009402  0.003139 -0.008629 -0.001831  0.003716
  1C   1dxz       0.000008  0.000605  0.000505 -0.000265  0.000084  0.000525
  1C   1dyz       0.000001  0.000200  0.000249 -0.000160  0.000025  0.000223
  1C   1dx2y2    -0.000066  0.004967 -0.004034 -0.009934 -0.004746 -0.003417
  1C   1dxy      -0.000018 -0.004301 -0.004677  0.003653 -0.000249 -0.004246
  2C   1s         0.001342  0.129652 -0.047714 -0.152552 -0.048457 -0.117622
  2C   2s        -0.000920 -0.261497  0.097417  0.315195  0.103397  0.255846
  2C   3s        -0.004347 -0.039303  0.032490  0.036767  0.011931  0.003937
  2C   1pz        0.000016  0.001974 -0.001887  0.000989  0.003090 -0.000997
  2C   1px       -0.000289 -0.038001  0.033650 -0.015415 -0.054463  0.015080
  2C   1py       -0.000039 -0.048156 -0.052326  0.106096  0.110468 -0.132599
  2C   2pz        0.000023  0.000512 -0.001464  0.000540  0.000702 -0.000939
  2C   2px       -0.000360 -0.009696  0.026655 -0.009355 -0.012351  0.015951
  2C   2py        0.002709 -0.006627 -0.021143  0.024893  0.026219 -0.056485
  2C   1dz2       0.000052  0.009404 -0.003141 -0.008630 -0.001831 -0.003718
  2C   1dxz       0.000008  0.000567 -0.000452 -0.000240  0.000076 -0.000477
  2C   1dyz      -0.000002 -0.000192  0.000301  0.000098 -0.000064  0.000271
  2C   1dx2y2    -0.000060  0.005865  0.002774 -0.010524 -0.004543  0.002280
  2C   1dxy       0.000033  0.002966 -0.005520 -0.001128  0.001396 -0.004951
  3C   1s        -0.000017  0.121270 -0.154743  0.025016  0.116712 -0.067232
  3C   2s        -0.000556 -0.244222  0.317974 -0.051821 -0.249603  0.146558
  3C   3s        -0.010146 -0.054248  0.026056 -0.005010 -0.013848  0.013468
  3C   1pz       -0.000010  0.001826 -0.004142  0.005708  0.002443  0.009618
  3C   1px        0.000186 -0.034678  0.076841 -0.104913 -0.044168 -0.177190
  3C   1py       -0.000328 -0.042226  0.015310  0.028350  0.042697  0.036376
  3C   2pz        0.000483  0.000312 -0.000555  0.002179 -0.000383  0.003103
  3C   2px       -0.008883 -0.006142  0.010105 -0.039880  0.007112 -0.056926
  3C   2py        0.003238 -0.017893 -0.004831  0.020092  0.001672  0.021474
  3C   1dz2      -0.000173  0.008833 -0.009301  0.001271  0.004268 -0.002155
  3C   1dxz      -0.000020  0.001109 -0.001364  0.000465  0.000623 -0.000015
  3C   1dyz       0.000008 -0.000146  0.000070  0.000315 -0.000116  0.000299
  3C   1dx2y2     0.000073 -0.005098  0.009012 -0.006497 -0.004045 -0.003549
  3C   1dxy      -0.000145  0.002477 -0.001137 -0.005724  0.002080 -0.005392
  4C   1s         0.001388  0.106502 -0.137359  0.114210 -0.008138  0.112977
  4C   2s        -0.002895 -0.215210  0.281566 -0.236024  0.019234 -0.244350
  4C   3s         0.022724 -0.015860  0.051687 -0.034335  0.001660 -0.019372
  4C   1pz        0.000046 -0.003188  0.005054 -0.000538 -0.008457  0.001870
  4C   1px       -0.000888  0.058576 -0.094013  0.009437  0.158995 -0.034078
  4C   1py       -0.001522 -0.016002 -0.022334 -0.022077  0.117629  0.018926
  4C   2pz        0.000398 -0.000147  0.001397  0.000709 -0.003086  0.000866
  4C   2px       -0.007348  0.002782 -0.025939 -0.013541  0.058145 -0.016274
  4C   2py       -0.000574  0.001726 -0.006003 -0.020278  0.048836 -0.010935
  4C   1dz2       0.000954  0.007530 -0.008484  0.006533 -0.000233  0.003768
  4C   1dxz       0.000049  0.000957 -0.001250  0.000604  0.000457  0.000296
  4C   1dyz       0.000071  0.000176 -0.000237  0.000281 -0.000049  0.000160
  4C   1dx2y2     0.000716 -0.004683  0.008448  0.000059 -0.008802  0.001015
  4C   1dxy      -0.001361 -0.003438  0.004515 -0.005455  0.001121 -0.003116
  5C   1s         0.988223  0.073282 -0.000003  0.116082 -0.187995 -0.000002
  5C   2s         0.047665 -0.147141  0.000003 -0.240693  0.404706  0.000005
  5C   3s        -0.032429 -0.048695 -0.000000 -0.036998  0.052550 -0.000003
  5C   1pz       -0.000038 -0.001986  0.000135 -0.001783 -0.000591 -0.000236
  5C   1px        0.000726  0.036284 -0.004486  0.032344  0.011612  0.007828
  5C   1py       -0.000045 -0.002236 -0.072953 -0.001994 -0.000716  0.127298
  5C   2pz       -0.000379 -0.001298  0.000059 -0.000430 -0.000188 -0.000079
  5C   2px        0.006934  0.023784 -0.001949  0.007838  0.003471  0.002625
  5C   2py       -0.000427 -0.001465 -0.031649 -0.000481 -0.000213  0.042671
  5C   1dz2      -0.002023  0.006143  0.000001  0.007620 -0.008276 -0.000001
  5C   1dxz      -0.000216  0.000430 -0.000037  0.000448 -0.000459  0.000024
  5C   1dyz       0.000008 -0.000002 -0.000387  0.000006 -0.000009  0.000253
  5C   1dx2y2     0.000464  0.002753  0.000873  0.004991 -0.005892 -0.000563
  5C   1dxy      -0.000058 -0.000339  0.007067 -0.000615  0.000727 -0.004556
  6C   1s         0.001388  0.106502  0.137355  0.114217 -0.008136 -0.112978
  6C   2s        -0.002895 -0.215214 -0.281560 -0.236041  0.019233  0.244353
  6C   3s         0.022725 -0.015863 -0.051692 -0.034346  0.001665  0.019391
  6C   1pz        0.000040 -0.003234 -0.004950 -0.000618 -0.007986 -0.001933
  6C   1px       -0.000695  0.060095  0.090567  0.012076  0.143382  0.036141
  6C   1py        0.001619  0.008692 -0.033705  0.020751 -0.136255  0.014599
  6C   2pz        0.000394 -0.000139 -0.001370  0.000630 -0.002890 -0.000820
  6C   2px       -0.007222  0.002550  0.025012 -0.010948  0.051705  0.014797
  6C   2py        0.001471 -0.002065 -0.009150  0.021784 -0.055604 -0.012848
  6C   1dz2       0.000955  0.007532  0.008486  0.006535 -0.000233 -0.003769
  6C   1dxz       0.000036  0.000916  0.001193  0.000548  0.000457 -0.000265
  6C   1dyz      -0.000067 -0.000258 -0.000362 -0.000307 -0.000041  0.000165
  6C   1dx2y2     0.001026 -0.003704 -0.007095  0.001385 -0.008810 -0.001743
  6C   1dxy       0.001146  0.004478  0.006438  0.005280  0.001055 -0.002776
  7H   1s        -0.005422 -0.027656  0.000002 -0.056090  0.136265  0.000000
  7H   2s         0.005029 -0.008019  0.000001 -0.006461  0.016952  0.000003
  7H   1pz       -0.000162 -0.000247  0.000002 -0.000428  0.000832 -0.000004
  7H   1px        0.002999  0.004557 -0.000067  0.007882 -0.015309  0.000137
  7H   1py       -0.000185 -0.000281 -0.001086 -0.000486  0.000943  0.002230
  8H   1s        -0.000196 -0.041718 -0.067734 -0.060637  0.004837  0.103252
  8H   2s        -0.001121 -0.005191 -0.006421 -0.007527  0.003441  0.016914
  8H   1pz       -0.000016 -0.000318 -0.000455 -0.000326 -0.000163  0.000374
  8H   1px        0.000286  0.006035  0.008632  0.006226  0.002947 -0.007194
  8H   1py       -0.000512  0.005002  0.006569  0.006283 -0.002401 -0.008245
  9H   1s         0.000590 -0.049419 -0.076345 -0.012082 -0.096285 -0.062137
  9H   2s         0.001234 -0.008293 -0.006452  0.000939 -0.013043 -0.010817
  9H   1pz       -0.000018  0.000139  0.000238  0.000141  0.000222 -0.000130
  9H   1px        0.000332 -0.002292 -0.004035 -0.002540 -0.003770  0.002613
  9H   1py        0.000043  0.008430  0.011495  0.001890  0.010618  0.006597
 10H   1s         0.000318 -0.052763 -0.025070  0.082074  0.038055 -0.107468
 10H   2s         0.000603 -0.007932 -0.005275  0.006705  0.005167 -0.016984
 10H   1pz       -0.000003  0.000425  0.000188 -0.000526 -0.000159  0.000590
 10H   1px        0.000059 -0.007751 -0.003482  0.009548  0.002817 -0.010874
 10H   1py        0.000067  0.005435  0.000706 -0.008199 -0.004885  0.003270
 11H   1s         0.000318 -0.052763  0.025067  0.082074  0.038053  0.107470
 11H   2s         0.000603 -0.007938  0.005277  0.006710  0.005164  0.016993
 11H   1pz       -0.000003  0.000444 -0.000190 -0.000554 -0.000176 -0.000600
 11H   1px        0.000050 -0.008359  0.003542  0.010481  0.003394  0.011193
 11H   1py       -0.000074 -0.004443  0.000273  0.006965  0.004502  0.001912
 12H   1s         0.000590 -0.049419  0.076344 -0.012079 -0.096286  0.062134
 12H   2s         0.001234 -0.008295  0.006452  0.000938 -0.013040  0.010820
 12H   1pz       -0.000018  0.000169 -0.000280  0.000147  0.000261  0.000105
 12H   1px        0.000324 -0.003307  0.005413 -0.002752 -0.005043 -0.001785
 12H   1py       -0.000083 -0.008086  0.010914 -0.001564 -0.010075  0.006868
 13H   1s        -0.000196 -0.041719  0.067737 -0.060634  0.004837 -0.103251
 13H   2s        -0.001121 -0.005193  0.006421 -0.007524  0.003434 -0.016910
 13H   1pz       -0.000018 -0.000298  0.000429 -0.000301 -0.000172 -0.000342
 13H   1px        0.000347  0.005376 -0.007762  0.005409  0.003218  0.006130
 13H   1py        0.000473 -0.005705  0.007580 -0.006999  0.002020 -0.009065
                     12        13        14        15        16        17   
                  -0.60195  -0.58824  -0.58291  -0.52663  -0.51074  -0.47435
                   2.00000   2.00000   2.00000   2.00000   2.00000   2.00000
                  --------  --------  --------  --------  --------  --------
  0C   1s         0.060067  0.067433 -0.015219  0.007868 -0.004498  0.037142
  0C   2s        -0.138172 -0.150683  0.033182 -0.029354  0.011820 -0.080940
  0C   3s        -0.036793 -0.060834  0.016102 -0.041734  0.033589 -0.189893
  0C   1pz       -0.011966  0.007425  0.004528  0.004964  0.003956  0.008317
  0C   1px        0.222550 -0.140449 -0.077610 -0.082425 -0.072204 -0.158526
  0C   1py        0.030608 -0.086167  0.199535  0.286584  0.011908 -0.139083
  0C   2pz       -0.003284  0.001639  0.001868 -0.000688 -0.005160  0.003855
  0C   2px        0.061655 -0.030331 -0.032546  0.015311  0.096213 -0.070167
  0C   2py        0.025792  0.005072  0.065199  0.077177  0.010606  0.039797
  0C   1dz2       0.000834  0.001088 -0.000183  0.000148 -0.000231  0.000107
  0C   1dxz      -0.000273 -0.000010 -0.000209  0.000179  0.000350 -0.000392
  0C   1dyz       0.000040 -0.000112 -0.000188 -0.000326 -0.000615 -0.000392
  0C   1dx2y2     0.006426  0.002152  0.003674 -0.002855 -0.006533  0.007684
  0C   1dxy      -0.000998  0.001963  0.003392  0.006093  0.011559  0.006999
  1C   1s        -0.012363 -0.083256 -0.005682  0.014309 -0.016793 -0.015806
  1C   2s         0.024841  0.188670  0.011447 -0.037553  0.050428  0.036848
  1C   3s         0.006224  0.072491  0.023624 -0.101574  0.080447  0.074678
  1C   1pz        0.008907  0.001982  0.009057  0.004774 -0.012603 -0.004552
  1C   1px       -0.171671 -0.034417 -0.163980 -0.088127  0.229711  0.090111
  1C   1py       -0.219171  0.088659  0.144683  0.007452 -0.182529  0.203224
  1C   2pz        0.002193 -0.001270  0.003097  0.000220 -0.005011 -0.003120
  1C   2px       -0.042242  0.024136 -0.056286 -0.000713  0.093446  0.059365
  1C   2py       -0.052435  0.020413  0.040151  0.112099  0.004212  0.053116
  1C   1dz2      -0.000396 -0.001147 -0.000086  0.000392 -0.000123 -0.000076
  1C   1dxz       0.000174 -0.000332  0.000018  0.000514  0.000524 -0.000341
  1C   1dyz      -0.000036  0.000188 -0.000317  0.000163  0.000213  0.000136
  1C   1dx2y2    -0.003918  0.004072 -0.000303 -0.008880 -0.009982  0.006115
  1C   1dxy       0.000773 -0.003543  0.005909 -0.002768 -0.003689 -0.002703
  2C   1s        -0.012359  0.083257 -0.005691 -0.014308 -0.016794 -0.015808
  2C   2s         0.024830 -0.188671  0.011470  0.037552  0.050429  0.036852
  2C   3s         0.006228 -0.072483  0.023573  0.101563  0.080494  0.074690
  2C   1pz        0.008059 -0.002301  0.009555 -0.004779 -0.013225 -0.003781
  2C   1px       -0.143517  0.045003 -0.180475  0.088367  0.250342  0.064519
  2C   1py        0.238588  0.083744 -0.123475 -0.003432  0.152960 -0.212750
  2C   2pz        0.001992  0.001190  0.003230 -0.000632 -0.004974 -0.002909
  2C   2px       -0.035485 -0.021463 -0.060761  0.014428  0.092219  0.052390
  2C   2py        0.057199  0.023215 -0.032990  0.111169 -0.015634 -0.059959
  2C   1dz2      -0.000397  0.001145 -0.000087 -0.000394 -0.000122 -0.000075
  2C   1dxz       0.000177  0.000363  0.000078 -0.000474  0.000474 -0.000361
  2C   1dyz      -0.000003  0.000136  0.000307  0.000253 -0.000310 -0.000070
  2C   1dx2y2    -0.003989 -0.004811 -0.001732  0.007940 -0.008784  0.006589
  2C   1dxy       0.000204 -0.002445 -0.005657 -0.004846  0.006007  0.001134
  3C   1s         0.060065 -0.067436 -0.015211 -0.007869 -0.004499  0.037143
  3C   2s        -0.138168  0.150687  0.033165  0.029358  0.011824 -0.080940
  3C   3s        -0.036787  0.060843  0.016095  0.041768  0.033624 -0.189899
  3C   1pz       -0.011803 -0.007074  0.005247 -0.006002  0.003982  0.007767
  3C   1px        0.217123  0.128812 -0.101489  0.116914 -0.073113 -0.140282
  3C   1py       -0.057693 -0.102773 -0.188495  0.274301 -0.002952  0.157482
  3C   2pz       -0.003178 -0.001651  0.002099  0.000403 -0.005099  0.003987
  3C   2px        0.058054  0.030719 -0.040271 -0.005740  0.094211 -0.074546
  3C   2py       -0.033180  0.001301 -0.060719  0.078488 -0.022341 -0.030872
  3C   1dz2       0.000834 -0.001088 -0.000184 -0.000146 -0.000235  0.000105
  3C   1dxz      -0.000275 -0.000012 -0.000170 -0.000238  0.000460 -0.000310
  3C   1dyz       0.000023 -0.000126  0.000223 -0.000288  0.000534  0.000460
  3C   1dx2y2     0.006476 -0.001610  0.002737  0.004253 -0.009149  0.005750
  3C   1dxy      -0.000595  0.002428 -0.004184  0.005214 -0.009620 -0.008659
  4C   1s        -0.077935  0.060678  0.002849 -0.015379  0.014091 -0.055244
  4C   2s         0.173145 -0.139044 -0.007511  0.043326 -0.042271  0.120998
  4C   3s         0.042807 -0.044724  0.040224  0.074223 -0.084035  0.271271
  4C   1pz        0.001961  0.012658 -0.006800  0.009440 -0.006099 -0.010408
  4C   1px       -0.039428 -0.235653  0.122772 -0.170575  0.109001  0.191258
  4C   1py       -0.145626 -0.090132 -0.124825  0.184716 -0.170987 -0.071056
  4C   2pz        0.000585  0.002400 -0.001413  0.000144 -0.005082  0.001074
  4C   2px       -0.011249 -0.045215  0.025105 -0.000748  0.093462 -0.017874
  4C   2py       -0.019766 -0.037508 -0.043306  0.096134 -0.016476  0.080911
  4C   1dz2      -0.001393  0.000828 -0.000175 -0.000366  0.000040 -0.000407
  4C   1dxz      -0.000131 -0.000216  0.000092 -0.000506 -0.000183  0.000454
  4C   1dyz       0.000050 -0.000194 -0.000334  0.000220  0.000061  0.000870
  4C   1dx2y2    -0.000016  0.005502 -0.001848  0.008610  0.003398 -0.009399
  4C   1dxy      -0.000873  0.003469  0.006216 -0.004259 -0.001218 -0.015820
  5C   1s         0.087201 -0.000004 -0.027400  0.000001  0.011682  0.067612
  5C   2s        -0.197059  0.000010  0.062297 -0.000004 -0.035617 -0.146842
  5C   3s        -0.065179  0.000012  0.032674  0.000009 -0.048078 -0.277744
  5C   1pz        0.001575 -0.000498 -0.008130  0.000092 -0.013136  0.010129
  5C   1px       -0.029021  0.016516  0.149868 -0.003017  0.241855 -0.185344
  5C   1py        0.001790  0.268448 -0.009248 -0.049043 -0.014898  0.011419
  5C   2pz       -0.000751 -0.000167 -0.003407 -0.000161 -0.004890 -0.003742
  5C   2px        0.013890  0.005600  0.062795  0.005366  0.089950  0.069148
  5C   2py       -0.000844  0.091142 -0.003869  0.087476 -0.005525 -0.004260
  5C   1dz2       0.002040 -0.000001 -0.000542  0.000002  0.000774  0.000873
  5C   1dxz       0.000414  0.000018  0.000188 -0.000056  0.000131  0.001003
  5C   1dyz      -0.000027  0.000194 -0.000021 -0.000587 -0.000007 -0.000090
  5C   1dx2y2    -0.004070 -0.000421 -0.004331  0.001340 -0.000979 -0.016894
  5C   1dxy       0.000503 -0.003401  0.000535  0.010848  0.000121  0.002087
  6C   1s        -0.077936 -0.060676  0.002855  0.015379  0.014092 -0.055243
  6C   2s         0.173145  0.139041 -0.007525 -0.043323 -0.042274  0.120993
  6C   3s         0.042816  0.044703  0.040223 -0.074260 -0.084033  0.271243
  6C   1pz        0.001414 -0.012273 -0.007231 -0.010082 -0.006706 -0.010628
  6C   1px       -0.021283  0.222849  0.137111  0.191922  0.129136  0.198522
  6C   1py        0.149363 -0.118370  0.108828  0.162389  0.156323  0.047039
  6C   2pz        0.000511 -0.002250 -0.001561 -0.000495 -0.005113  0.001367
  6C   2px       -0.008758  0.040272  0.030193  0.012532  0.094740 -0.027640
  6C   2py        0.021013 -0.042763  0.039897  0.095321  0.004893 -0.078116
  6C   1dz2      -0.001393 -0.000826 -0.000177  0.000365  0.000041 -0.000401
  6C   1dxz      -0.000140  0.000174  0.000153  0.000539 -0.000192  0.000280
  6C   1dyz      -0.000042 -0.000242  0.000308  0.000124 -0.000025 -0.000945
  6C   1dx2y2     0.000197 -0.004492 -0.003305 -0.009388  0.003592 -0.005266
  6C   1dxy       0.000850  0.004702 -0.005581 -0.002035  0.000353  0.017632
  7H   1s        -0.095913  0.000007  0.111957 -0.000001  0.160515 -0.235333
  7H   2s        -0.023508  0.000009  0.003281  0.000007  0.027242 -0.081303
  7H   1pz       -0.000436 -0.000010  0.000434  0.000004  0.000489 -0.000692
  7H   1px        0.008040  0.000337 -0.007990 -0.000146 -0.009002  0.012807
  7H   1py       -0.000496  0.005493  0.000492 -0.002368  0.000554 -0.000789
  8H   1s         0.127516  0.098273  0.101337  0.159333  0.133940  0.211277
  8H   2s         0.023546  0.023123  0.004258  0.031023  0.030360  0.076424
  8H   1pz        0.000488 -0.000031  0.000210  0.000265  0.000286  0.000234
  8H   1px       -0.009216  0.000273 -0.004054 -0.005137 -0.005435 -0.004617
  8H   1py       -0.005948 -0.009137 -0.005032 -0.007142 -0.004765 -0.009640
  9H   1s        -0.065044 -0.097968  0.141775  0.202403  0.024404 -0.132078
  9H   2s        -0.018176 -0.023172  0.010552  0.042852  0.008345 -0.045681
  9H   1pz       -0.000232  0.000304 -0.000088 -0.000101  0.000097  0.000273
  9H   1px        0.004486 -0.005390  0.001307  0.001513 -0.001836 -0.004856
  9H   1py        0.005729  0.007283 -0.009499 -0.011048 -0.001494  0.006354
 10H   1s         0.033285  0.124507  0.135167  0.040628 -0.196309  0.041053
 10H   2s         0.003031  0.029002  0.008121  0.003670 -0.046931  0.016806
 10H   1pz        0.000012 -0.000484 -0.000439 -0.000074  0.000511 -0.000191
 10H   1px       -0.000439  0.008899  0.008071  0.001308 -0.009371  0.003650
 10H   1py       -0.007702 -0.003430 -0.003664 -0.002576  0.004112  0.003480
 11H   1s         0.033278 -0.124494  0.135182 -0.040620 -0.196310  0.041063
 11H   2s         0.003024 -0.029006  0.008139 -0.003677 -0.046942  0.016810
 11H   1pz       -0.000017  0.000495 -0.000451  0.000083  0.000524 -0.000178
 11H   1px        0.000506 -0.009251  0.008460 -0.001614 -0.009804  0.003197
 11H   1py        0.007698 -0.002313  0.002648 -0.002397 -0.002932 -0.003902
 12H   1s        -0.065042  0.097985  0.141767 -0.202400  0.024400 -0.132076
 12H   2s        -0.018184  0.023168  0.010557 -0.042857  0.008337 -0.045675
 12H   1pz       -0.000210 -0.000329 -0.000122  0.000141  0.000091  0.000296
 12H   1px        0.003750  0.006242  0.002461 -0.002856 -0.001640 -0.005596
 12H   1py       -0.006236  0.006568  0.009267 -0.010779  0.001708 -0.005710
 13H   1s         0.127514 -0.098265  0.101348 -0.159330  0.133932  0.211280
 13H   2s         0.023545 -0.023115  0.004243 -0.031013  0.030340  0.076419
 13H   1pz        0.000464  0.000065  0.000191 -0.000237  0.000267  0.000197
 13H   1px       -0.008417 -0.001390 -0.003406  0.004222 -0.004810 -0.003401
 13H   1py        0.007033 -0.009033  0.005492 -0.007718  0.005395  0.010134
                     18        19        20        21        22        23   
                  -0.46546  -0.43485  -0.42942  -0.41192  -0.37187  -0.35498
                   2.00000   2.00000   2.00000   2.00000   2.00000   2.00000
                  --------  --------  --------  --------  --------  --------
  0C   1s        -0.048257  0.008958  0.000031 -0.009166 -0.000001 -0.000008
  0C   2s         0.108679 -0.032938 -0.000109  0.029814  0.000003  0.000022
  0C   3s         0.249669 -0.037816 -0.000162  0.025347 -0.000007  0.000045
  0C   1pz        0.010316  0.006510 -0.243791  0.006809 -0.334219  0.010343
  0C   1px       -0.188613 -0.099622 -0.013486 -0.130595 -0.018081  0.000570
  0C   1py        0.062095  0.228240  0.001109 -0.173885  0.000574 -0.000011
  0C   2pz        0.001648  0.001369 -0.106728  0.000649 -0.165498  0.003907
  0C   2px       -0.033203 -0.017863 -0.005825 -0.013031 -0.008958  0.000227
  0C   2py       -0.088791  0.047403  0.000346 -0.045261  0.000288 -0.000010
  0C   1dz2      -0.000179 -0.000218  0.000383 -0.000188  0.001046 -0.001723
  0C   1dxz       0.000836  0.000791 -0.003799 -0.000185 -0.010939  0.018477
  0C   1dyz       0.000135  0.000088  0.008647 -0.000789  0.005623  0.003473
  0C   1dx2y2    -0.015840 -0.014833 -0.000239  0.003572 -0.000585  0.001002
  0C   1dxy      -0.001983 -0.001645  0.000471  0.014476  0.000327  0.000156
  1C   1s         0.054344  0.001396 -0.000002 -0.017315  0.000005 -0.000003
  1C   2s        -0.117086  0.001127  0.000020  0.051414 -0.000011  0.000010
  1C   3s        -0.291813  0.006149  0.000060  0.074053 -0.000040 -0.000011
  1C   1pz       -0.011172 -0.000613 -0.258580 -0.012649 -0.114685 -0.323545
  1C   1px        0.206620  0.020444 -0.013833  0.235591 -0.006128 -0.017416
  1C   1py       -0.046209 -0.189673 -0.000195  0.011870  0.000176  0.000474
  1C   2pz        0.003038  0.000185 -0.113067 -0.003521 -0.058167 -0.166646
  1C   2px       -0.054609  0.001998 -0.006055  0.065065 -0.003117 -0.008967
  1C   2py        0.054752 -0.025511  0.000084 -0.018151  0.000100  0.000246
  1C   1dz2       0.000129  0.000183  0.000619  0.000002  0.000797 -0.000155
  1C   1dxz       0.000493  0.000753 -0.006393 -0.000090 -0.008802  0.002067
  1C   1dyz      -0.000925 -0.000107  0.008059 -0.000785 -0.010203  0.015672
  1C   1dx2y2    -0.008394 -0.013202 -0.000377  0.002092 -0.000495  0.000134
  1C   1dxy       0.017442  0.001938  0.000451  0.014538 -0.000531  0.000841
  2C   1s        -0.054345  0.001397 -0.000003  0.017315 -0.000005 -0.000003
  2C   2s         0.117089  0.001125  0.000022 -0.051416  0.000010  0.000013
  2C   3s         0.291817  0.006115  0.000014 -0.074039  0.000028 -0.000034
  2C   1pz        0.011296 -0.001309 -0.258581  0.012551  0.114677 -0.323548
  2C   1px       -0.210728  0.043533 -0.013763 -0.232363  0.006128 -0.017416
  2C   1py       -0.020491  0.185737  0.000934  0.040701 -0.000154  0.000469
  2C   2pz       -0.003227  0.000091 -0.113066  0.003572  0.058164 -0.166644
  2C   2px        0.060915  0.005116 -0.006049 -0.066777  0.003117 -0.008962
  2C   2py        0.047633  0.025039  0.000226 -0.010038 -0.000059  0.000254
  2C   1dz2      -0.000123  0.000183  0.000668  0.000003 -0.000728 -0.000053
  2C   1dxz      -0.000660  0.000759 -0.007331 -0.000062  0.007488  0.000134
  2C   1dyz      -0.000816 -0.000034 -0.007212 -0.000788 -0.011208 -0.015808
  2C   1dx2y2     0.012386 -0.013276 -0.000450  0.001509  0.000394 -0.000016
  2C   1dxy       0.014873  0.001333 -0.000374  0.014609 -0.000610 -0.000851
  3C   1s         0.048257  0.008959  0.000032  0.009167  0.000000 -0.000007
  3C   2s        -0.108678 -0.032945 -0.000113 -0.029819  0.000003  0.000018
  3C   3s        -0.249694 -0.037832 -0.000095 -0.025403 -0.000026  0.000003
  3C   1pz       -0.010502  0.007330 -0.243787 -0.006138  0.334219  0.010333
  3C   1px        0.194803 -0.126838 -0.013572  0.108308  0.018090  0.000567
  3C   1py        0.038469 -0.214286 -0.000343 -0.188602 -0.000415 -0.000022
  3C   2pz       -0.001314  0.001538 -0.106726 -0.000480  0.165496  0.003898
  3C   2px        0.022069 -0.023525 -0.005822  0.007378  0.008933  0.000183
  3C   2py       -0.092207 -0.044852 -0.000010 -0.046541 -0.000199 -0.000005
  3C   1dz2       0.000178 -0.000216  0.000437  0.000194 -0.001077 -0.001694
  3C   1dxz      -0.000795  0.000758 -0.004828  0.000032  0.011544  0.017912
  3C   1dyz       0.000294 -0.000239 -0.008115 -0.000807  0.004236 -0.005718
  3C   1dx2y2     0.014880 -0.013987 -0.000317  0.000059  0.000634  0.000959
  3C   1dxy      -0.005779  0.005206 -0.000418  0.014910  0.000218 -0.000330
  4C   1s        -0.017270  0.000236  0.000003 -0.012971 -0.000014  0.000010
  4C   2s         0.036251  0.000339 -0.000005  0.042409  0.000043 -0.000026
  4C   3s         0.127921 -0.001140 -0.000019  0.041189  0.000026 -0.000031
  4C   1pz        0.006971 -0.007541 -0.217717  0.004047  0.292170  0.240853
  4C   1px       -0.132735  0.153901 -0.011296 -0.070656  0.015799  0.013030
  4C   1py       -0.187563  0.106169  0.000556  0.239961 -0.000285 -0.000290
  4C   2pz        0.004425  0.000098 -0.095921  0.001137  0.143317  0.128850
  4C   2px       -0.082081  0.003608 -0.005145 -0.020238  0.007741  0.006945
  4C   2py       -0.021826  0.010566  0.000142  0.060888 -0.000155 -0.000175
  4C   1dz2       0.000141 -0.000219 -0.000878 -0.000244  0.001471 -0.000231
  4C   1dxz      -0.000022  0.000795  0.009255 -0.000130 -0.015720  0.002633
  4C   1dyz       0.000314 -0.000170 -0.003814 -0.000879 -0.002758  0.008005
  4C   1dx2y2     0.000550 -0.015440  0.000450  0.002364 -0.000855  0.000158
  4C   1dxy      -0.005783  0.003735 -0.000209  0.016173 -0.000128  0.000434
  5C   1s        -0.000001 -0.021201 -0.000070 -0.000000  0.000000  0.000017
  5C   2s         0.000005  0.063984  0.000205 -0.000000 -0.000002 -0.000053
  5C   3s        -0.000009  0.077369  0.000218 -0.000016  0.000009  0.000073
  5C   1pz       -0.000437  0.018159 -0.166309  0.000428  0.000005  0.303001
  5C   1px        0.014527 -0.324417 -0.009982 -0.014204  0.000000  0.016491
  5C   1py        0.236211  0.019983  0.000306 -0.230962 -0.000051 -0.000453
  5C   2pz       -0.000166  0.005716 -0.074902  0.000111  0.000003  0.158680
  5C   2px        0.005523 -0.100619 -0.004370 -0.003719 -0.000007  0.008603
  5C   2py        0.089796  0.006182  0.000131 -0.060649 -0.000015 -0.000229
  5C   1dz2      -0.000001 -0.000244 -0.000675  0.000002  0.000051  0.000650
  5C   1dxz       0.000028  0.000680  0.007092 -0.000065 -0.000983 -0.006792
  5C   1dyz       0.000295 -0.000068 -0.000438 -0.000673 -0.016003  0.000419
  5C   1dx2y2    -0.000662 -0.013360  0.000339  0.001537 -0.000077 -0.000361
  5C   1dxy      -0.005357  0.001651 -0.000028  0.012435 -0.000862  0.000031
  6C   1s         0.017270  0.000235  0.000003  0.012973  0.000014  0.000011
  6C   2s        -0.036249  0.000342 -0.000008 -0.042418 -0.000040 -0.000025
  6C   3s        -0.127906 -0.001108  0.000033 -0.041140 -0.000000 -0.000098
  6C   1pz       -0.006247 -0.007114 -0.217716 -0.004916 -0.292164  0.240861
  6C   1px        0.108748  0.139728 -0.011323  0.099521 -0.015777  0.013017
  6C   1py       -0.202439 -0.124251  0.000032  0.229476  0.000580 -0.000422
  6C   2pz       -0.004324  0.000135 -0.095917 -0.001353 -0.143310  0.128845
  6C   2px        0.078775  0.002307 -0.005185  0.027522 -0.007758  0.006982
  6C   2py       -0.031740 -0.010932  0.000128  0.057929  0.000276 -0.000198
  6C   1dz2      -0.000143 -0.000220 -0.000899  0.000249 -0.001447 -0.000179
  6C   1dxz       0.000081  0.000813  0.009652 -0.000039  0.015264  0.001633
  6C   1dyz       0.000302  0.000011  0.002647 -0.000884 -0.004669 -0.008268
  6C   1dx2y2    -0.001941 -0.015885  0.000480  0.001644  0.000819  0.000078
  6C   1dxy      -0.005477  0.000136  0.000128  0.016261 -0.000277 -0.000454
  7H   1s         0.000002 -0.263768 -0.000791 -0.000001  0.000002  0.000053
  7H   2s         0.000006 -0.089037 -0.000263 -0.000001  0.000004  0.000013
  7H   1pz       -0.000009 -0.000655 -0.004479  0.000009  0.000000  0.009706
  7H   1px        0.000288  0.012335 -0.000207 -0.000282 -0.000000  0.000524
  7H   1py        0.004682 -0.000760  0.000005 -0.004589 -0.000001 -0.000015
  8H   1s        -0.083949  0.003248  0.000043  0.213317  0.000047 -0.000026
  8H   2s        -0.027390  0.004708  0.000023  0.082531  0.000012 -0.000005
  8H   1pz       -0.000356 -0.000136 -0.005928  0.000362 -0.009074  0.007748
  8H   1px        0.006593  0.002790 -0.000313 -0.006852 -0.000492  0.000420
  8H   1py        0.000368 -0.001914  0.000003 -0.005698  0.000015 -0.000013
  9H   1s         0.147917  0.212458  0.000643 -0.128018 -0.000004  0.000020
  9H   2s         0.057618  0.079637  0.000240 -0.047364 -0.000013  0.000008
  9H   1pz        0.000139 -0.000015 -0.006711  0.000198 -0.010394  0.000172
  9H   1px       -0.002798  0.000353 -0.000361 -0.003473 -0.000561  0.000010
  9H   1py       -0.007401 -0.009109 -0.000015  0.004946  0.000019 -0.000000
 10H   1s        -0.240987 -0.106280 -0.000340 -0.169673 -0.000050 -0.000000
 10H   2s        -0.086131 -0.042165 -0.000133 -0.064680 -0.000019  0.000006
 10H   1pz        0.000549  0.000301 -0.007130  0.000290 -0.003707 -0.010400
 10H   1px       -0.010019 -0.005222 -0.000400 -0.005248 -0.000201 -0.000560
 10H   1py        0.006390 -0.000554  0.000009  0.005025  0.000007  0.000015
 11H   1s         0.240990 -0.106283 -0.000339  0.169676  0.000050  0.000003
 11H   2s         0.086136 -0.042163 -0.000126  0.064695  0.000019  0.000016
 11H   1pz       -0.000570  0.000298 -0.007130 -0.000308  0.003706 -0.010400
 11H   1px        0.010727 -0.005115 -0.000399  0.005825  0.000201 -0.000559
 11H   1py        0.005114  0.001191  0.000014  0.004345 -0.000004  0.000015
 12H   1s        -0.147910  0.212456  0.000638  0.128017  0.000009  0.000021
 12H   2s        -0.057619  0.079641  0.000241  0.047367  0.000010  0.000007
 12H   1pz       -0.000111 -0.000049 -0.006712 -0.000215  0.010395  0.000172
 12H   1px        0.001870  0.001466 -0.000359  0.004053  0.000562  0.000011
 12H   1py       -0.007688  0.008998  0.000034  0.004483 -0.000012 -0.000000
 13H   1s         0.083946  0.003248  0.000037 -0.213321 -0.000044 -0.000021
 13H   2s         0.027387  0.004724  0.000014 -0.082519 -0.000011  0.000000
 13H   1pz        0.000353 -0.000143 -0.005928 -0.000340  0.009074  0.007748
 13H   1px       -0.006498  0.003004 -0.000313  0.006102  0.000493  0.000420
 13H   1py        0.001175  0.001559  0.000012 -0.006496 -0.000011 -0.000009
                     24        25        26        27        28        29   
                  -0.22379  -0.19417  -0.04537  -0.03633  -0.03039   0.00485
                   0.00000   0.00000   0.00000   0.00000   0.00000   0.00000
                  --------  --------  --------  --------  --------  --------
  0C   1s        -0.000010  0.000000  0.000036  0.000001  0.048454  0.040056
  0C   2s         0.000032 -0.000003 -0.000106 -0.000015 -0.151432 -0.113379
  0C   3s         0.000134  0.000126 -0.000451  0.000036 -0.345222 -0.495362
  0C   1pz       -0.325406 -0.179162 -0.279477  0.331001 -0.001598 -0.000411
  0C   1px       -0.017558 -0.009687 -0.015100  0.017915  0.026859 -0.000097
  0C   1py        0.000561  0.000323  0.000510 -0.000599 -0.098629 -0.208954
  0C   2pz       -0.250903 -0.159722 -0.362743  0.417178 -0.003650 -0.000135
  0C   2px       -0.013523 -0.008519 -0.019573  0.022581  0.060664 -0.010666
  0C   2py        0.000397  0.000268  0.000655 -0.000765 -0.235485 -0.377620
  0C   1dz2       0.001055 -0.002623 -0.001918 -0.000983 -0.004996 -0.002495
  0C   1dxz      -0.011389  0.028066  0.020167  0.011011  0.000890  0.000971
  0C   1dyz      -0.004829  0.003277 -0.006930  0.015666  0.000623  0.001029
  0C   1dx2y2    -0.000623  0.001519  0.001083  0.000607 -0.025541 -0.022902
  0C   1dxy      -0.000243  0.000127 -0.000404  0.000835 -0.010468 -0.018205
  1C   1s        -0.000006  0.000004 -0.000015 -0.000020  0.050931  0.031362
  1C   2s         0.000021 -0.000005  0.000037  0.000048 -0.158280 -0.084823
  1C   3s        -0.000060 -0.000152  0.000186  0.000365 -0.390052 -0.339076
  1C   1pz        0.189178 -0.311259  0.094969 -0.412981 -0.004900 -0.001337
  1C   1px        0.010187 -0.016748  0.005148 -0.022220  0.089599  0.023802
  1C   1py       -0.000312  0.000468 -0.000125  0.000562 -0.055780 -0.079494
  1C   2pz        0.144523 -0.270466  0.104566 -0.531990 -0.010983 -0.003868
  1C   2px        0.007755 -0.014544  0.005725 -0.028654  0.200381  0.070303
  1C   2py       -0.000203  0.000522 -0.000074  0.000569 -0.134802 -0.121445
  1C   1dz2       0.001102  0.000563  0.001337 -0.001103 -0.005061 -0.002309
  1C   1dxz      -0.012302 -0.006583 -0.014825  0.011484 -0.001287 -0.000803
  1C   1dyz      -0.019053 -0.019866 -0.018941 -0.012938  0.001272  0.000237
  1C   1dx2y2    -0.000698 -0.000389 -0.000836  0.000615  0.014381  0.010656
  1C   1dxy      -0.001004 -0.001057 -0.001003 -0.000718 -0.023754 -0.004545
  2C   1s        -0.000005 -0.000004 -0.000013  0.000020  0.050948 -0.031389
  2C   2s         0.000016  0.000005  0.000030 -0.000059 -0.158334  0.084905
  2C   3s         0.000002  0.000195  0.000160 -0.000332 -0.390549  0.339315
  2C   1pz        0.189170  0.311263  0.095001  0.412977 -0.005080  0.001650
  2C   1px        0.010193  0.016750  0.005150  0.022215  0.095778 -0.033822
  2C   1py       -0.000240 -0.000442 -0.000154 -0.000644  0.044377 -0.075985
  2C   2pz        0.144516  0.270467  0.104614  0.531983 -0.011439  0.004346
  2C   2px        0.007745  0.014555  0.005692  0.028617  0.215482 -0.085502
  2C   2py       -0.000169 -0.000283 -0.000202 -0.000986  0.108882 -0.111772
  2C   1dz2       0.000975 -0.000434  0.001211  0.001181 -0.005052  0.002306
  2C   1dxz      -0.009879  0.004103 -0.012397 -0.012979 -0.001511  0.000836
  2C   1dyz       0.020422 -0.020525  0.020619 -0.011430 -0.001069  0.000114
  2C   1dx2y2    -0.000511  0.000197 -0.000646 -0.000732  0.019731 -0.011459
  2C   1dxy       0.001112 -0.001110  0.001135 -0.000597  0.019538 -0.001875
  3C   1s        -0.000008 -0.000002  0.000037  0.000001  0.048471 -0.040119
  3C   2s         0.000023  0.000010 -0.000112  0.000005 -0.151483  0.113527
  3C   3s         0.000091 -0.000070 -0.000451 -0.000057 -0.345608  0.496430
  3C   1pz       -0.325411  0.179156 -0.279501 -0.330979 -0.001951  0.001180
  3C   1px       -0.017571  0.009693 -0.015114 -0.017931  0.038734 -0.025708
  3C   1py        0.000394 -0.000205  0.000315  0.000376  0.094630 -0.207286
  3C   2pz       -0.250905  0.159719 -0.362775 -0.417151 -0.004513  0.001552
  3C   2px       -0.013566  0.008587 -0.019644 -0.022605  0.089070 -0.035951
  3C   2py        0.000334 -0.000195  0.000432  0.000468  0.226341 -0.375920
  3C   1dz2       0.001020  0.002591 -0.001954  0.000879 -0.004989  0.002492
  3C   1dxz      -0.010711 -0.027453  0.020861 -0.009013  0.000749 -0.000754
  3C   1dyz       0.006193  0.006702  0.004400  0.016901 -0.000844  0.001225
  3C   1dx2y2    -0.000571 -0.001473  0.001137 -0.000450 -0.022226  0.017786
  3C   1dxy       0.000348  0.000394  0.000207  0.000927  0.016371 -0.023198
  4C   1s        -0.000012  0.000005  0.000044 -0.000037  0.043677 -0.026808
  4C   2s         0.000038 -0.000016 -0.000135  0.000111 -0.136960  0.076279
  4C   3s        -0.000092  0.000026 -0.000159  0.000368 -0.356728  0.284346
  4C   1pz       -0.053978 -0.339484  0.384959  0.197645  0.002644 -0.003634
  4C   1px       -0.002929 -0.018399  0.020731  0.010677 -0.048804  0.063196
  4C   1py        0.000102  0.000370 -0.000547 -0.000225  0.084665 -0.176844
  4C   2pz       -0.029230 -0.291026  0.471384  0.266599  0.006898 -0.008669
  4C   2px       -0.001572 -0.015813  0.025220  0.014484 -0.125339  0.152964
  4C   2py       -0.000009  0.000302 -0.000702 -0.000269  0.174711 -0.301521
  4C   1dz2      -0.002407  0.000686 -0.000265 -0.002029 -0.004470  0.001268
  4C   1dxz       0.026045 -0.007286  0.002430  0.021730 -0.000037  0.000057
  4C   1dyz       0.019308  0.000198 -0.016947  0.005404  0.001347 -0.001540
  4C   1dx2y2     0.001445 -0.000396  0.000089  0.001183 -0.007573  0.001683
  4C   1dxy       0.001020  0.000019 -0.000927  0.000266 -0.024412  0.028356
  5C   1s         0.000028  0.000001 -0.000052 -0.000002  0.052131  0.000075
[...]
      3      -0.017849   0.034898  -0.019824   0.011393  -0.025721  -0.034721
      4      -0.054045   0.037773   0.001920   0.029857  -0.046032   0.052843
      5       0.000887  -0.001836   0.001075  -0.000574   0.001322   0.001955
      6      -0.014425  -0.028555   0.005472   0.020607   0.019881  -0.020117
      7       0.060204   0.035190   0.024830  -0.018584  -0.048842  -0.076002
      8       0.000866   0.001594  -0.000260  -0.001138  -0.001145   0.000975
      9      -0.031698   0.064680   0.026247  -0.017703   0.050554   0.102067
     10      -0.006255  -0.025458  -0.015839  -0.012696  -0.014894  -0.033118
     11       0.001699  -0.003524  -0.001440   0.000937  -0.002754  -0.005562
     12       0.062007   0.001058  -0.026342  -0.011443   0.043160   0.033157
     13       0.040271   0.020213  -0.019077   0.014966   0.030324   0.076751
     14      -0.003288  -0.000025   0.001394   0.000641  -0.002289  -0.001679
     15      -0.016330  -0.003689  -0.006770   0.017648   0.003235  -0.058416
     16      -0.003268  -0.074810   0.029549   0.013797   0.052637  -0.015145
     17       0.000877   0.000078   0.000416  -0.000932  -0.000099   0.003136
     18       0.056406  -0.004971   0.024618   0.011574  -0.039122   0.051307
     19      -0.044974   0.025465  -0.002071  -0.025831   0.035394  -0.084033
     20      -0.003114   0.000308  -0.001337  -0.000665   0.002170  -0.002900
     21      -0.020760  -0.031310   0.020535   0.031673  -0.022996  -0.064309
     22      -0.028624  -0.526705   0.474073   0.240989  -0.373921   0.093698
     23       0.001077   0.000946  -0.000424  -0.001359   0.000699   0.003613
     24       0.379930  -0.096442   0.248949   0.306796   0.277189  -0.358081
     25      -0.336564   0.111945  -0.204936  -0.292946  -0.250755   0.278073
     26      -0.021042   0.005383  -0.013756  -0.017027  -0.015365   0.019782
     27      -0.255090  -0.454335  -0.101397  -0.514948   0.368788  -0.472565
     28      -0.025128  -0.084145  -0.035502  -0.081000   0.060713  -0.049822
     29       0.013739   0.024396   0.005424   0.027698  -0.019831   0.025448
     30      -0.180949   0.184205  -0.079822   0.247971   0.182535  -0.127713
     31      -0.349808   0.300509  -0.105310   0.453179   0.326573  -0.088365
     32       0.009259  -0.009480   0.004146  -0.012731  -0.009377   0.006764
     33      -0.152434  -0.129627  -0.115596   0.165328  -0.141158  -0.166815
     34       0.403457   0.277119   0.322209  -0.373806   0.346519   0.256690
     35       0.008811   0.007391   0.006713  -0.009471   0.008120   0.009367
     36      -0.198541   0.466192   0.462647  -0.215245  -0.358560  -0.494235
     37       0.040078  -0.144772  -0.144304   0.045380   0.105513   0.141714
     38       0.010804  -0.025414  -0.025212   0.011697   0.019534   0.026917
     39       0.427977   0.061240  -0.435339  -0.021331  -0.305803  -0.309475
     40       0.296774   0.065966  -0.306396   0.008095  -0.214823  -0.152248
     41      -0.022688  -0.003224   0.023066   0.001171   0.016206   0.016508
                 30         31         32         33         34         35    
      0       0.049928  -0.327686  -0.275359  -0.190472  -0.135429  -0.002429
      1      -0.046286  -0.121158   0.041530   0.041664  -0.109741   0.022144
      2      -0.002764   0.017541   0.014952   0.010358   0.007161   0.000164
      3       0.064253   0.187295   0.137017   0.034447   0.147231   0.001991
      4       0.082640   0.380718   0.026974  -0.143247   0.159216  -0.002681
      5      -0.003351  -0.009586  -0.007362  -0.002069  -0.007728  -0.000111
      6      -0.064419   0.134654  -0.137002  -0.061331  -0.122382   0.015054
      7       0.068023  -0.399016   0.055731   0.223568   0.012533   0.007529
      8       0.003579  -0.007831   0.007477   0.003632   0.006627  -0.000802
      9      -0.021570  -0.301103   0.288327  -0.036648   0.225921  -0.008518
     10      -0.054404   0.160353   0.002470  -0.106375  -0.069287  -0.032283
     11       0.001084   0.016497  -0.015560   0.001821  -0.012297   0.000413
     12       0.088086   0.205721  -0.295523   0.176801  -0.101547  -0.025125
     13       0.014769   0.024089  -0.262939   0.151790   0.063203   0.035137
     14      -0.004739  -0.011069   0.015557  -0.009322   0.005582   0.001411
     15      -0.003584  -0.108174   0.028259  -0.107829   0.032984   0.045391
     16       0.106223   0.013238   0.431870  -0.091528  -0.218936  -0.003006
     17       0.000351   0.005862  -0.000858   0.005690  -0.002119  -0.002462
     18      -0.072483   0.209304   0.254388   0.184991  -0.046791  -0.025524
     19      -0.003444  -0.058179  -0.295488  -0.075850   0.162956  -0.027086
     20       0.003914  -0.011411  -0.014218  -0.010116   0.002775   0.001340
     21      -0.043443  -0.124343  -0.014315  -0.108795   0.079587  -0.531819
     22      -0.505882   0.003915  -0.264125   0.191517   0.403005   0.032866
     23       0.001605   0.006730   0.000380   0.006152  -0.003700   0.028841
     24       0.140915  -0.014293  -0.212504  -0.209470   0.271092   0.292452
     25      -0.211617   0.162873   0.117470   0.297449  -0.102888   0.323554
     26      -0.007944   0.001032   0.011737   0.011796  -0.014810  -0.015335
     27      -0.186622   0.220485   0.145095   0.323706   0.298467   0.041580
     28      -0.097178  -0.040516   0.123190   0.139469  -0.054022  -0.257332
     29       0.009940  -0.011977  -0.007681  -0.017287  -0.016214  -0.002630
     30      -0.225299  -0.148828   0.078446   0.201977  -0.141548  -0.030766
     31      -0.442502  -0.214134  -0.109077   0.119639  -0.376217   0.018094
     32       0.011525   0.007750  -0.004400  -0.010721   0.007118   0.001687
     33       0.119495  -0.124190  -0.087908   0.193470  -0.077479  -0.181783
     34      -0.403251   0.226658  -0.105022  -0.388871  -0.149518  -0.075020
     35      -0.007033   0.006999   0.004602  -0.010991   0.003955   0.009709
     36       0.004578   0.218584  -0.136551  -0.027586  -0.428287   0.109665
     37      -0.075408   0.017672   0.140007  -0.130121   0.122755   0.375355
     38      -0.000347  -0.011809   0.007580   0.001306   0.023321  -0.005376
     39      -0.288767  -0.027534   0.226453  -0.372808  -0.001666   0.290662
     40      -0.260290  -0.157007   0.095806  -0.229345   0.157568  -0.414575
     41       0.015211   0.001233  -0.012094   0.019806   0.000329  -0.016332
                 36         37         38         39         40         41    
      0       0.007058   0.007741  -0.001772   0.001132   0.008079   0.005524
      1      -0.038743  -0.037975   0.025339   0.010208  -0.045434  -0.033629
      2      -0.000439  -0.000475   0.000133  -0.000046  -0.000504  -0.000348
      3      -0.039650  -0.027708  -0.029049  -0.036352   0.019274   0.029560
      4       0.022110   0.017770   0.013972   0.021823  -0.007899  -0.016565
      5       0.002173   0.001521   0.001589   0.001994  -0.001052  -0.001620
      6       0.039272  -0.021150   0.036756  -0.039283  -0.019503   0.031406
      7       0.015494  -0.011232   0.013420  -0.017355  -0.005219   0.012832
      8      -0.002099   0.001126  -0.001966   0.002097   0.001046  -0.001678
      9      -0.009654   0.013181   0.001701  -0.000382  -0.013524   0.009566
     10      -0.029265   0.041819   0.015169  -0.011123  -0.043711   0.032576
     11       0.000479  -0.000651  -0.000070   0.000004   0.000666  -0.000469
     12      -0.006348  -0.004681   0.025885  -0.015127   0.022954  -0.019566
     13       0.011375   0.001801  -0.037464   0.025437  -0.029755   0.027911
     14       0.000360   0.000256  -0.001455   0.000855  -0.001285   0.001099
     15      -0.007274   0.045711  -0.005578  -0.046583   0.000684  -0.033435
     16      -0.000906  -0.002478   0.003125   0.002896   0.002811   0.002061
     17       0.000392  -0.002478   0.000307   0.002526  -0.000033   0.001813
     18       0.016341  -0.011998  -0.028244  -0.018570  -0.026022  -0.022830
     19       0.019795  -0.009359  -0.032767  -0.023827  -0.026190  -0.025285
     20      -0.000855   0.000635   0.001479   0.000969   0.001368   0.001197
     21       0.084273  -0.528368   0.066299   0.524285  -0.005903   0.370520
     22      -0.004457   0.032264  -0.006395  -0.032318  -0.002307  -0.022825
     23      -0.004569   0.028651  -0.003598  -0.028429   0.000316  -0.020091
     24      -0.200825   0.117844   0.334490   0.225740   0.279383   0.253036
     25      -0.223556   0.127365   0.372041   0.253301   0.307241   0.280503
     26       0.010529  -0.006182  -0.017535  -0.011831  -0.014651  -0.013266
     27      -0.075096  -0.073787   0.045439   0.015472  -0.084698  -0.061200
     28       0.455263   0.441984  -0.288964  -0.110274   0.512566   0.372906
     29       0.004735   0.004644  -0.002886  -0.001000   0.005337   0.003860
     30       0.464042   0.330779   0.325418   0.415655  -0.204199  -0.327690
     31      -0.260030  -0.187254  -0.180472  -0.234318   0.111729   0.183657
     32      -0.025430  -0.018128  -0.017828  -0.022778   0.011185   0.017956
     33      -0.458066   0.254425  -0.419170   0.447059   0.209664  -0.348209
     34      -0.186853   0.106098  -0.169928   0.183867   0.083081  -0.142258
     35       0.024468  -0.013586   0.022390  -0.023876  -0.011202   0.018599
     36       0.102175  -0.143529  -0.046852   0.031693   0.145643  -0.106010
     37       0.346109  -0.486407  -0.167405   0.117158   0.493987  -0.361165
     38      -0.005014   0.007041   0.002286  -0.001541  -0.007146   0.005199
     39       0.086522   0.029578  -0.302036   0.188989  -0.243871   0.216873
     40      -0.124797  -0.038162   0.431651  -0.273428   0.345358  -0.309619
     41      -0.004864  -0.001655   0.016971  -0.010625   0.013697  -0.012185


-----------
IR SPECTRUM
-----------

 Mode    freq (cm**-1)   T**2         TX         TY         TZ
-------------------------------------------------------------------
   6:       211.63    0.000000  (  0.000087  -0.000125  -0.000370)
   7:       211.70    0.000001  ( -0.000134   0.000117   0.001117)
   8:       425.12    0.000001  (  0.000921  -0.000044  -0.000601)
   9:       425.14    0.000000  ( -0.000124   0.000042  -0.000328)
  10:       545.58    0.000008  (  0.000928  -0.000328   0.002722)
  11:       545.62    0.000005  (  0.000352   0.000007  -0.002241)
  12:       636.92   80.256891  (  0.482416  -0.013099   8.945613)
  13:       855.36    0.000005  ( -0.000039  -0.000093   0.002144)
  14:       855.40    0.000001  (  0.001086   0.000166   0.000052)
  15:       858.56    0.000001  ( -0.000764   0.000208  -0.000041)
  16:       870.12    0.000000  (  0.000275   0.000033  -0.000296)
  17:       870.13    0.000002  (  0.001263  -0.000385   0.000266)
  18:       984.93    2.184352  ( -1.458717   0.224224   0.078869)
  19:       985.01    2.182257  ( -0.225011  -1.459974   0.010123)
  20:      1019.39    0.000001  (  0.000316  -0.000360   0.000803)
  21:      1019.45    0.000003  (  0.000347  -0.000615  -0.001567)
  22:      1039.32    0.000005  (  0.001095  -0.000272   0.001816)
  23:      1039.33    0.000000  ( -0.000034   0.000105   0.000404)
  24:      1208.67    0.000023  (  0.004763   0.000340  -0.000339)
  25:      1208.75    0.000035  (  0.001702   0.005655  -0.000003)
  26:      1262.95    0.000009  (  0.001513   0.002599  -0.000286)
  27:      1262.96    0.000032  ( -0.005510   0.001060   0.000173)
  28:      1369.18    0.000005  (  0.000739  -0.002145  -0.000174)
  29:      1448.65   41.630614  ( -6.264204   1.508112   0.340536)
  30:      1448.69   41.669053  ( -1.505185  -6.276802   0.072324)
  31:      1540.04    0.000004  (  0.001758  -0.001156  -0.000136)
  32:      1540.08    0.000025  ( -0.001780  -0.004616   0.000489)
  33:      1576.73    0.000002  ( -0.000303  -0.001144   0.000473)
  34:      1576.81    0.000000  (  0.000309  -0.000090   0.000317)
  35:      3084.70    0.000235  ( -0.014779   0.003969   0.000866)
  36:      3084.73    0.000027  (  0.005052   0.000899  -0.000415)
  37:      3092.48    0.000385  ( -0.018279  -0.007047   0.001020)
  38:      3092.59    0.000296  (  0.005988  -0.016134  -0.000484)
  39:      3100.66    9.343382  (  3.048069  -0.159439  -0.165027)
  40:      3100.73    9.349213  (  0.157883   3.053567  -0.003973)
  41:      3105.39    0.000057  ( -0.007244   0.002139   0.000039)

The first frequency considered to be a vibration is 6
The total number of vibrations considered is 36


--------------------------
THERMOCHEMISTRY AT 298.15K
--------------------------

Temperature         ... 298.15 K
Pressure            ... 1.00 atm
Total Mass          ... 91.13 AMU

Throughout the following assumptions are being made:
  (1) The electronic state is orbitally nondegenerate
  (2) There are no thermally accessible electronically excited states
  (3) Hindered rotations indicated by low frequency modes are not
      treated as such but are treated as vibrations and this may
      cause some error
  (4) All equations used are the standard statistical mechanics
      equations for an ideal gas
  (5) All vibrations are strictly harmonic

freq.     211.63  E(vib)   ...       0.34 
freq.     211.70  E(vib)   ...       0.34 
freq.     425.12  E(vib)   ...       0.18 
freq.     425.14  E(vib)   ...       0.18 
freq.     545.58  E(vib)   ...       0.12 
freq.     545.62  E(vib)   ...       0.12 
freq.     636.92  E(vib)   ...       0.09 
freq.     855.36  E(vib)   ...       0.04 
freq.     855.40  E(vib)   ...       0.04 
freq.     858.56  E(vib)   ...       0.04 
freq.     870.12  E(vib)   ...       0.04 
freq.     870.13  E(vib)   ...       0.04 
freq.     984.93  E(vib)   ...       0.02 
freq.     985.01  E(vib)   ...       0.02 
freq.    1019.39  E(vib)   ...       0.02 
freq.    1019.45  E(vib)   ...       0.02 
freq.    1039.32  E(vib)   ...       0.02 
freq.    1039.33  E(vib)   ...       0.02 
freq.    1208.67  E(vib)   ...       0.01 
freq.    1208.75  E(vib)   ...       0.01 
freq.    1262.95  E(vib)   ...       0.01 
freq.    1262.96  E(vib)   ...       0.01 
freq.    1369.18  E(vib)   ...       0.01 
freq.    1448.65  E(vib)   ...       0.00 
freq.    1448.69  E(vib)   ...       0.00 
freq.    1540.04  E(vib)   ...       0.00 
freq.    1540.08  E(vib)   ...       0.00 
freq.    1576.73  E(vib)   ...       0.00 
freq.    1576.81  E(vib)   ...       0.00 
freq.    3084.70  E(vib)   ...       0.00 
freq.    3084.73  E(vib)   ...       0.00 
freq.    3092.48  E(vib)   ...       0.00 
freq.    3092.59  E(vib)   ...       0.00 
freq.    3100.66  E(vib)   ...       0.00 
freq.    3100.73  E(vib)   ...       0.00 
freq.    3105.39  E(vib)   ...       0.00 

------------
INNER ENERGY
------------

The inner energy is: U= E(el) + E(ZPE) + E(vib) + E(rot) + E(trans)
    E(el)   - is the total energy from the electronic structure calculation
              = E(kin-el) + E(nuc-el) + E(el-el) + E(nuc-nuc)
    E(ZPE)  - the the zero temperature vibrational energy from the frequency calculation
    E(vib)  - the the finite temperature correction to E(ZPE) due to population
              of excited vibrational states
    E(rot)  - is the rotational thermal energy
    E(trans)- is the translational thermal energy

Summary of contributions to the inner energy U:
Electronic energy                ...   -270.40629635 Eh
Zero point energy                ...      0.11505544 Eh      72.20 kcal/mol
Thermal vibrational correction   ...      0.00279846 Eh       1.76 kcal/mol
Thermal rotational correction    ...      0.00141627 Eh       0.89 kcal/mol
Thermal translational correction ...      0.00141627 Eh       0.89 kcal/mol
-----------------------------------------------------------------------
Total thermal energy                   -270.28560990 Eh


Summary of corrections to the electronic energy:
(perhaps to be used in another calculation)
Total thermal correction                  0.00563101 Eh       3.53 kcal/mol
Non-thermal (ZPE) correction              0.11505544 Eh      72.20 kcal/mol
-----------------------------------------------------------------------
Total correction                          0.12068645 Eh      75.73 kcal/mol


--------
ENTHALPY
--------

The enthalpy is H = U + kB*T
                kB is Boltzmann's constant
Total free energy                 ...   -270.28560990 Eh 
Thermal Enthalpy correction       ...      0.00094421 Eh       0.59 kcal/mol
-----------------------------------------------------------------------
Total Enthalpy                    ...   -270.28466569 Eh


Note: Only C1 symmetry has been detected, increase convergence thresholds 
      if your molecule has a higher symmetry. Symmetry factor of 1.0 is   
      used for the rotational entropy correction. 
 

Note: Rotational entropy computed according to Herzberg 
Infrared and Raman Spectra, Chapter V,1, Van Nostrand Reinhold, 1945 
Point Group:  C1, Symmetry Number:   1  
Rotational constants in cm-1:     0.122430     0.122420     0.061212 

Vibrational entropy computed according to the QRRHO of S. Grimme
Chem.Eur.J. 2012 18 9955


-------
ENTROPY
-------

The entropy contributions are T*S = T*(S(el)+S(vib)+S(rot)+S(trans))
     S(el)   - electronic entropy
     S(vib)  - vibrational entropy
     S(rot)  - rotational entropy
     S(trans)- translational entropy
The entropies will be listed as mutliplied by the temperature to get
units of energy

Electronic entropy                ...      0.00000000 Eh      0.00 kcal/mol
Vibrational entropy               ...      0.00422527 Eh      2.65 kcal/mol
Rotational entropy                ...      0.01281257 Eh      8.04 kcal/mol
Translational entropy             ...      0.01873974 Eh     11.76 kcal/mol
-----------------------------------------------------------------------
Final entropy term                ...      0.03577758 Eh     22.45 kcal/mol

In case the symmetry of your molecule has not been determined correctly
or in case you have a reason to use a different symmetry number we print 
out the resulting rotational entropy values for sn=1,12 :
 --------------------------------------------------------
|  sn= 1 | S(rot)=       0.01281257 Eh      8.04 kcal/mol|
|  sn= 2 | S(rot)=       0.01215812 Eh      7.63 kcal/mol|
|  sn= 3 | S(rot)=       0.01177529 Eh      7.39 kcal/mol|
|  sn= 4 | S(rot)=       0.01150366 Eh      7.22 kcal/mol|
|  sn= 5 | S(rot)=       0.01129297 Eh      7.09 kcal/mol|
|  sn= 6 | S(rot)=       0.01112083 Eh      6.98 kcal/mol|
|  sn= 7 | S(rot)=       0.01097528 Eh      6.89 kcal/mol|
|  sn= 8 | S(rot)=       0.01084921 Eh      6.81 kcal/mol|
|  sn= 9 | S(rot)=       0.01073800 Eh      6.74 kcal/mol|
|  sn=10 | S(rot)=       0.01063852 Eh      6.68 kcal/mol|
|  sn=11 | S(rot)=       0.01054853 Eh      6.62 kcal/mol|
|  sn=12 | S(rot)=       0.01046637 Eh      6.57 kcal/mol|
 --------------------------------------------------------


-------------------
GIBBS FREE ENERGY
-------------------

The Gibbs free energy is G = H - T*S

Total enthalpy                    ...   -270.28466569 Eh 
Total entropy correction          ...     -0.03577758 Eh    -22.45 kcal/mol
-----------------------------------------------------------------------
Final Gibbs free energy         ...   -270.32044327 Eh

For completeness - the Gibbs free energy minus the electronic energy
G-E(el)                           ...      0.08585308 Eh     53.87 kcal/mol


Timings for individual modules:

Sum of individual times         ...      149.533 sec (=   2.492 min)
GTO integral calculation        ...        5.264 sec (=   0.088 min)   3.5 %
SCF iterations                  ...       67.983 sec (=   1.133 min)  45.5 %
SCF Gradient evaluation         ...       18.576 sec (=   0.310 min)  12.4 %
Geometry relaxation             ...        0.929 sec (=   0.015 min)   0.6 %
Analytical frequency calculation...       56.781 sec (=   0.946 min)  38.0 %
                             ****ORCA TERMINATED NORMALLY****
TOTAL RUN TIME: 0 days 0 hours 2 minutes 30 seconds 759 msec
