
                                 *****************
                                 * O   R   C   A *
                                 *****************

           --- An Ab Initio, DFT and Semiempirical electronic structure package ---

                  #######################################################
                  #                        -***-                        #
                  #          Department of theory and spectroscopy      #
                  #               Directorship: Frank Neese             #
                  #        Max Planck Institute fuer Kohlenforschung    #
                  #                Kaiser Wilhelm Platz 1               #
                  #                 D-45470 Muelheim/Ruhr               #
                  #                      Germany                        #
                  #                                                     #
                  #                  All rights reserved                #
                  #                        -***-                        #
                  #######################################################


                         Program Version 4.1.1  - RELEASE  -


 With contributions from (in alphabetic order):
   Daniel Aravena         : Magnetic Properties
   Michael Atanasov       : Ab Initio Ligand Field Theory
   Alexander A. Auer      : GIAO ZORA
   Ute Becker             : Parallelization
   Giovanni Bistoni       : ED, Open-shell LED
   Martin Brehm           : Molecular dynamics
   Dmytro Bykov           : SCF Hessian
   Vijay G. Chilkuri      : MRCI spin determinant printing
   Dipayan Datta          : RHF DLPNO-CCSD density
   Achintya Kumar Dutta   : EOM-CC, STEOM-CC
   Dmitry Ganyushin       : Spin-Orbit,Spin-Spin,Magnetic field MRCI
   Miquel Garcia          : C-PCM Hessian
   Yang Guo               : DLPNO-NEVPT2, CIM, IAO-localization
   Andreas Hansen         : Spin unrestricted coupled pair/coupled cluster methods
   Benjamin Helmich-Paris : CASSCF linear response (MC-RPA)
   Lee Huntington         : MR-EOM, pCC
   Robert Izsak           : Overlap fitted RIJCOSX, COSX-SCS-MP3, EOM
   Christian Kollmar      : KDIIS, OOCD, Brueckner-CCSD(T), CCSD density
   Simone Kossmann        : Meta GGA functionals, TD-DFT gradient, OOMP2, MP2 Hessian
   Martin Krupicka        : AUTO-CI
   Lucas Lang             : DCDCAS
   Dagmar Lenk            : GEPOL surface, SMD
   Dimitrios Liakos       : Extrapolation schemes; parallel MDCI
   Dimitrios Manganas     : ROCIS; embedding schemes
   Dimitrios Pantazis     : SARC Basis sets
   Taras Petrenko         : DFT Hessian,TD-DFT gradient, ASA, ECA, R-Raman, ABS, FL, XAS/XES, NRVS
   Peter Pinski           : DLPNO-MP2, DLPNO-MP2 Gradient
   Christoph Reimann      : Effective Core Potentials
   Marius Retegan         : Local ZFS, SOC
   Christoph Riplinger    : Optimizer, TS searches, QM/MM, DLPNO-CCSD(T), (RO)-DLPNO pert. Triples
   Tobias Risthaus        : Range-separated hybrids, TD-DFT gradient, RPA, STAB
   Michael Roemelt        : Restricted open shell CIS
   Masaaki Saitow         : Open-shell DLPNO
   Barbara Sandhoefer     : DKH picture change effects
   Avijit Sen             : IP-ROCIS
   Kantharuban Sivalingam : CASSCF convergence, NEVPT2, FIC-MRCI
   Bernardo de Souza      : ESD, SOC TD-DFT
   Georgi Stoychev        : AutoAux, RI-MP2 NMR
   Willem Van den Heuvel  : Paramagnetic NMR
   Boris Wezisla          : Elementary symmetry handling
   Frank Wennmohs         : Technical directorship


 We gratefully acknowledge several colleagues who have allowed us to
 interface, adapt or use parts of their codes:
   Stefan Grimme, W. Hujo, H. Kruse,             : VdW corrections, initial TS optimization,
                  C. Bannwarth                     DFT functionals, gCP, sTDA/sTD-DF
   Ed Valeev                                     : LibInt (2-el integral package), F12 methods
   Garnet Chan, S. Sharma, J. Yang, R. Olivares  : DMRG
   Ulf Ekstrom                                   : XCFun DFT Library
   Mihaly Kallay                                 : mrcc  (arbitrary order and MRCC methods)
   Andreas Klamt, Michael Diedenhofen            : otool_cosmo (COSMO solvation model)
   Jiri Pittner, Ondrej Demel                    : Mk-CCSD
   Frank Weinhold                                : gennbo (NPA and NBO analysis)
   Christopher J. Cramer and Donald G. Truhlar   : smd solvation model
   Lars Goerigk                                  : TD-DFT with DH, B97 family of functionals
   V. Asgeirsson, H. Jonsson                     : NEB implementation
   FAccTs GmbH                                   : IRC, NEB, NEB-TS, Multilevel


 Your calculation uses the libint2 library for the computation of 2-el integrals
 For citations please refer to: http://libint.valeyev.net

 This ORCA versions uses:
   CBLAS   interface :  Fast vector & matrix operations
   LAPACKE interface :  Fast linear algebra routines
   SCALAPACK package :  Parallel linear algebra routines


----- Orbital basis set information -----
Your calculation utilizes the basis: 6-311G**
   H, Li - Ne  : R. Krishnan, J. S. Binkley, R. Seeger and J. A. Pople, J. Chem. Phys. 72, 650 (1980).
   Na - Ar     : A. D. McLean and G. S. Chandler J. Chem. Phys. 72, 5639, (1980).
   K  - Ca     : J.-P. Blaudeau, M. P. McGrath, L. A. Curtiss and L. Radom, J. Chem. Phys. 107, 5016 (1997).
   Ga - Kr     : L. A. Curtiss, M. P. McGrath, J.-P. Blandeau, N. E. Davis, R. C. Binning and L. Radom, J. Chem. Phys. 103, 6104 (1995).
   Pol./Diff.
   H, Li - Cl  : T. Clark, J. Chandrasekhar and P. v. R. Schleyer, J. Comp. Chem. 4, 294 (1983).
   H - Ne      : M. J. Frisch, J. A. Pople and J. S. Binkley, J. Chem. Phys. 80, 3265 (1984).

================================================================================
                                        WARNINGS
                       Please study these warnings very carefully!
================================================================================


WARNING: Geometry Optimization
  ===> : Switching off AutoStart
         For restart on a previous wavefunction, please use MOREAD

WARNING: Post HF methods need fully converged wavefunctions
  ===> : Setting SCFConvForced true
         You can overwrite this default with %scf ConvForced false 


INFO   : the flag for use of LIBINT has been found!

================================================================================
                                       INPUT FILE
================================================================================
NAME = ch3.inp
|  1> ! UHF MP2 6-311G** Opt Freq NoFrozenCore TightOpt TightSCF
|  2> 
|  3> *xyz 0 2
|  4> C        0.000000000      0.000000000      0.000000000
|  5> H        1.078832047      0.000000000      0.000000000
|  6> H       -0.539416024      0.934295959      0.000000000
|  7> H       -0.539416024     -0.934295959      0.000000000
|  8> *
|  9> %pal
| 10>  nprocs 4
| 11> end
| 12> 
| 13>                          ****END OF INPUT****
================================================================================

                       *****************************
                       * Geometry Optimization Run *
                       *****************************

Geometry optimization settings:
Update method            Update   .... BFGS
Choice of coordinates    CoordSys .... Z-matrix Internals
Initial Hessian          InHess   .... Almoef's Model

Convergence Tolerances:
Energy Change            TolE     ....  1.0000e-06 Eh
Max. Gradient            TolMAXG  ....  1.0000e-04 Eh/bohr
RMS Gradient             TolRMSG  ....  3.0000e-05 Eh/bohr
Max. Displacement        TolMAXD  ....  1.0000e-03 bohr
RMS Displacement         TolRMSD  ....  6.0000e-04 bohr

------------------------------------------------------------------------------
                        ORCA OPTIMIZATION COORDINATE SETUP
------------------------------------------------------------------------------

The optimization will be done in new redundant internal coordinates
Making redundant internal coordinates   ...  (new redundants) done
Evaluating the initial hessian          ...  (Almloef) done
Evaluating the coordinates              ...  done
Calculating the B-matrix                .... done
Calculating the G-matrix                .... done
Diagonalizing the G-matrix              .... done
The first mode is                       ....    1
The number of degrees of freedom        ....    6

    -----------------------------------------------------------------
                    Redundant Internal Coordinates


    -----------------------------------------------------------------
         Definition                    Initial Value    Approx d2E/dq
    -----------------------------------------------------------------
      1. B(H   1,C   0)                  1.0788         0.375181   
      2. B(H   2,C   0)                  1.0788         0.375181   
      3. B(H   3,C   0)                  1.0788         0.375181   
      4. A(H   1,C   0,H   3)          120.0000         0.294623   
      5. A(H   2,C   0,H   3)          120.0000         0.294623   
      6. A(H   1,C   0,H   2)          120.0000         0.294623   
      7. I(H   1,H   3,H   2,C   0)      0.0000         0.023151   
    -----------------------------------------------------------------

Number of atoms                         .... 4
Number of degrees of freedom            .... 7

         *************************************************************
         *                GEOMETRY OPTIMIZATION CYCLE   1            *
         *************************************************************
---------------------------------
CARTESIAN COORDINATES (ANGSTROEM)
---------------------------------
  C      0.000000    0.000000    0.000000
  H      1.078832    0.000000    0.000000
  H     -0.539416    0.934296    0.000000
  H     -0.539416   -0.934296    0.000000

----------------------------
CARTESIAN COORDINATES (A.U.)
----------------------------
  NO LB      ZA    FRAG     MASS         X           Y           Z
   0 C     6.0000    0    12.011    0.000000    0.000000    0.000000
   1 H     1.0000    0     1.008    2.038697    0.000000    0.000000
   2 H     1.0000    0     1.008   -1.019349    1.765563    0.000000
   3 H     1.0000    0     1.008   -1.019349   -1.765563    0.000000

--------------------------------
INTERNAL COORDINATES (ANGSTROEM)
--------------------------------
 C      0   0   0     0.000000000000     0.00000000     0.00000000
 H      1   0   0     1.078832047000     0.00000000     0.00000000
 H      1   2   0     1.078832047147   120.00000003     0.00000000
 H      1   2   3     1.078832047147   120.00000003   180.00000000

---------------------------
INTERNAL COORDINATES (A.U.)
---------------------------
 C      0   0   0     0.000000000000     0.00000000     0.00000000
 H      1   0   0     2.038697113328     0.00000000     0.00000000
 H      1   2   0     2.038697113606   120.00000003     0.00000000
 H      1   2   3     2.038697113606   120.00000003   180.00000000

---------------------
BASIS SET INFORMATION
---------------------
There are 2 groups of distinct atoms

 Group   1 Type C   : 11s5p1d contracted to 4s3p1d pattern {6311/311/1}
 Group   2 Type H   : 5s1p contracted to 3s1p pattern {311/1}

Atom   0C    basis set group =>   1
Atom   1H    basis set group =>   2
Atom   2H    basis set group =>   2
Atom   3H    basis set group =>   2


           ************************************************************
           *        Program running with 4 parallel MPI-processes     *
           *              working on a common directory               *
           ************************************************************
------------------------------------------------------------------------------
                           ORCA GTO INTEGRAL CALCULATION
------------------------------------------------------------------------------

                         BASIS SET STATISTICS AND STARTUP INFO

 # of primitive gaussian shells          ...   35
 # of primitive gaussian functions       ...   55
 # of contracted shells                  ...   20
 # of contracted basis functions         ...   36
 Highest angular momentum                ...    2
 Maximum contraction depth               ...    6
 Integral package used                   ... LIBINT
 Integral threshhold            Thresh   ...  2.500e-11
 Primitive cut-off              TCut     ...  2.500e-12


------------------------------ INTEGRAL EVALUATION ----------------------------


 * One electron integrals 
 Pre-screening matrix                    ... done
 Shell pair data                         ... done (   0.000 sec)



           ************************************************************
           *        Program running with 4 parallel MPI-processes     *
           *              working on a common directory               *
           ************************************************************
-------------------------------------------------------------------------------
                                 ORCA SCF
-------------------------------------------------------------------------------

------------
SCF SETTINGS
------------
Hamiltonian:
 Ab initio Hamiltonian  Method          .... Hartree-Fock(GTOs)


General Settings:
 Integral files         IntName         .... ch3
 Hartree-Fock type      HFTyp           .... UHF
 Total Charge           Charge          ....    0
 Multiplicity           Mult            ....    2
 Number of Electrons    NEL             ....    9
 Basis Dimension        Dim             ....   36
 Nuclear Repulsion      ENuc            ....      9.6787554545 Eh

Convergence Acceleration:
 DIIS                   CNVDIIS         .... on
   Start iteration      DIISMaxIt       ....    12
   Startup error        DIISStart       ....  0.200000
   # of expansion vecs  DIISMaxEq       ....     5
   Bias factor          DIISBfac        ....   1.050
   Max. coefficient     DIISMaxC        ....  10.000
 Newton-Raphson         CNVNR           .... off
 SOSCF                  CNVSOSCF        .... off
 Level Shifting         CNVShift        .... on
   Level shift para.    LevelShift      ....    0.2500
   Turn off err/grad.   ShiftErr        ....    0.0010
 Zerner damping         CNVZerner       .... off
 Static damping         CNVDamp         .... on
   Fraction old density DampFac         ....    0.7000
   Max. Damping (<1)    DampMax         ....    0.9800
   Min. Damping (>=0)   DampMin         ....    0.0000
   Turn off err/grad.   DampErr         ....    0.1000
 Fernandez-Rico         CNVRico         .... off

SCF Procedure:
 Maximum # iterations   MaxIter         ....   125
 SCF integral mode      SCFMode         .... Direct
   Integral package                     .... LIBINT
 Reset frequency        DirectResetFreq ....    20
 Integral Threshold     Thresh          ....  2.500e-11 Eh
 Primitive CutOff       TCut            ....  2.500e-12 Eh

Convergence Tolerance:
 Convergence Check Mode ConvCheckMode   .... Total+1el-Energy
 Convergence forced     ConvForced      .... 1
 Energy Change          TolE            ....  1.000e-08 Eh
 1-El. energy change                    ....  1.000e-05 Eh
 DIIS Error             TolErr          ....  5.000e-07


Diagonalization of the overlap matrix:
Smallest eigenvalue                        ... 2.301e-02
Time for diagonalization                   ...    0.022 sec
Threshold for overlap eigenvalues          ... 1.000e-08
Number of eigenvalues below threshold      ... 0
Time for construction of square roots      ...    0.013 sec
Total time needed                          ...    0.041 sec

-------------------
DFT GRID GENERATION
-------------------

General Integration Accuracy     IntAcc      ...  4.340
Radial Grid Type                 RadialGrid  ... Gauss-Chebyshev
Angular Grid (max. acc.)         AngularGrid ... Lebedev-110
Angular grid pruning method      GridPruning ... 3 (G Style)
Weight generation scheme         WeightScheme... Becke
Basis function cutoff            BFCut       ...    1.0000e-11
Integration weight cutoff        WCut        ...    1.0000e-14
Grids for H and He will be reduced by one unit

# of grid points (after initial pruning)     ...   4038 (   0.0 sec)
# of grid points (after weights+screening)   ...   3969 (   0.0 sec)
nearest neighbour list constructed           ...    0.0 sec
Grid point re-assignment to atoms done       ...    0.0 sec
Grid point division into batches done        ...    0.0 sec
Reduced shell lists constructed in    0.2 sec

Total number of grid points                  ...     3969
Total number of batches                      ...       63
Average number of points per batch           ...       63
Average number of grid points per atom       ...      992
Average number of shells per batch           ...    16.65 (83.24%)
Average number of basis functions per batch  ...    29.71 (82.52%)
Average number of large shells per batch     ...    16.41 (98.59%)
Average number of large basis fcns per batch ...    29.35 (98.81%)
Maximum spatial batch extension              ...  18.02, 25.60, 20.53 au
Average spatial batch extension              ...   1.29,  1.61,  1.83 au

Time for grid setup =    0.257 sec

------------------------------
INITIAL GUESS: MODEL POTENTIAL
------------------------------
Loading Hartree-Fock densities                     ... done
Calculating cut-offs                               ... done
Setting up the integral package                    ... done
Initializing the effective Hamiltonian             ... done
Starting the Coulomb interaction                   ... done (   0.0 sec)
Reading the grid                                   ... done
Mapping shells                                     ... done
Starting the XC term evaluation                    ... done (   0.0 sec)
Transforming the Hamiltonian                       ... done (   0.0 sec)
Diagonalizing the Hamiltonian                      ... done (   0.0 sec)
Back transforming the eigenvectors                 ... done (   0.0 sec)
Now organizing SCF variables                       ... done
                      ------------------
                      INITIAL GUESS DONE (   0.6 sec)
                      ------------------
--------------
SCF ITERATIONS
--------------
ITER       Energy         Delta-E        Max-DP      RMS-DP      [F,P]     Damp
               ***  Starting incremental Fock matrix formation  ***
  0    -39.5133431230   0.000000000000 0.02654773  0.00106781  0.2330439 0.7000
  1    -39.5332291006  -0.019885977559 0.01943078  0.00083907  0.1559851 0.7000
                               ***Turning on DIIS***
  2    -39.5458756654  -0.012646564874 0.04078185  0.00184876  0.0975654 0.0000
  3    -39.5145066027   0.031369062711 0.01320663  0.00057876  0.0256750 0.0000
  4    -39.5686064804  -0.054099877657 0.00517841  0.00025625  0.0043309 0.0000
  5    -39.5731948092  -0.004588328827 0.00347767  0.00018398  0.0023643 0.0000
  6    -39.5733790458  -0.000184236585 0.00208913  0.00011768  0.0012848 0.0000
  7    -39.5730381751   0.000340870676 0.00150300  0.00009366  0.0006117 0.0000
  8    -39.5728943502   0.000143824914 0.00044149  0.00003391  0.0001588 0.0000
  9    -39.5728607060   0.000033644159 0.00014714  0.00001088  0.0000362 0.0000
 10    -39.5728518196   0.000008886475 0.00007625  0.00000515  0.0000110 0.0000
 11    -39.5728519965  -0.000000176945 0.00003094  0.00000198  0.0000028 0.0000
                            ***DIIS convergence achieved***

               *****************************************************
               *                     SUCCESS                       *
               *           SCF CONVERGED AFTER  12 CYCLES          *
               *****************************************************


----------------
TOTAL SCF ENERGY
----------------

Total Energy       :          -39.57285212 Eh           -1076.83205 eV

Components:
Nuclear Repulsion  :            9.67875545 Eh             263.37233 eV
Electronic Energy  :          -49.25160757 Eh           -1340.20438 eV
One Electron Energy:          -71.59189597 Eh           -1948.11453 eV
Two Electron Energy:           22.34028840 Eh             607.91015 eV

Virial components:
Potential Energy   :          -79.11730383 Eh           -2152.89129 eV
Kinetic Energy     :           39.54445172 Eh            1076.05924 eV
Virial Ratio       :            2.00071819


---------------
SCF CONVERGENCE
---------------

  Last Energy change         ...   -1.2033e-07  Tolerance :   1.0000e-08
  Last MAX-Density change    ...    1.0463e-05  Tolerance :   1.0000e-07
  Last RMS-Density change    ...    6.7198e-07  Tolerance :   5.0000e-09
  Last DIIS Error            ...    7.7437e-07  Tolerance :   5.0000e-07

             **** THE GBW FILE WAS UPDATED (ch3.gbw) ****
             **** DENSITY FILE WAS UPDATED (ch3.scfp.tmp) ****
             **** ENERGY FILE WAS UPDATED (ch3.en.tmp) ****
----------------------
UHF SPIN CONTAMINATION
----------------------

Expectation value of <S**2>     :     0.761499
Ideal value S*(S+1) for S=0.5   :     0.750000
Deviation                       :     0.011499

----------------
ORBITAL ENERGIES
----------------
                 SPIN UP ORBITALS
  NO   OCC          E(Eh)            E(eV) 
   0   1.0000     -11.231513      -305.6250 
   1   1.0000      -0.946562       -25.7573 
   2   1.0000      -0.579190       -15.7605 
   3   1.0000      -0.579190       -15.7605 
   4   1.0000      -0.384433       -10.4610 
   5   0.0000       0.162821         4.4306 
   6   0.0000       0.229094         6.2340 
   7   0.0000       0.229094         6.2340 
   8   0.0000       0.449488        12.2312 
   9   0.0000       0.449488        12.2312 
  10   0.0000       0.512882        13.9562 
  11   0.0000       0.576357        15.6835 
  12   0.0000       0.812892        22.1199 
  13   0.0000       0.812892        22.1199 
  14   0.0000       0.881774        23.9943 
  15   0.0000       1.273999        34.6673 
  16   0.0000       1.273999        34.6673 
  17   0.0000       1.640974        44.6532 
  18   0.0000       1.640974        44.6532 
  19   0.0000       1.663272        45.2599 
  20   0.0000       1.742957        47.4283 
  21   0.0000       1.910828        51.9963 
  22   0.0000       2.150868        58.5281 
  23   0.0000       2.150868        58.5281 
  24   0.0000       2.236756        60.8652 
  25   0.0000       2.236756        60.8652 
  26   0.0000       2.599867        70.7460 
  27   0.0000       2.722793        74.0910 
  28   0.0000       2.722793        74.0910 
  29   0.0000       2.982291        81.1523 
  30   0.0000       2.982291        81.1523 
  31   0.0000       3.004918        81.7680 
  32   0.0000       3.042637        82.7944 
  33   0.0000       4.127786       112.3228 
  34   0.0000       4.127786       112.3228 
  35   0.0000      25.061375       681.9547 

                 SPIN DOWN ORBITALS
  NO   OCC          E(Eh)            E(eV) 
   0   1.0000     -11.207717      -304.9775 
   1   1.0000      -0.854251       -23.2454 
   2   1.0000      -0.564232       -15.3535 
   3   1.0000      -0.564232       -15.3535 
   4   0.0000       0.135710         3.6929 
   5   0.0000       0.174971         4.7612 
   6   0.0000       0.234231         6.3737 
   7   0.0000       0.234231         6.3737 
   8   0.0000       0.453449        12.3390 
   9   0.0000       0.453449        12.3390 
  10   0.0000       0.558829        15.2065 
  11   0.0000       0.711665        19.3654 
  12   0.0000       0.829934        22.5836 
  13   0.0000       0.829934        22.5836 
  14   0.0000       0.918310        24.9885 
  15   0.0000       1.335268        36.3345 
  16   0.0000       1.335268        36.3345 
  17   0.0000       1.646833        44.8126 
  18   0.0000       1.646833        44.8126 
  19   0.0000       1.658409        45.1276 
  20   0.0000       1.827503        49.7289 
  21   0.0000       1.925486        52.3951 
  22   0.0000       2.148323        58.4588 
  23   0.0000       2.148323        58.4588 
  24   0.0000       2.276334        61.9422 
  25   0.0000       2.276334        61.9422 
  26   0.0000       2.600685        70.7682 
  27   0.0000       2.725380        74.1614 
  28   0.0000       2.725380        74.1614 
  29   0.0000       2.991940        81.4148 
  30   0.0000       2.991940        81.4148 
  31   0.0000       3.013760        82.0086 
  32   0.0000       3.130003        85.1717 
  33   0.0000       4.148567       112.8882 
  34   0.0000       4.148567       112.8882 
  35   0.0000      25.077493       682.3933 

                    ********************************
                    * MULLIKEN POPULATION ANALYSIS *
                    ********************************

--------------------------------------------
MULLIKEN ATOMIC CHARGES AND SPIN POPULATIONS
--------------------------------------------
   0 C :   -0.338768    1.276883
   1 H :    0.112923   -0.092294
   2 H :    0.112923   -0.092294
   3 H :    0.112923   -0.092294
Sum of atomic charges         :   -0.0000000
Sum of atomic spin populations:    1.0000000

-----------------------------------------------------
MULLIKEN REDUCED ORBITAL CHARGES AND SPIN POPULATIONS
-----------------------------------------------------
CHARGE
  0 C s       :     3.277981  s :     3.277981
      pz      :     0.983160  p :     3.031787
      px      :     1.024314
      py      :     1.024314
      dz2     :     0.004758  d :     0.029000
      dxz     :     0.000000
      dyz     :     0.000000
      dx2y2   :     0.012121
      dxy     :     0.012121
  1 H s       :     0.859920  s :     0.859920
      pz      :     0.005613  p :     0.027157
      px      :     0.017373
      py      :     0.004171
  2 H s       :     0.859920  s :     0.859920
      pz      :     0.005613  p :     0.027157
      px      :     0.007471
      py      :     0.014072
  3 H s       :     0.859920  s :     0.859920
      pz      :     0.005613  p :     0.027157
      px      :     0.007471
      py      :     0.014072

SPIN
  0 C s       :     0.146483  s :     0.146483
      pz      :     0.983160  p :     1.135223
      px      :     0.076031
      py      :     0.076031
      dz2     :    -0.005741  d :    -0.004823
      dxz     :     0.000000
      dyz     :     0.000000
      dx2y2   :     0.000459
      dxy     :     0.000459
  1 H s       :    -0.097689  s :    -0.097689
      pz      :     0.005613  p :     0.005395
      px      :     0.000020
      py      :    -0.000238
  2 H s       :    -0.097689  s :    -0.097689
      pz      :     0.005613  p :     0.005395
      px      :    -0.000173
      py      :    -0.000045
  3 H s       :    -0.097689  s :    -0.097689
      pz      :     0.005613  p :     0.005395
      px      :    -0.000173
      py      :    -0.000045


                     *******************************
                     * LOEWDIN POPULATION ANALYSIS *
                     *******************************

-------------------------------------------
LOEWDIN ATOMIC CHARGES AND SPIN POPULATIONS
-------------------------------------------
   0 C :    0.034744    1.049564
   1 H :   -0.011581   -0.016521
   2 H :   -0.011581   -0.016521
   3 H :   -0.011581   -0.016521

----------------------------------------------------
LOEWDIN REDUCED ORBITAL CHARGES AND SPIN POPULATIONS
----------------------------------------------------
CHARGE
  0 C s       :     2.864297  s :     2.864297
      pz      :     0.940482  p :     3.052912
      px      :     1.056215
      py      :     1.056215
      dz2     :     0.004355  d :     0.048047
      dxz     :     0.000000
      dyz     :     0.000000
      dx2y2   :     0.021846
      dxy     :     0.021846
  1 H s       :     0.933827  s :     0.933827
      pz      :     0.019839  p :     0.077754
      px      :     0.046580
      py      :     0.011335
  2 H s       :     0.933827  s :     0.933827
      pz      :     0.019839  p :     0.077754
      px      :     0.020146
      py      :     0.037768
  3 H s       :     0.933827  s :     0.933827
      pz      :     0.019839  p :     0.077754
      px      :     0.020146
      py      :     0.037768

SPIN
  0 C s       :     0.051373  s :     0.051373
      pz      :     0.940482  p :     1.007132
      px      :     0.033325
      py      :     0.033325
      dz2     :    -0.004189  d :    -0.008941
      dxz     :     0.000000
      dyz     :     0.000000
      dx2y2   :    -0.002376
      dxy     :    -0.002376
  1 H s       :    -0.043780  s :    -0.043780
      pz      :     0.019839  p :     0.027259
      px      :     0.006611
      py      :     0.000808
  2 H s       :    -0.043780  s :    -0.043780
      pz      :     0.019839  p :     0.027259
      px      :     0.002259
      py      :     0.005160
  3 H s       :    -0.043780  s :    -0.043780
      pz      :     0.019839  p :     0.027259
      px      :     0.002259
      py      :     0.005160


                      *****************************
                      * MAYER POPULATION ANALYSIS *
                      *****************************

  NA   - Mulliken gross atomic population
  ZA   - Total nuclear charge
  QA   - Mulliken gross atomic charge
  VA   - Mayer's total valence
  BVA  - Mayer's bonded valence
  FA   - Mayer's free valence

  ATOM       NA         ZA         QA         VA         BVA        FA
  0 C      6.3388     6.0000    -0.3388     3.9182     2.9189     0.9994
  1 H      0.8871     1.0000     0.1129     0.9711     0.9616     0.0095
  2 H      0.8871     1.0000     0.1129     0.9711     0.9616     0.0095
  3 H      0.8871     1.0000     0.1129     0.9711     0.9616     0.0095

  Mayer bond orders larger than 0.1
B(  0-C ,  1-H ) :   0.9730 B(  0-C ,  2-H ) :   0.9730 B(  0-C ,  3-H ) :   0.9730 


-------
TIMINGS
-------

Total SCF time: 0 days 0 hours 0 min 6 sec 

Total time                  ....       6.338 sec
Sum of individual times     ....       5.628 sec  ( 88.8%)

Fock matrix formation       ....       4.928 sec  ( 77.8%)
Diagonalization             ....       0.039 sec  (  0.6%)
Density matrix formation    ....       0.026 sec  (  0.4%)
Population analysis         ....       0.016 sec  (  0.3%)
Initial guess               ....       0.318 sec  (  5.0%)
Orbital Transformation      ....       0.000 sec  (  0.0%)
Orbital Orthonormalization  ....       0.000 sec  (  0.0%)
DIIS solution               ....       0.044 sec  (  0.7%)


           ************************************************************
           *        Program running with 4 parallel MPI-processes     *
           *              working on a common directory               *
           ************************************************************

------------------------------------------------------------------------------
                                ORCA  MP2 
------------------------------------------------------------------------------

MP2 will be done in the AO integral direct mode
The Q1-step will be done using symmetric double matrices
Dimension of the basis                    ...   36
Memory devoted for MP2                    ...  256 MB   
Memory needed for all in one shot         ...    1 MB
Number of MOs that can be treated together... 1398      
MP2 density construction                  ... relaxed
The MP2 gradient is requested => amplitudes will be stored on disk
Total number of MOs              ...    5
Number of MOs treated per batch  ...    2 
Number of batches necessary      ...    1 
OPERATORS   0/  0 PASS   0
OPERATORS   0/  1 PASS   0
Total number of MOs              ...    5
Number of MOs treated per batch  ...    1 
Number of batches necessary      ...    1 
OPERATORS   1/  0 PASS   0
OPERATORS   1/  1 PASS   0

Correlation energy components
 E2 and T2 for alpha/alpha pairs :     -0.020452878 Eh
 E2 and T2 for beta/beta   pairs :     -0.007446857 Eh
 E2 and T2 for alpha/beta  pairs :     -0.124920541 Eh

-----------------------------------------------
 MP2 CORRELATION ENERGY   :     -0.152820275 Eh
-----------------------------------------------


---------------------
MP2 DENSITY FORMATION
---------------------

Completing the external part of the density      ... done
Storing the unrelaxed density                    ... done

Calculating G(D)                                 ... done
Completing the Lagrangian                        ... done
Solving the Z-vector equations                   ... 

------------------------------------------------------------------------------
                           ORCA CP-SCF CALCULATION
------------------------------------------------------------------------------

Input orbitals are from        ... ch3.gbw
Input Perturbation             ... ch3.pin.tmp
Wavefunction output            ... ch3.pout.tmp
Perturbation mode              ... Real perturbation (singlet)
Solver                         ... POPLE
Max. number of iterations      ... 128
Convergence tolerance          ... 1.000e-08
Integral handling              ... Direct
Number of perturbations        ... 1
Number of operators            ... 2
Orbital ranges used for CP-SCF:
 Operator 0:  Orbitals   0...  4  to   5... 35
 Operator 1:  Orbitals   0...  3  to   4... 35
Variables per vector in CP-SCF ... 283
Number of vectors sought       ... 1
     CP-SCF ITERATION   0: 
     CP-SCF ITERATION   1:      0.000043808695
     CP-SCF ITERATION   2:      0.000002899166
     CP-SCF ITERATION   3:      0.000000110615
     CP-SCF ITERATION   4:      0.000000002588
                                                 ... done
Finalizing the relaxed density                   ... done
Transforming P to the AO basis                   ... done
Storing the relaxed density                      ... done

------------------------------------
ENERGY WEIGHTED DENSITY FINALIZATION
------------------------------------

Gathering the parts of the W-matrix              ...                                                                                                           done
Forming the Z-density                            ... done
Transforming Z to the AO basis                   ... done
Calculating G(Z)                                 ... done
Finalizing the W-matrix                          ...                                                                                                           done
Transforming W to the AO basis and storing       ... done

                *********************************************
                * UNRELAXED MP2 DENSITY POPULATION ANALYSIS *
                *********************************************

------------------------------------------------------------------------------
                           ORCA POPULATION ANALYSIS
------------------------------------------------------------------------------
Input electron density              ... ch3.pmp2ur
Input spin density                  ... ch3.rmp2ur
BaseName (.gbw .S,...)              ... ch3

                    ********************************
                    * MULLIKEN POPULATION ANALYSIS *
                    ********************************

------------------------------------------
MULLIKEN ATOMIC CHARGES AND SPIN DENSITIES
------------------------------------------
   0 C :   -0.342557    1.271161
   1 H :    0.114186   -0.090387
   2 H :    0.114186   -0.090387
   3 H :    0.114186   -0.090387
Sum of atomic charges       :   -0.0000000
Sum of atomic spin densities:    1.0000000

---------------------------------------------------
MULLIKEN REDUCED ORBITAL CHARGES AND SPIN DENSITIES
---------------------------------------------------
CHARGE
  0 C s       :     3.274626  s :     3.274626
      pz      :     0.981030  p :     3.023033
      px      :     1.021001
      py      :     1.021001
      dz2     :     0.007256  d :     0.044898
      dxz     :     0.003244
      dyz     :     0.003244
      dx2y2   :     0.015577
      dxy     :     0.015577
  1 H s       :     0.855669  s :     0.855669
      pz      :     0.006994  p :     0.030145
      px      :     0.017717
      py      :     0.005434
  2 H s       :     0.855669  s :     0.855669
      pz      :     0.006994  p :     0.030145
      px      :     0.008505
      py      :     0.014647
  3 H s       :     0.855669  s :     0.855669
      pz      :     0.006994  p :     0.030145
      px      :     0.008505
      py      :     0.014647

SPIN
  0 C s       :     0.147147  s :     0.147147
      pz      :     0.974894  p :     1.123975
      px      :     0.074540
      py      :     0.074540
      dz2     :    -0.003633  d :     0.000040
      dxz     :     0.001389
      dyz     :     0.001389
      dx2y2   :     0.000447
      dxy     :     0.000447
  1 H s       :    -0.095905  s :    -0.095905
      pz      :     0.005784  p :     0.005518
      px      :    -0.000004
      py      :    -0.000262
  2 H s       :    -0.095905  s :    -0.095905
      pz      :     0.005784  p :     0.005518
      px      :    -0.000197
      py      :    -0.000069
  3 H s       :    -0.095905  s :    -0.095905
      pz      :     0.005784  p :     0.005518
      px      :    -0.000197
      py      :    -0.000069


                     *******************************
                     * LOEWDIN POPULATION ANALYSIS *
                     *******************************

-----------------------------------------
LOEWDIN ATOMIC CHARGES AND SPIN DENSITIES
-----------------------------------------
   0 C :    0.032627    1.046117
   1 H :   -0.010876   -0.015372
   2 H :   -0.010876   -0.015372
   3 H :   -0.010876   -0.015372

--------------------------------------------------
LOEWDIN REDUCED ORBITAL CHARGES AND SPIN DENSITIES
--------------------------------------------------
CHARGE
  0 C s       :     2.861943  s :     2.861943
      pz      :     0.938770  p :     3.040450
      px      :     1.050840
      py      :     1.050840
      dz2     :     0.007637  d :     0.064981
      dxz     :     0.003130
      dyz     :     0.003130
      dx2y2   :     0.025542
      dxy     :     0.025542
  1 H s       :     0.927969  s :     0.927969
      pz      :     0.021157  p :     0.082907
      px      :     0.048914
      py      :     0.012836
  2 H s       :     0.927969  s :     0.927969
      pz      :     0.021157  p :     0.082907
      px      :     0.021855
      py      :     0.039894
  3 H s       :     0.927969  s :     0.927969
      pz      :     0.021157  p :     0.082907
      px      :     0.021855
      py      :     0.039894

SPIN
  0 C s       :     0.052362  s :     0.052362
      pz      :     0.932730  p :     0.997720
      px      :     0.032495
      py      :     0.032495
      dz2     :    -0.001909  d :    -0.003965
      dxz     :     0.001319
      dyz     :     0.001319
      dx2y2   :    -0.002347
      dxy     :    -0.002347
  1 H s       :    -0.042495  s :    -0.042495
      pz      :     0.019885  p :     0.027123
      px      :     0.006473
      py      :     0.000765
  2 H s       :    -0.042495  s :    -0.042495
      pz      :     0.019885  p :     0.027123
      px      :     0.002192
      py      :     0.005046
  3 H s       :    -0.042495  s :    -0.042495
      pz      :     0.019885  p :     0.027123
      px      :     0.002192
      py      :     0.005046


                      *****************************
                      * MAYER POPULATION ANALYSIS *
                      *****************************

  NA   - Mulliken gross atomic population
  ZA   - Total nuclear charge
  QA   - Mulliken gross atomic charge
  VA   - Mayer's total valence
  BVA  - Mayer's bonded valence
  FA   - Mayer's free valence

  ATOM       NA         ZA         QA         VA         BVA        FA
  0 C      6.3426     6.0000    -0.3426     4.0097     2.8188     1.1908
  1 H      0.8858     1.0000     0.1142     0.9796     0.9276     0.0520
  2 H      0.8858     1.0000     0.1142     0.9796     0.9276     0.0520
  3 H      0.8858     1.0000     0.1142     0.9796     0.9276     0.0520

  Mayer bond orders larger than 0.1
B(  0-C ,  1-H ) :   0.9396 B(  0-C ,  2-H ) :   0.9396 B(  0-C ,  3-H ) :   0.9396 



                *******************************************
                * RELAXED MP2 DENSITY POPULATION ANALYSIS *
                *******************************************

------------------------------------------------------------------------------
                           ORCA POPULATION ANALYSIS
------------------------------------------------------------------------------
Input electron density              ... ch3.pmp2re
Input spin density                  ... ch3.rmp2re
BaseName (.gbw .S,...)              ... ch3

                    ********************************
                    * MULLIKEN POPULATION ANALYSIS *
                    ********************************

------------------------------------------
MULLIKEN ATOMIC CHARGES AND SPIN DENSITIES
------------------------------------------
   0 C :   -0.366206    1.181797
   1 H :    0.122069   -0.060599
   2 H :    0.122069   -0.060599
   3 H :    0.122069   -0.060599
Sum of atomic charges       :   -0.0000000
Sum of atomic spin densities:    1.0000000

---------------------------------------------------
MULLIKEN REDUCED ORBITAL CHARGES AND SPIN DENSITIES
---------------------------------------------------
CHARGE
  0 C s       :     3.281842  s :     3.281842
      pz      :     0.980329  p :     3.042677
      px      :     1.031174
      py      :     1.031174
      dz2     :     0.006534  d :     0.041687
      dxz     :     0.003244
      dyz     :     0.003244
      dx2y2   :     0.014332
      dxy     :     0.014332
  1 H s       :     0.849314  s :     0.849314
      pz      :     0.007228  p :     0.028617
      px      :     0.015567
      py      :     0.005823
  2 H s       :     0.849314  s :     0.849314
      pz      :     0.007228  p :     0.028617
      px      :     0.008259
      py      :     0.013131
  3 H s       :     0.849314  s :     0.849314
      pz      :     0.007228  p :     0.028617
      px      :     0.008259
      py      :     0.013131

SPIN
  0 C s       :     0.107497  s :     0.107497
      pz      :     0.974192  p :     1.072525
      px      :     0.049166
      py      :     0.049166
      dz2     :    -0.002511  d :     0.001775
      dxz     :     0.001389
      dyz     :     0.001389
      dx2y2   :     0.000755
      dxy     :     0.000755
  1 H s       :    -0.066116  s :    -0.066116
      pz      :     0.006018  p :     0.005517
      px      :    -0.000212
      py      :    -0.000289
  2 H s       :    -0.066116  s :    -0.066116
      pz      :     0.006018  p :     0.005517
      px      :    -0.000270
      py      :    -0.000231
  3 H s       :    -0.066116  s :    -0.066116
      pz      :     0.006018  p :     0.005517
      px      :    -0.000270
      py      :    -0.000231


                     *******************************
                     * LOEWDIN POPULATION ANALYSIS *
                     *******************************

-----------------------------------------
LOEWDIN ATOMIC CHARGES AND SPIN DENSITIES
-----------------------------------------
   0 C :    0.020731    1.010364
   1 H :   -0.006910   -0.003455
   2 H :   -0.006910   -0.003455
   3 H :   -0.006910   -0.003455

--------------------------------------------------
LOEWDIN REDUCED ORBITAL CHARGES AND SPIN DENSITIES
--------------------------------------------------
CHARGE
  0 C s       :     2.865640  s :     2.865640
      pz      :     0.938280  p :     3.053077
      px      :     1.057398
      py      :     1.057398
      dz2     :     0.006677  d :     0.060553
      dxz     :     0.003130
      dyz     :     0.003130
      dx2y2   :     0.023808
      dxy     :     0.023808
  1 H s       :     0.924259  s :     0.924259
      pz      :     0.021320  p :     0.082651
      px      :     0.048013
      py      :     0.013318
  2 H s       :     0.924259  s :     0.924259
      pz      :     0.021320  p :     0.082651
      px      :     0.021992
      py      :     0.039339
  3 H s       :     0.924259  s :     0.924259
      pz      :     0.021320  p :     0.082651
      px      :     0.021992
      py      :     0.039339

SPIN
  0 C s       :     0.038113  s :     0.038113
      pz      :     0.932239  p :     0.972684
      px      :     0.020222
      py      :     0.020222
      dz2     :    -0.000803  d :    -0.000433
      dxz     :     0.001319
      dyz     :     0.001319
      dx2y2   :    -0.001134
      dxy     :    -0.001134
  1 H s       :    -0.028152  s :    -0.028152
      pz      :     0.020048  p :     0.024697
      px      :     0.004260
      py      :     0.000389
  2 H s       :    -0.028152  s :    -0.028152
      pz      :     0.020048  p :     0.024697
      px      :     0.001357
      py      :     0.003292
  3 H s       :    -0.028152  s :    -0.028152
      pz      :     0.020048  p :     0.024697
      px      :     0.001357
      py      :     0.003292


                      *****************************
                      * MAYER POPULATION ANALYSIS *
                      *****************************

  NA   - Mulliken gross atomic population
  ZA   - Total nuclear charge
  QA   - Mulliken gross atomic charge
  VA   - Mayer's total valence
  BVA  - Mayer's bonded valence
  FA   - Mayer's free valence

  ATOM       NA         ZA         QA         VA         BVA        FA
  0 C      6.3662     6.0000    -0.3662     4.0035     2.8314     1.1722
  1 H      0.8779     1.0000     0.1221     0.9787     0.9321     0.0466
  2 H      0.8779     1.0000     0.1221     0.9787     0.9321     0.0466
  3 H      0.8779     1.0000     0.1221     0.9787     0.9321     0.0466

  Mayer bond orders larger than 0.1
B(  0-C ,  1-H ) :   0.9438 B(  0-C ,  2-H ) :   0.9438 B(  0-C ,  3-H ) :   0.9438 



----------------------------------
MP2 DERIVATIVE INTEGRAL GENERATION
----------------------------------


Input Wavefunction Amplitudes       ... ch3.mp2tbb.tmp
Input Correlated Electron Density   ... ch3.pmp2re
Input Energy Weighted Density       ... ch3.wmp2.tmp
Input SCF Electron Density          ... ch3.scfp.tmp

One-Electron Terms    ...
                        ... One-Electron Terms done
Prescreening matrices              ... done

Batch handling in the gradient evaluation:
Memory available                      ...  256.0 MB
Memory per occupied orbital in Q2     ...    0.1 MB
Memory per occupied orbital in Q3     ...    0.0 MB
Total memory requirement per |i>      ...    0.1 MB
Max. Number of orbitals possible      ...   2670
Number of orbitals treated per batch  ...      9
Number of batches to be done          ...      1
Batch   0: i=    0 ...     8

---------------------------------------
MP2 TOTAL ENERGY:      -39.725672392 Eh
---------------------------------------

-----------------------------------
NORM OF THE MP2 GRADIENT:  0.000003
-----------------------------------

-------------------------   --------------------
FINAL SINGLE POINT ENERGY       -39.725672392064
-------------------------   --------------------

------------------------------------------------------------------------------
                         ORCA GEOMETRY RELAXATION STEP
------------------------------------------------------------------------------

Reading the OPT-File                    .... done
Getting information on internals        .... done
Copying old internal coords+grads       .... done
Making the new internal coordinates     .... (new redundants).... done
Validating the new internal coordinates .... (new redundants).... done
Calculating the B-matrix                .... done
Calculating the G,G- and P matrices     .... done
Transforming gradient to internals      .... done
Projecting the internal gradient        .... done
Number of atoms                         ....   4
Number of internal coordinates          ....   7
Current Energy                          ....   -39.725672392 Eh
Current gradient norm                   ....     0.000002689 Eh/bohr
Maximum allowed component of the step   ....  0.300
Current trust radius                    ....  0.300
Evaluating the initial hessian          ....  (Almloef) done
Projecting the Hessian                  .... done
Forming the augmented Hessian           .... done
Diagonalizing the augmented Hessian     .... done
Last element of RFO vector              ....  1.000000000
Lowest eigenvalues of augmented Hessian:
 -0.000000000  0.023151279  0.294622978  0.294622978  0.375181035
Length of the computed step             ....  0.000007167
The final length of the internal step   ....  0.000007167
Converting the step to cartesian space:
 Initial RMS(Int)=    0.0000027089
Transforming coordinates:
 Iter   0:  RMS(Cart)=    0.0000020689 RMS(Int)=    0.0000027089
 Iter   1:  RMS(Cart)=    0.0000000000 RMS(Int)=    0.0000000000
done
Storing new coordinates                 .... done

                                .--------------------.
          ----------------------|Geometry convergence|-------------------------
          Item                value                   Tolerance       Converged
          ---------------------------------------------------------------------
          RMS gradient        0.0000010163            0.0000300000      YES
          MAX gradient        0.0000015527            0.0001000000      YES
          RMS step            0.0000027089            0.0006000000      YES
          MAX step            0.0000041385            0.0010000000      YES
          ........................................................
          Max(Bonds)      0.0000      Max(Angles)    0.00
          Max(Dihed)        0.00      Max(Improp)    0.00
          ---------------------------------------------------------------------

                    ***********************HURRAY********************
                    ***        THE OPTIMIZATION HAS CONVERGED     ***
                    *************************************************


    ---------------------------------------------------------------------------
                         Redundant Internal Coordinates

                          --- Optimized Parameters ---  
                            (Angstroem and degrees)

        Definition                    OldVal   dE/dq     Step     FinalVal
    ----------------------------------------------------------------------------
     1. B(H   1,C   0)                1.0788  0.000002 -0.0000    1.0788   
     2. B(H   2,C   0)                1.0788  0.000002 -0.0000    1.0788   
     3. B(H   3,C   0)                1.0788  0.000002 -0.0000    1.0788   
     4. A(H   1,C   0,H   3)          120.00  0.000000   -0.00    120.00   
     5. A(H   2,C   0,H   3)          120.00 -0.000000    0.00    120.00   
     6. A(H   1,C   0,H   2)          120.00  0.000000   -0.00    120.00   
     7. I(H   1,H   3,H   2,C   0)      0.00 -0.000000    0.00      0.00   
    ----------------------------------------------------------------------------
                 *******************************************************
                 *** FINAL ENERGY EVALUATION AT THE STATIONARY POINT ***
                 ***               (AFTER    1 CYCLES)               ***
                 *******************************************************
---------------------------------
CARTESIAN COORDINATES (ANGSTROEM)
---------------------------------
  C     -0.000000   -0.000000    0.000000
  H      1.078830    0.000000   -0.000000
  H     -0.539415    0.934294   -0.000000
  H     -0.539415   -0.934294   -0.000000

----------------------------
CARTESIAN COORDINATES (A.U.)
----------------------------
  NO LB      ZA    FRAG     MASS         X           Y           Z
   0 C     6.0000    0    12.011   -0.000000   -0.000000    0.000000
   1 H     1.0000    0     1.008    2.038693    0.000000   -0.000000
   2 H     1.0000    0     1.008   -1.019346    1.765560   -0.000000
   3 H     1.0000    0     1.008   -1.019346   -1.765560   -0.000000

--------------------------------
INTERNAL COORDINATES (ANGSTROEM)
--------------------------------
 C      0   0   0     0.000000000000     0.00000000     0.00000000
 H      1   0   0     1.078829858000     0.00000000     0.00000000
 H      1   2   0     1.078829857142   120.00000001     0.00000000
 H      1   2   3     1.078829857141   120.00000001   179.99999915

---------------------------
INTERNAL COORDINATES (A.U.)
---------------------------
 C      0   0   0     0.000000000000     0.00000000     0.00000000
 H      1   0   0     2.038692976716     0.00000000     0.00000000
 H      1   2   0     2.038692975095   120.00000001     0.00000000
 H      1   2   3     2.038692975094   120.00000001   179.99999915

---------------------
BASIS SET INFORMATION
---------------------
There are 2 groups of distinct atoms

 Group   1 Type C   : 11s5p1d contracted to 4s3p1d pattern {6311/311/1}
 Group   2 Type H   : 5s1p contracted to 3s1p pattern {311/1}

Atom   0C    basis set group =>   1
Atom   1H    basis set group =>   2
Atom   2H    basis set group =>   2
Atom   3H    basis set group =>   2


           ************************************************************
           *        Program running with 4 parallel MPI-processes     *
           *              working on a common directory               *
           ************************************************************
------------------------------------------------------------------------------
                           ORCA GTO INTEGRAL CALCULATION
------------------------------------------------------------------------------

                         BASIS SET STATISTICS AND STARTUP INFO

 # of primitive gaussian shells          ...   35
 # of primitive gaussian functions       ...   55
 # of contracted shells                  ...   20
 # of contracted basis functions         ...   36
 Highest angular momentum                ...    2
 Maximum contraction depth               ...    6
 Integral package used                   ... LIBINT
 Integral threshhold            Thresh   ...  2.500e-11
 Primitive cut-off              TCut     ...  2.500e-12


------------------------------ INTEGRAL EVALUATION ----------------------------


 * One electron integrals 
 Pre-screening matrix                    ... done
 Shell pair data                         ... done (   0.000 sec)



           ************************************************************
           *        Program running with 4 parallel MPI-processes     *
           *              working on a common directory               *
           ************************************************************
-------------------------------------------------------------------------------
                                 ORCA SCF
-------------------------------------------------------------------------------

------------
SCF SETTINGS
------------
Hamiltonian:
 Ab initio Hamiltonian  Method          .... Hartree-Fock(GTOs)


General Settings:
 Integral files         IntName         .... ch3
 Hartree-Fock type      HFTyp           .... UHF
 Total Charge           Charge          ....    0
 Multiplicity           Mult            ....    2
 Number of Electrons    NEL             ....    9
 Basis Dimension        Dim             ....   36
 Nuclear Repulsion      ENuc            ....      9.6787750992 Eh

Convergence Acceleration:
 DIIS                   CNVDIIS         .... on
   Start iteration      DIISMaxIt       ....    12
   Startup error        DIISStart       ....  0.200000
   # of expansion vecs  DIISMaxEq       ....     5
   Bias factor          DIISBfac        ....   1.050
   Max. coefficient     DIISMaxC        ....  10.000
 Newton-Raphson         CNVNR           .... off
 SOSCF                  CNVSOSCF        .... off
 Level Shifting         CNVShift        .... on
   Level shift para.    LevelShift      ....    0.2500
   Turn off err/grad.   ShiftErr        ....    0.0010
 Zerner damping         CNVZerner       .... off
 Static damping         CNVDamp         .... on
   Fraction old density DampFac         ....    0.7000
   Max. Damping (<1)    DampMax         ....    0.9800
   Min. Damping (>=0)   DampMin         ....    0.0000
   Turn off err/grad.   DampErr         ....    0.1000
 Fernandez-Rico         CNVRico         .... off

SCF Procedure:
 Maximum # iterations   MaxIter         ....   125
 SCF integral mode      SCFMode         .... Direct
   Integral package                     .... LIBINT
 Reset frequency        DirectResetFreq ....    20
 Integral Threshold     Thresh          ....  2.500e-11 Eh
 Primitive CutOff       TCut            ....  2.500e-12 Eh

Convergence Tolerance:
 Convergence Check Mode ConvCheckMode   .... Total+1el-Energy
 Convergence forced     ConvForced      .... 1
 Energy Change          TolE            ....  1.000e-08 Eh
 1-El. energy change                    ....  1.000e-05 Eh
 DIIS Error             TolErr          ....  5.000e-07


Diagonalization of the overlap matrix:
Smallest eigenvalue                        ... 2.301e-02
Time for diagonalization                   ...    0.001 sec
Threshold for overlap eigenvalues          ... 1.000e-08
Number of eigenvalues below threshold      ... 0
Time for construction of square roots      ...    0.007 sec
Total time needed                          ...    0.008 sec

---------------------
INITIAL GUESS: MOREAD
---------------------
Guess MOs are being read from file: ch3.gbw
Input Geometry matches current geometry (good)
Input basis set matches current basis set (good)
MOs were renormalized
MOs were reorthogonalized (Cholesky)
                      ------------------
                      INITIAL GUESS DONE (   0.0 sec)
                      ------------------
--------------
SCF ITERATIONS
--------------
ITER       Energy         Delta-E        Max-DP      RMS-DP      [F,P]     Damp
               ***  Starting incremental Fock matrix formation  ***
  0    -39.5728524511   0.000000000000 0.00000012  0.00000001  0.0000012 0.7000
                 **** Energy Check signals convergence ****

               *****************************************************
               *                     SUCCESS                       *
               *           SCF CONVERGED AFTER   1 CYCLES          *
               *****************************************************


----------------
TOTAL SCF ENERGY
----------------

Total Energy       :          -39.57285245 Eh           -1076.83206 eV

Components:
Nuclear Repulsion  :            9.67877510 Eh             263.37286 eV
Electronic Energy  :          -49.25162755 Eh           -1340.20492 eV
One Electron Energy:          -71.59193049 Eh           -1948.11547 eV
Two Electron Energy:           22.34030294 Eh             607.91055 eV

Virial components:
Potential Energy   :          -79.11731236 Eh           -2152.89152 eV
Kinetic Energy     :           39.54445991 Eh            1076.05946 eV
Virial Ratio       :            2.00071799


---------------
SCF CONVERGENCE
---------------

  Last Energy change         ...    1.2008e-12  Tolerance :   1.0000e-08
  Last MAX-Density change    ...    9.7399e-08  Tolerance :   1.0000e-07
  Last RMS-Density change    ...    7.4753e-09  Tolerance :   5.0000e-09
  Last DIIS Error            ...    8.9812e-07  Tolerance :   5.0000e-07

             **** THE GBW FILE WAS UPDATED (ch3.gbw) ****
             **** DENSITY FILE WAS UPDATED (ch3.scfp.tmp) ****
             **** ENERGY FILE WAS UPDATED (ch3.en.tmp) ****
----------------------
UHF SPIN CONTAMINATION
----------------------

Expectation value of <S**2>     :     0.761499
Ideal value S*(S+1) for S=0.5   :     0.750000
Deviation                       :     0.011499

----------------
ORBITAL ENERGIES
----------------
                 SPIN UP ORBITALS
  NO   OCC          E(Eh)            E(eV) 
   0   1.0000     -11.231513      -305.6250 
   1   1.0000      -0.946563       -25.7573 
   2   1.0000      -0.579190       -15.7606 
   3   1.0000      -0.579190       -15.7606 
   4   1.0000      -0.384433       -10.4610 
   5   0.0000       0.162821         4.4306 
   6   0.0000       0.229094         6.2340 
   7   0.0000       0.229094         6.2340 
   8   0.0000       0.449488        12.2312 
   9   0.0000       0.449488        12.2312 
  10   0.0000       0.512883        13.9563 
  11   0.0000       0.576357        15.6835 
  12   0.0000       0.812893        22.1199 
  13   0.0000       0.812893        22.1199 
  14   0.0000       0.881774        23.9943 
  15   0.0000       1.273999        34.6673 
  16   0.0000       1.273999        34.6673 
  17   0.0000       1.640975        44.6532 
  18   0.0000       1.640975        44.6532 
  19   0.0000       1.663273        45.2600 
  20   0.0000       1.742957        47.4283 
  21   0.0000       1.910830        51.9963 
  22   0.0000       2.150868        58.5281 
  23   0.0000       2.150868        58.5281 
  24   0.0000       2.236758        60.8653 
  25   0.0000       2.236758        60.8653 
  26   0.0000       2.599867        70.7460 
  27   0.0000       2.722795        74.0910 
  28   0.0000       2.722795        74.0910 
  29   0.0000       2.982295        81.1524 
  30   0.0000       2.982295        81.1524 
  31   0.0000       3.004921        81.7680 
  32   0.0000       3.042637        82.7944 
  33   0.0000       4.127790       112.3229 
  34   0.0000       4.127790       112.3229 
  35   0.0000      25.061380       681.9548 

                 SPIN DOWN ORBITALS
  NO   OCC          E(Eh)            E(eV) 
   0   1.0000     -11.207717      -304.9775 
   1   1.0000      -0.854252       -23.2454 
   2   1.0000      -0.564233       -15.3536 
   3   1.0000      -0.564233       -15.3536 
   4   0.0000       0.135710         3.6929 
   5   0.0000       0.174972         4.7612 
   6   0.0000       0.234231         6.3737 
   7   0.0000       0.234231         6.3737 
   8   0.0000       0.453449        12.3390 
   9   0.0000       0.453449        12.3390 
  10   0.0000       0.558830        15.2065 
  11   0.0000       0.711665        19.3654 
  12   0.0000       0.829935        22.5837 
  13   0.0000       0.829935        22.5837 
  14   0.0000       0.918311        24.9885 
  15   0.0000       1.335268        36.3345 
  16   0.0000       1.335268        36.3345 
  17   0.0000       1.646834        44.8126 
  18   0.0000       1.646834        44.8126 
  19   0.0000       1.658410        45.1276 
  20   0.0000       1.827503        49.7289 
  21   0.0000       1.925488        52.3952 
  22   0.0000       2.148323        58.4588 
  23   0.0000       2.148323        58.4588 
  24   0.0000       2.276335        61.9422 
  25   0.0000       2.276335        61.9422 
  26   0.0000       2.600685        70.7682 
  27   0.0000       2.725382        74.1614 
  28   0.0000       2.725382        74.1614 
  29   0.0000       2.991944        81.4149 
  30   0.0000       2.991944        81.4149 
  31   0.0000       3.013763        82.0087 
  32   0.0000       3.130003        85.1717 
  33   0.0000       4.148571       112.8884 
  34   0.0000       4.148571       112.8884 
  35   0.0000      25.077499       682.3934 

                    ********************************
                    * MULLIKEN POPULATION ANALYSIS *
                    ********************************

--------------------------------------------
MULLIKEN ATOMIC CHARGES AND SPIN POPULATIONS
--------------------------------------------
   0 C :   -0.338768    1.276884
   1 H :    0.112923   -0.092295
   2 H :    0.112923   -0.092295
   3 H :    0.112923   -0.092295
Sum of atomic charges         :    0.0000000
Sum of atomic spin populations:    1.0000000

-----------------------------------------------------
MULLIKEN REDUCED ORBITAL CHARGES AND SPIN POPULATIONS
-----------------------------------------------------
CHARGE
  0 C s       :     3.277980  s :     3.277980
      pz      :     0.983160  p :     3.031788
      px      :     1.024314
      py      :     1.024314
      dz2     :     0.004758  d :     0.029000
      dxz     :     0.000000
      dyz     :     0.000000
      dx2y2   :     0.012121
      dxy     :     0.012121
  1 H s       :     0.859920  s :     0.859920
      pz      :     0.005613  p :     0.027157
      px      :     0.017373
      py      :     0.004171
  2 H s       :     0.859920  s :     0.859920
      pz      :     0.005613  p :     0.027157
      px      :     0.007471
      py      :     0.014072
  3 H s       :     0.859920  s :     0.859920
      pz      :     0.005613  p :     0.027157
      px      :     0.007471
      py      :     0.014072

SPIN
  0 C s       :     0.146483  s :     0.146483
      pz      :     0.983160  p :     1.135224
      px      :     0.076032
      py      :     0.076032
      dz2     :    -0.005741  d :    -0.004823
      dxz     :     0.000000
      dyz     :     0.000000
      dx2y2   :     0.000459
      dxy     :     0.000459
  1 H s       :    -0.097690  s :    -0.097690
      pz      :     0.005613  p :     0.005395
      px      :     0.000020
      py      :    -0.000238
  2 H s       :    -0.097690  s :    -0.097690
      pz      :     0.005613  p :     0.005395
      px      :    -0.000173
      py      :    -0.000045
  3 H s       :    -0.097690  s :    -0.097690
      pz      :     0.005613  p :     0.005395
      px      :    -0.000173
      py      :    -0.000045


                     *******************************
                     * LOEWDIN POPULATION ANALYSIS *
                     *******************************

-------------------------------------------
LOEWDIN ATOMIC CHARGES AND SPIN POPULATIONS
-------------------------------------------
   0 C :    0.034746    1.049564
   1 H :   -0.011582   -0.016521
   2 H :   -0.011582   -0.016521
   3 H :   -0.011582   -0.016521

----------------------------------------------------
LOEWDIN REDUCED ORBITAL CHARGES AND SPIN POPULATIONS
----------------------------------------------------
CHARGE
  0 C s       :     2.864295  s :     2.864295
      pz      :     0.940481  p :     3.052913
      px      :     1.056216
      py      :     1.056216
      dz2     :     0.004355  d :     0.048047
      dxz     :     0.000000
      dyz     :     0.000000
      dx2y2   :     0.021846
      dxy     :     0.021846
  1 H s       :     0.933827  s :     0.933827
      pz      :     0.019840  p :     0.077754
      px      :     0.046580
      py      :     0.011335
  2 H s       :     0.933827  s :     0.933827
      pz      :     0.019840  p :     0.077754
      px      :     0.020146
      py      :     0.037769
  3 H s       :     0.933827  s :     0.933827
      pz      :     0.019840  p :     0.077754
      px      :     0.020146
      py      :     0.037769

SPIN
  0 C s       :     0.051373  s :     0.051373
      pz      :     0.940481  p :     1.007132
      px      :     0.033325
      py      :     0.033325
      dz2     :    -0.004189  d :    -0.008941
      dxz     :     0.000000
      dyz     :     0.000000
      dx2y2   :    -0.002376
      dxy     :    -0.002376
  1 H s       :    -0.043780  s :    -0.043780
      pz      :     0.019840  p :     0.027259
      px      :     0.006611
      py      :     0.000808
  2 H s       :    -0.043780  s :    -0.043780
      pz      :     0.019840  p :     0.027259
      px      :     0.002259
      py      :     0.005160
  3 H s       :    -0.043780  s :    -0.043780
      pz      :     0.019840  p :     0.027259
      px      :     0.002259
      py      :     0.005160


                      *****************************
                      * MAYER POPULATION ANALYSIS *
                      *****************************

  NA   - Mulliken gross atomic population
  ZA   - Total nuclear charge
  QA   - Mulliken gross atomic charge
  VA   - Mayer's total valence
  BVA  - Mayer's bonded valence
  FA   - Mayer's free valence

  ATOM       NA         ZA         QA         VA         BVA        FA
  0 C      6.3388     6.0000    -0.3388     3.9182     2.9189     0.9994
  1 H      0.8871     1.0000     0.1129     0.9711     0.9616     0.0095
  2 H      0.8871     1.0000     0.1129     0.9711     0.9616     0.0095
  3 H      0.8871     1.0000     0.1129     0.9711     0.9616     0.0095

  Mayer bond orders larger than 0.1
B(  0-C ,  1-H ) :   0.9730 B(  0-C ,  2-H ) :   0.9730 B(  0-C ,  3-H ) :   0.9730 


-------
TIMINGS
-------

Total SCF time: 0 days 0 hours 0 min 1 sec 

Total time                  ....       1.584 sec
Sum of individual times     ....       0.803 sec  ( 50.7%)

Fock matrix formation       ....       0.757 sec  ( 47.8%)
Diagonalization             ....       0.005 sec  (  0.3%)
Density matrix formation    ....       0.001 sec  (  0.0%)
Population analysis         ....       0.023 sec  (  1.5%)
Initial guess               ....       0.017 sec  (  1.1%)
Orbital Transformation      ....       0.000 sec  (  0.0%)
Orbital Orthonormalization  ....       0.002 sec  (  0.1%)
DIIS solution               ....       0.000 sec  (  0.0%)


           ************************************************************
           *        Program running with 4 parallel MPI-processes     *
           *              working on a common directory               *
           ************************************************************

------------------------------------------------------------------------------
                                ORCA  MP2 
------------------------------------------------------------------------------

MP2 will be done in the AO integral direct mode
The Q1-step will be done using symmetric double matrices
Dimension of the basis                    ...   36
Memory devoted for MP2                    ...  256 MB   
Memory needed for all in one shot         ...    1 MB
Number of MOs that can be treated together... 1398      
MP2 density construction                  ... relaxed
The MP2 gradient is requested => amplitudes will be stored on disk
Total number of MOs              ...    5
Number of MOs treated per batch  ...    2 
Number of batches necessary      ...    1 
OPERATORS   0/  0 PASS   0
OPERATORS   0/  1 PASS   0
Total number of MOs              ...    5
Number of MOs treated per batch  ...    1 
Number of batches necessary      ...    1 
OPERATORS   1/  0 PASS   0
OPERATORS   1/  1 PASS   0

Correlation energy components
 E2 and T2 for alpha/alpha pairs :     -0.020452891 Eh
 E2 and T2 for beta/beta   pairs :     -0.007446850 Eh
 E2 and T2 for alpha/beta  pairs :     -0.124920464 Eh

-----------------------------------------------
 MP2 CORRELATION ENERGY   :     -0.152820206 Eh
-----------------------------------------------


---------------------
MP2 DENSITY FORMATION
---------------------

Completing the external part of the density      ... done
Storing the unrelaxed density                    ... done

Calculating G(D)                                 ... done
Completing the Lagrangian                        ... done
Solving the Z-vector equations                   ... 

------------------------------------------------------------------------------
                           ORCA CP-SCF CALCULATION
------------------------------------------------------------------------------

Input orbitals are from        ... ch3.gbw
Input Perturbation             ... ch3.pin.tmp
Wavefunction output            ... ch3.pout.tmp
Perturbation mode              ... Real perturbation (singlet)
Solver                         ... POPLE
Max. number of iterations      ... 128
Convergence tolerance          ... 1.000e-08
Integral handling              ... Direct
Number of perturbations        ... 1
Number of operators            ... 2
Orbital ranges used for CP-SCF:
 Operator 0:  Orbitals   0...  4  to   5... 35
 Operator 1:  Orbitals   0...  3  to   4... 35
Variables per vector in CP-SCF ... 283
Number of vectors sought       ... 1
     CP-SCF ITERATION   0: 
     CP-SCF ITERATION   1:      0.000043808301
     CP-SCF ITERATION   2:      0.000002899124
     CP-SCF ITERATION   3:      0.000000110613
     CP-SCF ITERATION   4:      0.000000002588
                                                 ... done
Finalizing the relaxed density                   ... done
Transforming P to the AO basis                   ... done
Storing the relaxed density                      ... done

------------------------------------
ENERGY WEIGHTED DENSITY FINALIZATION
------------------------------------

Gathering the parts of the W-matrix              ...                                                                                                           done
Forming the Z-density                            ... done
Transforming Z to the AO basis                   ... done
Calculating G(Z)                                 ... done
Finalizing the W-matrix                          ...                                                                                                           done
Transforming W to the AO basis and storing       ... done

                *********************************************
                * UNRELAXED MP2 DENSITY POPULATION ANALYSIS *
                *********************************************

------------------------------------------------------------------------------
                           ORCA POPULATION ANALYSIS
------------------------------------------------------------------------------
Input electron density              ... ch3.pmp2ur
Input spin density                  ... ch3.rmp2ur
BaseName (.gbw .S,...)              ... ch3

                    ********************************
                    * MULLIKEN POPULATION ANALYSIS *
                    ********************************

------------------------------------------
MULLIKEN ATOMIC CHARGES AND SPIN DENSITIES
------------------------------------------
   0 C :   -0.342557    1.271165
   1 H :    0.114186   -0.090388
   2 H :    0.114186   -0.090388
   3 H :    0.114186   -0.090388
Sum of atomic charges       :    0.0000000
Sum of atomic spin densities:    1.0000000

---------------------------------------------------
MULLIKEN REDUCED ORBITAL CHARGES AND SPIN DENSITIES
---------------------------------------------------
CHARGE
  0 C s       :     3.274625  s :     3.274625
      pz      :     0.981030  p :     3.023034
      px      :     1.021002
      py      :     1.021002
      dz2     :     0.007256  d :     0.044898
      dxz     :     0.003244
      dyz     :     0.003244
      dx2y2   :     0.015577
      dxy     :     0.015577
  1 H s       :     0.855669  s :     0.855669
      pz      :     0.006994  p :     0.030145
      px      :     0.017717
      py      :     0.005434
  2 H s       :     0.855669  s :     0.855669
      pz      :     0.006994  p :     0.030145
      px      :     0.008505
      py      :     0.014647
  3 H s       :     0.855669  s :     0.855669
      pz      :     0.006994  p :     0.030145
      px      :     0.008505
      py      :     0.014647

SPIN
  0 C s       :     0.147148  s :     0.147148
      pz      :     0.974894  p :     1.123977
      px      :     0.074542
      py      :     0.074542
      dz2     :    -0.003633  d :     0.000040
      dxz     :     0.001389
      dyz     :     0.001389
      dx2y2   :     0.000447
      dxy     :     0.000447
  1 H s       :    -0.095906  s :    -0.095906
      pz      :     0.005784  p :     0.005518
      px      :    -0.000004
      py      :    -0.000262
  2 H s       :    -0.095906  s :    -0.095906
      pz      :     0.005784  p :     0.005518
      px      :    -0.000197
      py      :    -0.000069
  3 H s       :    -0.095906  s :    -0.095906
      pz      :     0.005784  p :     0.005518
      px      :    -0.000197
      py      :    -0.000069


                     *******************************
                     * LOEWDIN POPULATION ANALYSIS *
                     *******************************

-----------------------------------------
LOEWDIN ATOMIC CHARGES AND SPIN DENSITIES
-----------------------------------------
   0 C :    0.032628    1.046117
   1 H :   -0.010876   -0.015372
   2 H :   -0.010876   -0.015372
   3 H :   -0.010876   -0.015372

--------------------------------------------------
LOEWDIN REDUCED ORBITAL CHARGES AND SPIN DENSITIES
--------------------------------------------------
CHARGE
  0 C s       :     2.861941  s :     2.861941
      pz      :     0.938770  p :     3.040450
      px      :     1.050840
      py      :     1.050840
      dz2     :     0.007637  d :     0.064981
      dxz     :     0.003130
      dyz     :     0.003130
      dx2y2   :     0.025542
      dxy     :     0.025542
  1 H s       :     0.927969  s :     0.927969
      pz      :     0.021157  p :     0.082907
      px      :     0.048914
      py      :     0.012836
  2 H s       :     0.927969  s :     0.927969
      pz      :     0.021157  p :     0.082907
      px      :     0.021855
      py      :     0.039895
  3 H s       :     0.927969  s :     0.927969
      pz      :     0.021157  p :     0.082907
      px      :     0.021855
      py      :     0.039895

SPIN
  0 C s       :     0.052362  s :     0.052362
      pz      :     0.932729  p :     0.997721
      px      :     0.032496
      py      :     0.032496
      dz2     :    -0.001909  d :    -0.003966
      dxz     :     0.001319
      dyz     :     0.001319
      dx2y2   :    -0.002347
      dxy     :    -0.002347
  1 H s       :    -0.042496  s :    -0.042496
      pz      :     0.019885  p :     0.027123
      px      :     0.006473
      py      :     0.000765
  2 H s       :    -0.042496  s :    -0.042496
      pz      :     0.019885  p :     0.027123
      px      :     0.002192
      py      :     0.005046
  3 H s       :    -0.042496  s :    -0.042496
      pz      :     0.019885  p :     0.027123
      px      :     0.002192
      py      :     0.005046


                      *****************************
                      * MAYER POPULATION ANALYSIS *
                      *****************************

  NA   - Mulliken gross atomic population
  ZA   - Total nuclear charge
  QA   - Mulliken gross atomic charge
  VA   - Mayer's total valence
  BVA  - Mayer's bonded valence
  FA   - Mayer's free valence

  ATOM       NA         ZA         QA         VA         BVA        FA
  0 C      6.3426     6.0000    -0.3426     4.0097     2.8188     1.1908
  1 H      0.8858     1.0000     0.1142     0.9796     0.9276     0.0520
  2 H      0.8858     1.0000     0.1142     0.9796     0.9276     0.0520
  3 H      0.8858     1.0000     0.1142     0.9796     0.9276     0.0520

  Mayer bond orders larger than 0.1
B(  0-C ,  1-H ) :   0.9396 B(  0-C ,  2-H ) :   0.9396 B(  0-C ,  3-H ) :   0.9396 



                *******************************************
                * RELAXED MP2 DENSITY POPULATION ANALYSIS *
                *******************************************

------------------------------------------------------------------------------
                           ORCA POPULATION ANALYSIS
------------------------------------------------------------------------------
Input electron density              ... ch3.pmp2re
Input spin density                  ... ch3.rmp2re
BaseName (.gbw .S,...)              ... ch3

                    ********************************
                    * MULLIKEN POPULATION ANALYSIS *
                    ********************************

------------------------------------------
MULLIKEN ATOMIC CHARGES AND SPIN DENSITIES
------------------------------------------
   0 C :   -0.366206    1.181800
   1 H :    0.122069   -0.060600
   2 H :    0.122069   -0.060600
   3 H :    0.122069   -0.060600
Sum of atomic charges       :    0.0000000
Sum of atomic spin densities:    1.0000000

---------------------------------------------------
MULLIKEN REDUCED ORBITAL CHARGES AND SPIN DENSITIES
---------------------------------------------------
CHARGE
  0 C s       :     3.281841  s :     3.281841
      pz      :     0.980329  p :     3.042678
      px      :     1.031175
      py      :     1.031175
      dz2     :     0.006534  d :     0.041687
      dxz     :     0.003244
      dyz     :     0.003244
      dx2y2   :     0.014332
      dxy     :     0.014332
  1 H s       :     0.849314  s :     0.849314
      pz      :     0.007228  p :     0.028617
      px      :     0.015567
      py      :     0.005823
  2 H s       :     0.849314  s :     0.849314
      pz      :     0.007228  p :     0.028617
      px      :     0.008259
      py      :     0.013131
  3 H s       :     0.849314  s :     0.849314
      pz      :     0.007228  p :     0.028617
      px      :     0.008259
      py      :     0.013131

SPIN
  0 C s       :     0.107498  s :     0.107498
      pz      :     0.974192  p :     1.072527
      px      :     0.049167
      py      :     0.049167
      dz2     :    -0.002511  d :     0.001775
      dxz     :     0.001389
      dyz     :     0.001389
      dx2y2   :     0.000754
      dxy     :     0.000754
  1 H s       :    -0.066117  s :    -0.066117
      pz      :     0.006018  p :     0.005517
      px      :    -0.000212
      py      :    -0.000289
  2 H s       :    -0.066117  s :    -0.066117
      pz      :     0.006018  p :     0.005517
      px      :    -0.000270
      py      :    -0.000231
  3 H s       :    -0.066117  s :    -0.066117
      pz      :     0.006018  p :     0.005517
      px      :    -0.000270
      py      :    -0.000231


                     *******************************
                     * LOEWDIN POPULATION ANALYSIS *
                     *******************************

-----------------------------------------
LOEWDIN ATOMIC CHARGES AND SPIN DENSITIES
-----------------------------------------
   0 C :    0.020732    1.010364
   1 H :   -0.006911   -0.003455
   2 H :   -0.006911   -0.003455
   3 H :   -0.006911   -0.003455

--------------------------------------------------
LOEWDIN REDUCED ORBITAL CHARGES AND SPIN DENSITIES
--------------------------------------------------
CHARGE
  0 C s       :     2.865638  s :     2.865638
      pz      :     0.938280  p :     3.053077
      px      :     1.057399
      py      :     1.057399
      dz2     :     0.006677  d :     0.060553
      dxz     :     0.003130
      dyz     :     0.003130
      dx2y2   :     0.023808
      dxy     :     0.023808
  1 H s       :     0.924259  s :     0.924259
      pz      :     0.021320  p :     0.082651
      px      :     0.048013
      py      :     0.013318
  2 H s       :     0.924259  s :     0.924259
      pz      :     0.021320  p :     0.082651
      px      :     0.021992
      py      :     0.039339
  3 H s       :     0.924259  s :     0.924259
      pz      :     0.021320  p :     0.082651
      px      :     0.021992
      py      :     0.039339

SPIN
  0 C s       :     0.038113  s :     0.038113
      pz      :     0.932239  p :     0.972685
      px      :     0.020223
      py      :     0.020223
      dz2     :    -0.000803  d :    -0.000433
      dxz     :     0.001319
      dyz     :     0.001319
      dx2y2   :    -0.001134
      dxy     :    -0.001134
  1 H s       :    -0.028152  s :    -0.028152
      pz      :     0.020048  p :     0.024698
      px      :     0.004260
      py      :     0.000389
  2 H s       :    -0.028152  s :    -0.028152
      pz      :     0.020048  p :     0.024698
      px      :     0.001357
      py      :     0.003292
  3 H s       :    -0.028152  s :    -0.028152
      pz      :     0.020048  p :     0.024698
      px      :     0.001357
      py      :     0.003292


                      *****************************
                      * MAYER POPULATION ANALYSIS *
                      *****************************

  NA   - Mulliken gross atomic population
  ZA   - Total nuclear charge
  QA   - Mulliken gross atomic charge
  VA   - Mayer's total valence
  BVA  - Mayer's bonded valence
  FA   - Mayer's free valence

  ATOM       NA         ZA         QA         VA         BVA        FA
  0 C      6.3662     6.0000    -0.3662     4.0035     2.8314     1.1722
  1 H      0.8779     1.0000     0.1221     0.9787     0.9321     0.0466
  2 H      0.8779     1.0000     0.1221     0.9787     0.9321     0.0466
  3 H      0.8779     1.0000     0.1221     0.9787     0.9321     0.0466

  Mayer bond orders larger than 0.1
B(  0-C ,  1-H ) :   0.9438 B(  0-C ,  2-H ) :   0.9438 B(  0-C ,  3-H ) :   0.9438 



----------------------------------
MP2 DERIVATIVE INTEGRAL GENERATION
----------------------------------


Input Wavefunction Amplitudes       ... ch3.mp2tbb.tmp
Input Correlated Electron Density   ... ch3.pmp2re
Input Energy Weighted Density       ... ch3.wmp2.tmp
Input SCF Electron Density          ... ch3.scfp.tmp

One-Electron Terms    ...
                        ... One-Electron Terms done
Prescreening matrices              ... done

Batch handling in the gradient evaluation:
Memory available                      ...  256.0 MB
Memory per occupied orbital in Q2     ...    0.1 MB
Memory per occupied orbital in Q3     ...    0.0 MB
Total memory requirement per |i>      ...    0.1 MB
Max. Number of orbitals possible      ...   2670
Number of orbitals treated per batch  ...      9
Number of batches to be done          ...      1
Batch   0: i=    0 ...     8

---------------------------------------
MP2 TOTAL ENERGY:      -39.725672657 Eh
---------------------------------------

-----------------------------------
NORM OF THE MP2 GRADIENT:  0.000000
-----------------------------------

-------------------------   --------------------
FINAL SINGLE POINT ENERGY       -39.725672656672
-------------------------   --------------------

                                *** OPTIMIZATION RUN DONE ***

                            ***************************************
                            *     ORCA property calculations      *
                            ***************************************

                                    ---------------------
                                    Active property flags
                                    ---------------------
   (+) Dipole Moment


------------------------------------------------------------------------------
                       ORCA ELECTRIC PROPERTIES CALCULATION
------------------------------------------------------------------------------

Dipole Moment Calculation                       ... on
Quadrupole Moment Calculation                   ... off
Polarizability Calculation                      ... off
GBWName                                         ... ch3.gbw
Electron density file                           ... ch3.scfp.tmp
The origin for moment calculation is the CENTER OF MASS  = (-0.000000, -0.000000  0.000000)

-------------
DIPOLE MOMENT
-------------
                                X             Y             Z
Electronic contribution:     -0.00000      -0.00000       0.00000
Nuclear contribution   :      0.00000       0.00000      -0.00000
                        -----------------------------------------
Total Dipole Moment    :     -0.00000       0.00000      -0.00000
                        -----------------------------------------
Magnitude (a.u.)       :      0.00000
Magnitude (Debye)      :      0.00000



--------------------
Rotational spectrum 
--------------------
 
Rotational constants in cm-1:     9.579420     9.579420     4.789710 
Rotational constants in MHz : 287183.773921 287183.773535 143591.886864 

 Dipole components along the rotational axes: 
x,y,z [a.u.] :    -0.000000     0.000000    -0.000000 
x,y,z [Debye]:    -0.000000     0.000000    -0.000000 

 

                         *** MP2 UNRELAXED DENSITY ***

------------------------------------------------------------------------------
                       ORCA ELECTRIC PROPERTIES CALCULATION
------------------------------------------------------------------------------

Dipole Moment Calculation                       ... on
Quadrupole Moment Calculation                   ... off
Polarizability Calculation                      ... off
GBWName                                         ... ch3.gbw
Electron density file                           ... ch3.pmp2ur
The origin for moment calculation is the CENTER OF MASS  = (-0.000000, -0.000000  0.000000)

-------------
DIPOLE MOMENT
-------------
                                X             Y             Z
Electronic contribution:     -0.00000      -0.00000       0.00000
Nuclear contribution   :      0.00000       0.00000      -0.00000
                        -----------------------------------------
Total Dipole Moment    :     -0.00000       0.00000      -0.00000
                        -----------------------------------------
Magnitude (a.u.)       :      0.00000
Magnitude (Debye)      :      0.00000



--------------------
Rotational spectrum 
--------------------
 
Rotational constants in cm-1:     9.579420     9.579420     4.789710 
Rotational constants in MHz : 287183.773921 287183.773535 143591.886864 

 Dipole components along the rotational axes: 
x,y,z [a.u.] :    -0.000000     0.000000    -0.000000 
x,y,z [Debye]:    -0.000000     0.000000    -0.000000 

 

                           *** MP2 RELAXED DENSITY ***

------------------------------------------------------------------------------
                       ORCA ELECTRIC PROPERTIES CALCULATION
------------------------------------------------------------------------------

Dipole Moment Calculation                       ... on
Quadrupole Moment Calculation                   ... off
Polarizability Calculation                      ... off
GBWName                                         ... ch3.gbw
Electron density file                           ... ch3.pmp2re
The origin for moment calculation is the CENTER OF MASS  = (-0.000000, -0.000000  0.000000)

-------------
DIPOLE MOMENT
-------------
                                X             Y             Z
Electronic contribution:     -0.00000      -0.00000       0.00000
Nuclear contribution   :      0.00000       0.00000      -0.00000
                        -----------------------------------------
Total Dipole Moment    :     -0.00000       0.00000      -0.00000
                        -----------------------------------------
Magnitude (a.u.)       :      0.00000
Magnitude (Debye)      :      0.00000



--------------------
Rotational spectrum 
--------------------
 
Rotational constants in cm-1:     9.579420     9.579420     4.789710 
Rotational constants in MHz : 287183.773921 287183.773535 143591.886864 

 Dipole components along the rotational axes: 
x,y,z [a.u.] :    -0.000000     0.000000    -0.000000 
x,y,z [Debye]:    -0.000000     0.000000    -0.000000 

 
------------------------------------------------------------------------------
                         ORCA MP2 H E S S I A N CALCULATION
------------------------------------------------------------------------------

Calculating analytic MP2 second derivatives ... (>ch3.last_mp2) done

-----------------------
VIBRATIONAL FREQUENCIES
-----------------------

Scaling factor for frequencies =  1.000000000  (already applied!)

   0:         0.00 cm**-1
   1:         0.00 cm**-1
   2:         0.00 cm**-1
   3:         0.00 cm**-1
   4:         0.00 cm**-1
   5:         0.00 cm**-1
   6:       423.01 cm**-1
   7:      1446.44 cm**-1
   8:      1446.45 cm**-1
   9:      3178.97 cm**-1
  10:      3371.80 cm**-1
  11:      3371.81 cm**-1


------------
NORMAL MODES
------------

These modes are the Cartesian displacements weighted by the diagonal matrix
M(i,i)=1/sqrt(m[i]) where m[i] is the mass of the displaced atom
Thus, these vectors are normalized but *not* orthogonal

                  0          1          2          3          4          5    
      0       0.000000   0.000000   0.000000   0.000000   0.000000   0.000000
      1       0.000000   0.000000   0.000000   0.000000   0.000000   0.000000
      2       0.000000   0.000000   0.000000   0.000000   0.000000   0.000000
      3       0.000000   0.000000   0.000000   0.000000   0.000000   0.000000
      4       0.000000   0.000000   0.000000   0.000000   0.000000   0.000000
      5       0.000000   0.000000   0.000000   0.000000   0.000000   0.000000
      6       0.000000   0.000000   0.000000   0.000000   0.000000   0.000000
      7       0.000000   0.000000   0.000000   0.000000   0.000000   0.000000
      8       0.000000   0.000000   0.000000   0.000000   0.000000   0.000000
      9       0.000000   0.000000   0.000000   0.000000   0.000000   0.000000
     10       0.000000   0.000000   0.000000   0.000000   0.000000   0.000000
     11       0.000000   0.000000   0.000000   0.000000   0.000000   0.000000
                  6          7          8          9         10         11    
      0      -0.000000  -0.092531   0.000000   0.000004   0.000000   0.100206
      1       0.000000   0.000000   0.092529   0.000000   0.100208  -0.000000
      2      -0.143847   0.000000   0.000000   0.000000  -0.000000   0.000000
      3       0.000000  -0.074525   0.000000   0.577316  -0.000002  -0.812252
      4      -0.000000  -0.000001  -0.809569  -0.000000   0.016195  -0.000000
      5       0.571346  -0.000000  -0.000000  -0.000000   0.000000   0.000000
      6      -0.000000   0.588545  -0.382832  -0.288684   0.358716  -0.190886
      7       0.000000   0.382826  -0.146487   0.500014  -0.605119   0.358702
      8       0.571346   0.000000  -0.000000  -0.000000   0.000000  -0.000000
      9      -0.000000   0.588546   0.382831  -0.288684  -0.358717  -0.190884
     10      -0.000000  -0.382826  -0.146486  -0.500014  -0.605121  -0.358698
     11       0.571346   0.000000  -0.000000  -0.000000  -0.000000  -0.000000


-----------
IR SPECTRUM
-----------

 Mode    freq (cm**-1)   T**2         TX         TY         TZ
-------------------------------------------------------------------
   6:       423.01   82.604306  (  0.000000   0.000000   9.088691)
   7:      1446.44    3.031866  (  1.741225  -0.000002  -0.000000)
   8:      1446.45    3.020919  ( -0.000002  -1.738079  -0.000000)
   9:      3178.97    0.000000  ( -0.000429   0.000000  -0.000000)
  10:      3371.80    4.116742  (  0.000005   2.028976  -0.000000)
  11:      3371.81    4.120669  (  2.029943  -0.000005  -0.000000)

The first frequency considered to be a vibration is 6
The total number of vibrations considered is 6


--------------------------
THERMOCHEMISTRY AT 298.15K
--------------------------

Temperature         ... 298.15 K
Pressure            ... 1.00 atm
Total Mass          ... 15.03 AMU

Throughout the following assumptions are being made:
  (1) The electronic state is orbitally nondegenerate
      but the spin degeneracy is treated
  (2) There are no thermally accessible electronically excited states
  (3) Hindered rotations indicated by low frequency modes are not
      treated as such but are treated as vibrations and this may
      cause some error
  (4) All equations used are the standard statistical mechanics
      equations for an ideal gas
  (5) All vibrations are strictly harmonic

freq.     423.01  E(vib)   ...       0.18 
freq.    1446.44  E(vib)   ...       0.00 
freq.    1446.45  E(vib)   ...       0.00 
freq.    3178.97  E(vib)   ...       0.00 
freq.    3371.80  E(vib)   ...       0.00 
freq.    3371.81  E(vib)   ...       0.00 

------------
INNER ENERGY
------------

The inner energy is: U= E(el) + E(ZPE) + E(vib) + E(rot) + E(trans)
    E(el)   - is the total energy from the electronic structure calculation
              = E(kin-el) + E(nuc-el) + E(el-el) + E(nuc-nuc)
    E(ZPE)  - the the zero temperature vibrational energy from the frequency calculation
    E(vib)  - the the finite temperature correction to E(ZPE) due to population
              of excited vibrational states
    E(rot)  - is the rotational thermal energy
    E(trans)- is the translational thermal energy

Summary of contributions to the inner energy U:
Electronic energy                ...    -39.72567266 Eh
Zero point energy                ...      0.03015947 Eh      18.93 kcal/mol
Thermal vibrational correction   ...      0.00029994 Eh       0.19 kcal/mol
Thermal rotational correction    ...      0.00141627 Eh       0.89 kcal/mol
Thermal translational correction ...      0.00141627 Eh       0.89 kcal/mol
-----------------------------------------------------------------------
Total thermal energy                    -39.69238070 Eh


Summary of corrections to the electronic energy:
(perhaps to be used in another calculation)
Total thermal correction                  0.00313248 Eh       1.97 kcal/mol
Non-thermal (ZPE) correction              0.03015947 Eh      18.93 kcal/mol
-----------------------------------------------------------------------
Total correction                          0.03329195 Eh      20.89 kcal/mol


--------
ENTHALPY
--------

The enthalpy is H = U + kB*T
                kB is Boltzmann's constant
Total free energy                 ...    -39.69238070 Eh 
Thermal Enthalpy correction       ...      0.00094421 Eh       0.59 kcal/mol
-----------------------------------------------------------------------
Total Enthalpy                    ...    -39.69143649 Eh


Note: Rotational entropy computed according to Herzberg 
Infrared and Raman Spectra, Chapter V,1, Van Nostrand Reinhold, 1945 
Point Group:  D3h, Symmetry Number:   6  
Rotational constants in cm-1:     9.579420     9.579420     4.789710 

Vibrational entropy computed according to the QRRHO of S. Grimme
Chem.Eur.J. 2012 18 9955


-------
ENTROPY
-------

The entropy contributions are T*S = T*(S(el)+S(vib)+S(rot)+S(trans))
     S(el)   - electronic entropy
     S(vib)  - vibrational entropy
     S(rot)  - rotational entropy
     S(trans)- translational entropy
The entropies will be listed as mutliplied by the temperature to get
units of energy

Electronic entropy                ...      0.00065446 Eh      0.41 kcal/mol
Vibrational entropy               ...      0.00043384 Eh      0.27 kcal/mol
Rotational entropy                ...      0.00494606 Eh      3.10 kcal/mol
Translational entropy             ...      0.01618771 Eh     10.16 kcal/mol
-----------------------------------------------------------------------
Final entropy term                ...      0.02222206 Eh     13.94 kcal/mol


-------------------
GIBBS FREE ENTHALPY
-------------------

The Gibbs free enthalpy is G = H - T*S

Total enthalpy                    ...    -39.69143649 Eh 
Total entropy correction          ...     -0.02222206 Eh    -13.94 kcal/mol
-----------------------------------------------------------------------
Final Gibbs free enthalpy         ...    -39.71365855 Eh

For completeness - the Gibbs free enthalpy minus the electronic energy
G-E(el)                           ...      0.01201410 Eh      7.54 kcal/mol


Timings for individual modules:

Sum of individual times         ...       57.864 sec (=   0.964 min)
GTO integral calculation        ...        3.020 sec (=   0.050 min)   5.2 %
SCF iterations                  ...        9.174 sec (=   0.153 min)  15.9 %
MP2 module                      ...        9.046 sec (=   0.151 min)  15.6 %
Geometry relaxation             ...        0.143 sec (=   0.002 min)   0.2 %
Analytical frequency calculation...       36.480 sec (=   0.608 min)  63.0 %
                             ****ORCA TERMINATED NORMALLY****
TOTAL RUN TIME: 0 days 0 hours 0 minutes 59 seconds 259 msec
