
                                 *****************
                                 * O   R   C   A *
                                 *****************

           --- An Ab Initio, DFT and Semiempirical electronic structure package ---

                  #######################################################
                  #                        -***-                        #
                  #          Department of theory and spectroscopy      #
                  #               Directorship: Frank Neese             #
                  #        Max Planck Institute fuer Kohlenforschung    #
                  #                Kaiser Wilhelm Platz 1               #
                  #                 D-45470 Muelheim/Ruhr               #
                  #                      Germany                        #
                  #                                                     #
                  #                  All rights reserved                #
                  #                        -***-                        #
                  #######################################################


                         Program Version 4.2.1 -  RELEASE  -


 With contributions from (in alphabetic order):
   Daniel Aravena         : Magnetic Suceptibility
   Michael Atanasov       : Ab Initio Ligand Field Theory (pilot matlab implementation)
   Alexander A. Auer      : GIAO ZORA, VPT2
   Ute Becker             : Parallelization
   Giovanni Bistoni       : ED, misc. LED, open-shell LED, HFLD
   Martin Brehm           : Molecular dynamics
   Dmytro Bykov           : SCF Hessian
   Vijay G. Chilkuri      : MRCI spin determinant printing, contributions to CSF-ICE
   Dipayan Datta          : RHF DLPNO-CCSD density
   Achintya Kumar Dutta   : EOM-CC, STEOM-CC
   Dmitry Ganyushin       : Spin-Orbit,Spin-Spin,Magnetic field MRCI
   Miquel Garcia          : C-PCM Hessian, Gaussian charge scheme
   Yang Guo               : DLPNO-NEVPT2, CIM, IAO-localization
   Andreas Hansen         : Spin unrestricted coupled pair/coupled cluster methods
   Benjamin Helmich-Paris : CASSCF linear response (MC-RPA)
   Lee Huntington         : MR-EOM, pCC
   Robert Izsak           : Overlap fitted RIJCOSX, COSX-SCS-MP3, EOM
   Christian Kollmar      : KDIIS, OOCD, Brueckner-CCSD(T), CCSD density
   Simone Kossmann        : Meta GGA functionals, TD-DFT gradient, OOMP2, MP2 Hessian
   Martin Krupicka        : AUTO-CI
   Lucas Lang             : DCDCAS
   Dagmar Lenk            : GEPOL surface, SMD
   Dimitrios Liakos       : Extrapolation schemes; Compound Job, initial MDCI parallelization
   Dimitrios Manganas     : Further ROCIS development; embedding schemes
   Dimitrios Pantazis     : SARC Basis sets
   Taras Petrenko         : DFT Hessian,TD-DFT gradient, ASA, ECA, R-Raman, ABS, FL, XAS/XES, NRVS
   Peter Pinski           : DLPNO-MP2, DLPNO-MP2 Gradient
   Christoph Reimann      : Effective Core Potentials
   Marius Retegan         : Local ZFS, SOC
   Christoph Riplinger    : Optimizer, TS searches, QM/MM, DLPNO-CCSD(T), (RO)-DLPNO pert. Triples
   Tobias Risthaus        : Range-separated hybrids, TD-DFT gradient, RPA, STAB
   Michael Roemelt        : Original ROCIS implementation
   Masaaki Saitow         : Open-shell DLPNO-CCSD energy and density
   Barbara Sandhoefer     : DKH picture change effects
   Avijit Sen             : IP-ROCIS
   Kantharuban Sivalingam : CASSCF convergence, NEVPT2, FIC-MRCI
   Bernardo de Souza      : ESD, SOC TD-DFT
   Georgi Stoychev        : AutoAux, RI-MP2 NMR
   Willem Van den Heuvel  : Paramagnetic NMR
   Boris Wezisla          : Elementary symmetry handling
   Frank Wennmohs         : Technical directorship


 We gratefully acknowledge several colleagues who have allowed us to
 interface, adapt or use parts of their codes:
   Stefan Grimme, W. Hujo, H. Kruse,             : VdW corrections, initial TS optimization,
                  C. Bannwarth                     DFT functionals, gCP, sTDA/sTD-DF
   Ed Valeev, F. Pavosevic, A. Kumar             : LibInt (2-el integral package), F12 methods
   Garnet Chan, S. Sharma, J. Yang, R. Olivares  : DMRG
   Ulf Ekstrom                                   : XCFun DFT Library
   Mihaly Kallay                                 : mrcc  (arbitrary order and MRCC methods)
   Andreas Klamt, Michael Diedenhofen            : otool_cosmo (COSMO solvation model)
   Jiri Pittner, Ondrej Demel                    : Mk-CCSD
   Frank Weinhold                                : gennbo (NPA and NBO analysis)
   Christopher J. Cramer and Donald G. Truhlar   : smd solvation model
   Lars Goerigk                                  : TD-DFT with DH, B97 family of functionals
   V. Asgeirsson, H. Jonsson                     : NEB implementation
   FAccTs GmbH                                   : IRC, NEB, NEB-TS, Multilevel, MM, QM/MM, CI optimization
   S Lehtola, MJT Oliveira, MAL Marques          : LibXC Library


 Your calculation uses the libint2 library for the computation of 2-el integrals
 For citations please refer to: http://libint.valeyev.net

 Your ORCA version has been built with support for libXC version: 4.2.3
 For citations please refer to: https://tddft.org/programs/libxc/

 This ORCA versions uses:
   CBLAS   interface :  Fast vector & matrix operations
   LAPACKE interface :  Fast linear algebra routines
   SCALAPACK package :  Parallel linear algebra routines


Your calculation utilizes the geometrical counterpoise correction gCP
Please cite in your paper:
H.Kruse, S. Grimme J.Chem.Phys., 136, (2012), 154101 
   

Your calculation utilizes the atom-pairwise dispersion correction
based on tight binding partial charges (D4)
Cite in your paper:
E.Caldeweyher, C.Bannwarth, S.Grimme, J.Chem.Phys., (2017), 147, 034112.
E.Caldeweyher, S.Ehlert, A.Hansen, H.Neugebauer, S.Grimme, J.Chem.Phys., (2018), in progress.
   

----- Orbital basis set information -----
Your calculation utilizes the basis: def2-SVP
   F. Weigend and R. Ahlrichs, Phys. Chem. Chem. Phys. 7, 3297 (2005).

----- AuxJ basis set information -----
Your calculation utilizes the auxiliary basis: def2/J
   F. Weigend, Phys. Chem. Chem. Phys. 8, 1057 (2006).

================================================================================
                                        WARNINGS
                       Please study these warnings very carefully!
================================================================================


WARNING: Geometry Optimization
  ===> : Switching off AutoStart
         For restart on a previous wavefunction, please use MOREAD

INFO   : the flag for use of LIBINT has been found!

================================================================================
                                       INPUT FILE
================================================================================
NAME = CO2.inp
|  1> ! revPBE D4 gCP(DFT/SVP) def2-SVP Opt Freq TightOpt TightSCF Grid4 FinalGrid5 LargePrint
|  2> 
|  3> %pal
|  4>  nprocs 4
|  5> end
|  6> 
|  7> *xyz 0 1
|  8>   C     -0.392612   -0.269192   -2.038021
|  9>   O      0.554218    0.307222   -1.642172
| 10>   O     -1.339461   -0.845762   -2.433591
| 11> *
| 12> 
| 13>                          ****END OF INPUT****
================================================================================

                       *****************************
                       * Geometry Optimization Run *
                       *****************************

Geometry optimization settings:
Update method            Update   .... BFGS
Choice of coordinates    CoordSys .... Z-matrix Internals
Initial Hessian          InHess   .... Almoef's Model

Convergence Tolerances:
Energy Change            TolE     ....  1.0000e-06 Eh
Max. Gradient            TolMAXG  ....  1.0000e-04 Eh/bohr
RMS Gradient             TolRMSG  ....  3.0000e-05 Eh/bohr
Max. Displacement        TolMAXD  ....  1.0000e-03 bohr
RMS Displacement         TolRMSD  ....  6.0000e-04 bohr
Strict Convergence                ....  False
------------------------------------------------------------------------------
                        ORCA OPTIMIZATION COORDINATE SETUP
------------------------------------------------------------------------------

The optimization will be done in new redundant internal coordinates
Making redundant internal coordinates   ...  (new redundants) done
Evaluating the initial hessian          ...  (Almloef) done
Evaluating the coordinates              ...  done
Calculating the B-matrix                .... done
Calculating the G-matrix                .... done
Diagonalizing the G-matrix              .... done
The first mode is                       ....    0
The number of degrees of freedom        ....    4

    -----------------------------------------------------------------
                    Redundant Internal Coordinates


    -----------------------------------------------------------------
         Definition                    Initial Value    Approx d2E/dq
    -----------------------------------------------------------------
      1. B(O   1,C   0)                  1.1770         1.223575   
      2. B(O   2,C   0)                  1.1770         1.223584   
      3. L(O   1,C   0,O   2, 2)       179.9852         0.550714   
      4. L(O   1,C   0,O   2, 1)       179.9936         0.550714   
    -----------------------------------------------------------------

Number of atoms                         .... 3
Number of degrees of freedom            .... 4

         *************************************************************
         *                GEOMETRY OPTIMIZATION CYCLE   1            *
         *************************************************************
---------------------------------
CARTESIAN COORDINATES (ANGSTROEM)
---------------------------------
  C     -0.392612   -0.269192   -2.038021
  O      0.554218    0.307222   -1.642172
  O     -1.339461   -0.845762   -2.433591

----------------------------
CARTESIAN COORDINATES (A.U.)
----------------------------
  NO LB      ZA    FRAG     MASS         X           Y           Z
   0 C     6.0000    0    12.011   -0.741929   -0.508699   -3.851302
   1 O     8.0000    0    15.999    1.047320    0.580565   -3.103255
   2 O     8.0000    0    15.999   -2.531214   -1.598259   -4.598821

--------------------------------
INTERNAL COORDINATES (ANGSTROEM)
--------------------------------
 C      0   0   0     0.000000000000     0.00000000     0.00000000
 O      1   0   0     1.177045699664     0.00000000     0.00000000
 O      1   2   0     1.177043592481   179.98441299     0.00000000

---------------------------
INTERNAL COORDINATES (A.U.)
---------------------------
 C      0   0   0     0.000000000000     0.00000000     0.00000000
 O      1   0   0     2.224294019474     0.00000000     0.00000000
 O      1   2   0     2.224290037476   179.98441299     0.00000000

---------------------
BASIS SET INFORMATION
---------------------
There are 2 groups of distinct atoms

 Group   1 Type C   : 7s4p1d contracted to 3s2p1d pattern {511/31/1}
 Group   2 Type O   : 7s4p1d contracted to 3s2p1d pattern {511/31/1}

Atom   0C    basis set group =>   1
Atom   1O    basis set group =>   2
Atom   2O    basis set group =>   2

-------------------------
BASIS SET IN INPUT FORMAT
-------------------------

 # Basis set for element : C 
 NewGTO C 
 S 5 
   1    1238.4016938000      0.0055173650
   2     186.2900499200      0.0410888285
   3      42.2511763460      0.1822538213
   4      11.6765579320      0.4682845944
   5       3.5930506482      0.4457581734
 S 1 
   1       0.4024514736      1.0000000000
 S 1 
   1       0.1309018267      1.0000000000
 P 3 
   1       9.4680970621      0.0568883320
   2       2.0103545142      0.3129405934
   3       0.5477100471      0.7606501651
 P 1 
   1       0.1526861379      1.0000000000
 D 1 
   1       0.8000000000      1.0000000000
  end;

 # Basis set for element : O 
 NewGTO O 
 S 5 
   1    2266.1767785000     -0.0053893504
   2     340.8701019100     -0.0402347214
   3      77.3631351670     -0.1800818421
   4      21.4796449400     -0.4682885766
   5       6.6589433124     -0.4469261716
 S 1 
   1       0.8097597567      1.0000000000
 S 1 
   1       0.2553077223      1.0000000000
 P 3 
   1      17.7215043170      0.0626302488
   2       3.8635505440      0.3333113849
   3       1.0480920883      0.7414863830
 P 1 
   1       0.2764154441      1.0000000000
 D 1 
   1       1.2000000000      1.0000000000
  end;

---------------------------------
AUXILIARY/J BASIS SET INFORMATION
---------------------------------
There are 2 groups of distinct atoms

 Group   1 Type C   : 12s5p4d2f1g contracted to 6s4p3d1f1g pattern {711111/2111/211/2/1}
 Group   2 Type O   : 12s5p4d2f1g contracted to 6s4p3d1f1g pattern {711111/2111/211/2/1}

Atom   0C    basis set group =>   1
Atom   1O    basis set group =>   2
Atom   2O    basis set group =>   2

-------------------------------------
AUXILIARY/J BASIS SET IN INPUT FORMAT
-------------------------------------

 # Auxiliary/J basis set for element : C 
 NewAuxJGTO C 
 S 7 
   1    1861.0916331000      0.0134602335
   2     642.9939764000      0.0299160374
   3     235.1105725000      0.1008649584
   4      90.7028894000      0.2370970548
   5      36.7794552000      0.3924037254
   6      15.6046273000      0.3195862154
   7       6.8907294000      0.0530104441
 S 1 
   1       3.1478850000     -1.0000000000
 S 1 
   1       1.4777287000      1.0000000000
 S 1 
   1       0.7076466000      1.0000000000
 S 1 
   1       0.3430122000      1.0000000000
 S 1 
   1       0.1669453000      1.0000000000
 P 2 
   1      13.5472892000     -0.6769313712
   2       5.4669419000     -0.3779500978
 P 1 
   1       2.1751721000      1.0000000000
 P 1 
   1       0.8582194000      1.0000000000
 P 1 
   1       0.3376720000      1.0000000000
 D 2 
   1       5.9287253000     -0.3533329857
   2       1.9809209000     -0.7456525731
 D 1 
   1       0.8055417000     -1.0000000000
 D 1 
   1       0.3531244000     -1.0000000000
 F 2 
   1       1.6755626000      0.6311076882
   2       0.5997536000      0.4968166032
 G 1 
   1       1.0024600000     -1.0000000000
  end;

 # Auxiliary/J basis set for element : O 
 NewAuxJGTO O 
 S 7 
   1    2876.8216605000      0.0168151159
   2    1004.7443032000      0.0340137548
   3     369.7579954000      0.1194951309
   4     142.9442404000      0.2664627624
   5      57.8366425000      0.4202764046
   6      24.3864983000      0.2765077335
   7      10.6622662000      0.0057008815
 S 1 
   1       4.8070437000     -1.0000000000
 S 1 
   1       2.2210770000      1.0000000000
 S 1 
   1       1.0447795000      1.0000000000
 S 1 
   1       0.4968425000      1.0000000000
 S 1 
   1       0.2371384000      1.0000000000
 P 2 
   1      64.2613382000     -0.2731534179
   2      16.3006076000     -0.8168011598
 P 1 
   1       4.3550542000      1.0000000000
 P 1 
   1       1.2019554000      1.0000000000
 P 1 
   1       0.3354196000      1.0000000000
 D 2 
   1       9.2146611000     -0.4661230638
   2       2.8435251000     -0.6600908911
 D 1 
   1       0.9955759000     -1.0000000000
 D 1 
   1       0.3649441000     -1.0000000000
 F 2 
   1       2.6420115000      0.5931563945
   2       0.7345613000      0.5931563945
 G 1 
   1       1.3931000000     -1.0000000000
  end;



           ************************************************************
           *        Program running with 4 parallel MPI-processes     *
           *              working on a common directory               *
           ************************************************************
------------------------------------------------------------------------------
                           ORCA GTO INTEGRAL CALCULATION
                           -- RI-GTO INTEGRALS CHOSEN --
------------------------------------------------------------------------------

                         BASIS SET STATISTICS AND STARTUP INFO

Gaussian basis set:
 # of primitive gaussian shells          ...   36
 # of primitive gaussian functions       ...   72
 # of contracted shells                  ...   18
 # of contracted basis functions         ...   42
 Highest angular momentum                ...    2
 Maximum contraction depth               ...    5
Auxiliary gaussian basis set:
 # of primitive gaussian shells          ...   72
 # of primitive gaussian functions       ...  210
 # of contracted shells                  ...   45
 # of contracted aux-basis functions     ...  147
 Highest angular momentum                ...    4
 Maximum contraction depth               ...    7
Ratio of auxiliary to basis functions    ...  3.50
Integral package used                  ... LIBINT
 One Electron integrals                  ... done
 Ordering auxiliary basis shells         ... done
 Integral threshhold             Thresh  ...  2.500e-11
 Primitive cut-off               TCut    ...  2.500e-12
 Pre-screening matrix                    ... done
 Shell pair data                         ... 
 Ordering of the shell pairs             ... done (   0.000 sec) 170 of 171 pairs
 Determination of significant pairs      ... done (   0.000 sec)
 Creation of shell pair data             ... done (   0.000 sec)
 Storage of shell pair data              ... done (   0.052 sec)
 Shell pair data done in (   0.052 sec)
 Computing two index integrals           ... done
 Cholesky decomposition of the V-matrix  ... done


Timings:
 Total evaluation time                   ...   0.278 sec (  0.005 min)
 One electron matrix time                ...   0.021 sec (  0.000 min) =  7.7%
 Schwartz matrix evaluation time         ...   0.185 sec (  0.003 min) = 66.6%
 Two index repulsion integral time       ...   0.001 sec (  0.000 min) =  0.4%
 Cholesky decomposition of V             ...   0.001 sec (  0.000 min) =  0.4%
 Three index repulsion integral time     ...   0.000 sec (  0.000 min) =  0.0%



           ************************************************************
           *        Program running with 4 parallel MPI-processes     *
           *              working on a common directory               *
           ************************************************************
-------------------------------------------------------------------------------
                                 ORCA SCF
-------------------------------------------------------------------------------

------------
SCF SETTINGS
------------
Hamiltonian:
 Density Functional     Method          .... DFT(GTOs)
 Exchange Functional    Exchange        .... PBE
   PBE kappa parameter   XKappa         ....  1.245000
   PBE mue parameter    XMuePBE         ....  0.219520
 Correlation Functional Correlation     .... PBE
   PBE beta parameter  CBetaPBE         ....  0.066725
 LDA part of GGA corr.  LDAOpt          .... PW91-LDA
 Gradients option       PostSCFGGA      .... off
   Density functional embedding theory  .... OFF
   NL short-range parameter             ....  3.700000
 RI-approximation to the Coulomb term is turned on
   Number of auxiliary basis functions  .... 147


General Settings:
 Integral files         IntName         .... CO2
 Hartree-Fock type      HFTyp           .... RHF
 Total Charge           Charge          ....    0
 Multiplicity           Mult            ....    1
 Number of Electrons    NEL             ....   22
 Basis Dimension        Dim             ....   42
 Nuclear Repulsion      ENuc            ....     57.5464006783 Eh

Convergence Acceleration:
 DIIS                   CNVDIIS         .... on
   Start iteration      DIISMaxIt       ....    12
   Startup error        DIISStart       ....  0.200000
   # of expansion vecs  DIISMaxEq       ....     5
   Bias factor          DIISBfac        ....   1.050
   Max. coefficient     DIISMaxC        ....  10.000
 Newton-Raphson         CNVNR           .... off
 SOSCF                  CNVSOSCF        .... on
   Start iteration      SOSCFMaxIt      ....   150
   Startup grad/error   SOSCFStart      ....  0.003300
 Level Shifting         CNVShift        .... on
   Level shift para.    LevelShift      ....    0.2500
   Turn off err/grad.   ShiftErr        ....    0.0010
 Zerner damping         CNVZerner       .... off
 Static damping         CNVDamp         .... on
   Fraction old density DampFac         ....    0.7000
   Max. Damping (<1)    DampMax         ....    0.9800
   Min. Damping (>=0)   DampMin         ....    0.0000
   Turn off err/grad.   DampErr         ....    0.1000
 Fernandez-Rico         CNVRico         .... off

SCF Procedure:
 Maximum # iterations   MaxIter         ....   125
 SCF integral mode      SCFMode         .... Direct
   Integral package                     .... LIBINT
 Reset frequency        DirectResetFreq ....    20
 Integral Threshold     Thresh          ....  2.500e-11 Eh
 Primitive CutOff       TCut            ....  2.500e-12 Eh

Convergence Tolerance:
 Convergence Check Mode ConvCheckMode   .... Total+1el-Energy
 Convergence forced     ConvForced      .... 0
 Energy Change          TolE            ....  1.000e-08 Eh
 1-El. energy change                    ....  1.000e-05 Eh
 Orbital Gradient       TolG            ....  1.000e-05
 Orbital Rotation angle TolX            ....  1.000e-05
 DIIS Error             TolErr          ....  5.000e-07


Diagonalization of the overlap matrix:
Smallest eigenvalue                        ... 9.214e-03
Time for diagonalization                   ...    0.003 sec
Threshold for overlap eigenvalues          ... 1.000e-08
Number of eigenvalues below threshold      ... 0
Time for construction of square roots      ...    0.005 sec
Total time needed                          ...    0.008 sec

-------------------
DFT GRID GENERATION
-------------------

General Integration Accuracy     IntAcc      ...  4.670
Radial Grid Type                 RadialGrid  ... Gauss-Chebyshev
Angular Grid (max. acc.)         AngularGrid ... Lebedev-302
Angular grid pruning method      GridPruning ... 3 (G Style)
Weight generation scheme         WeightScheme... Becke
Basis function cutoff            BFCut       ...    1.0000e-11
Integration weight cutoff        WCut        ...    1.0000e-14
Grids for H and He will be reduced by one unit

# of grid points (after initial pruning)     ...  18636 (   0.0 sec)
# of grid points (after weights+screening)   ...  18502 (   0.0 sec)
nearest neighbour list constructed           ...    0.0 sec
Grid point re-assignment to atoms done       ...    0.0 sec
Grid point division into batches done        ...    0.1 sec
Reduced shell lists constructed in    0.2 sec

Total number of grid points                  ...    18502
Total number of batches                      ...      292
Average number of points per batch           ...       63
Average number of grid points per atom       ...     6167
Average number of shells per batch           ...    15.72 (87.31%)
Average number of basis functions per batch  ...    38.15 (90.83%)
Average number of large shells per batch     ...    14.72 (93.64%)
Average number of large basis fcns per batch ...    36.34 (95.25%)
Maximum spatial batch extension              ...  10.16, 19.40, 17.37 au
Average spatial batch extension              ...   0.54,  0.71,  0.74 au

Time for grid setup =    0.225 sec

------------------------------
INITIAL GUESS: MODEL POTENTIAL
------------------------------
Loading Hartree-Fock densities                     ... done
Calculating cut-offs                               ... done
Setting up the integral package                    ... done
Initializing the effective Hamiltonian             ... done
Starting the Coulomb interaction                   ... done (   0.0 sec)
Reading the grid                                   ... done
Mapping shells                                     ... done
Starting the XC term evaluation                    ... done (   0.0 sec)
  promolecular density results
     # of electrons  =     22.000002496
     EX              =    -21.513520658
     EC              =     -0.730158367
     EX+EC           =    -22.243679025
Transforming the Hamiltonian                       ... done (   0.0 sec)
Diagonalizing the Hamiltonian                      ... done (   0.0 sec)
Back transforming the eigenvectors                 ... done (   0.0 sec)
Now organizing SCF variables                       ... done
                      ------------------
                      INITIAL GUESS DONE (   0.4 sec)
                      ------------------
----------------------
INITIAL GUESS ORBITALS
----------------------
                      0         1         2         3         4         5   
                 -18.96474 -18.96466 -10.06710  -1.10788  -1.08160  -0.56905
                   2.00000   2.00000   2.00000   2.00000   2.00000   2.00000
                  --------  --------  --------  --------  --------  --------
  0C   1s        -0.000003 -0.000808 -0.987796  0.184054  0.000005  0.170585
  0C   2s         0.000001  0.000177 -0.051764 -0.353784 -0.000010 -0.389374
  0C   3s        -0.000047 -0.011048  0.003779 -0.014298 -0.000000 -0.056435
  0C   1pz       -0.000089  0.000001 -0.000001 -0.000033 -0.107845 -0.000033
  0C   1px       -0.000212  0.000001  0.000000  0.000011 -0.258048  0.000004
  0C   1py       -0.000129  0.000000  0.000001  0.000026 -0.157115  0.000020
  0C   2pz        0.008504 -0.000038 -0.000001 -0.000000 -0.016964  0.000002
  0C   2px        0.020348 -0.000087  0.000000  0.000001 -0.040591 -0.000000
  0C   2py        0.012389 -0.000052  0.000001  0.000001 -0.024714 -0.000001
  0C   1dz2      -0.000007 -0.001541  0.002367  0.014144 -0.000005  0.004730
  0C   1dxz       0.000009  0.002184 -0.003356 -0.020048 -0.000008 -0.006704
  0C   1dyz       0.000006  0.001330 -0.002043 -0.012206 -0.000003 -0.004082
  0C   1dx2y2     0.000007  0.001644 -0.002526 -0.015094 -0.000003 -0.005047
  0C   1dxy       0.000014  0.003182 -0.004889 -0.029207  0.000004 -0.009767
  1O   1s        -0.695923  0.701987  0.000033 -0.185073 -0.198928  0.118147
  1O   2s         0.031610 -0.030236  0.001346 -0.376484 -0.415590  0.256220
  1O   3s        -0.033275  0.017093  0.009916 -0.174406 -0.141893  0.251712
  1O   1pz       -0.000541  0.000993 -0.000810  0.043219  0.045373  0.119072
  1O   1px       -0.001294  0.002375 -0.001937  0.103383  0.108519  0.284846
  1O   1py       -0.000788  0.001446 -0.001179  0.062939  0.066062  0.173417
  1O   2pz        0.002104 -0.001213 -0.002943  0.007341  0.001404  0.055468
  1O   2px        0.005029 -0.002903 -0.007039  0.017561  0.003360  0.132698
  1O   2py        0.003061 -0.001768 -0.004285  0.010691  0.002046  0.080789
  1O   1dz2      -0.000060  0.000347 -0.000530  0.003724  0.003932  0.004768
  1O   1dxz       0.000084 -0.000492  0.000752 -0.005281 -0.005579 -0.006760
  1O   1dyz       0.000051 -0.000300  0.000458 -0.003215 -0.003396 -0.004116
  1O   1dx2y2     0.000063 -0.000370  0.000566 -0.003975 -0.004199 -0.005089
  1O   1dxy       0.000123 -0.000716  0.001095 -0.007691 -0.008123 -0.009846
  2O   1s         0.701923  0.695988  0.000033 -0.185085  0.198917  0.118148
  2O   2s        -0.031868 -0.029963  0.001346 -0.376509  0.415566  0.256223
  2O   3s         0.033421  0.016807  0.009916 -0.174413  0.141881  0.251716
  2O   1pz       -0.000549 -0.000988  0.000809 -0.043198  0.045331 -0.119023
  2O   1px       -0.001315 -0.002364  0.001937 -0.103392  0.108516 -0.284854
  2O   1py       -0.000801 -0.001439  0.001180 -0.062957  0.066081 -0.173449
  2O   2pz        0.002110  0.001196  0.002941 -0.007338  0.001404 -0.055450
  2O   2px        0.005054  0.002860  0.007039 -0.017562  0.003358 -0.132701
  2O   2py        0.003078  0.001741  0.004286 -0.010693  0.002045 -0.080801
  2O   1dz2       0.000062  0.000347 -0.000531  0.003726 -0.003936  0.004769
  2O   1dxz      -0.000089 -0.000491  0.000751 -0.005279  0.005574 -0.006758
  2O   1dyz      -0.000054 -0.000299  0.000458 -0.003215  0.003394 -0.004115
  2O   1dx2y2    -0.000067 -0.000370  0.000566 -0.003975  0.004198 -0.005088
  2O   1dxy      -0.000129 -0.000716  0.001096 -0.007693  0.008126 -0.009848
                      6         7         8         9        10        11   
                  -0.53874  -0.49969  -0.49969  -0.39865  -0.39864  -0.04086
                   2.00000   2.00000   2.00000   2.00000   2.00000   0.00000
                  --------  --------  --------  --------  --------  --------
  0C   1s        -0.000001 -0.000026  0.000004 -0.000000  0.000000  0.000165
  0C   2s         0.000003  0.000058 -0.000008  0.000001 -0.000000 -0.000344
  0C   3s         0.000001  0.000019 -0.000003  0.000000 -0.000000 -0.001727
  0C   1pz        0.113341 -0.295631  0.176316  0.000002 -0.000001  0.530293
  0C   1px        0.271204 -0.007225 -0.217002  0.000004  0.000000  0.007117
  0C   1py        0.165126  0.214785  0.235384  0.000002 -0.000001 -0.375688
  0C   2pz       -0.005800 -0.103707  0.061851 -0.000017  0.000002  0.462903
  0C   2px       -0.013875 -0.002534 -0.076124 -0.000043  0.000007  0.006215
  0C   2py       -0.008448  0.075346  0.082572 -0.000026  0.000003 -0.327943
  0C   1dz2       0.000002 -0.000009  0.000006  0.027551 -0.016558 -0.000029
  0C   1dxz       0.000002  0.000006 -0.000006  0.038490 -0.011177  0.000039
  0C   1dyz       0.000001  0.000011  0.000002  0.011551 -0.026579  0.000026
  0C   1dx2y2     0.000001  0.000007  0.000003  0.017960  0.046423  0.000030
  0C   1dxy      -0.000001  0.000007  0.000001 -0.027186 -0.013229  0.000057
  1O   1s        -0.092913 -0.000003  0.000000 -0.000000  0.000000  0.000106
  1O   2s        -0.197144 -0.000009  0.000001 -0.000005  0.000001  0.000262
  1O   3s        -0.217210  0.000006 -0.000001  0.000033 -0.000005  0.000579
  1O   1pz       -0.137738 -0.315004  0.187877  0.395409 -0.237656 -0.296079
  1O   1px       -0.329393 -0.007658 -0.231240  0.010584  0.290833 -0.004206
  1O   1py       -0.200516  0.228897  0.250817 -0.289000 -0.314509  0.209547
  1O   2pz       -0.060223 -0.166597  0.099363  0.247631 -0.148837 -0.276023
  1O   2px       -0.144009 -0.004053 -0.122296  0.006625  0.182141 -0.003953
  1O   2py       -0.087663  0.121054  0.132651 -0.180994 -0.196968  0.195324
  1O   1dz2      -0.004955  0.010522 -0.006275 -0.006076  0.003652 -0.009522
  1O   1dxz       0.007031  0.014676 -0.004207 -0.008485  0.002463 -0.013219
  1O   1dyz       0.004280  0.004431 -0.010112 -0.002545  0.005861 -0.004108
  1O   1dx2y2     0.005292  0.006780  0.017709 -0.003959 -0.010235 -0.005845
  1O   1dxy       0.010235 -0.010344 -0.005075  0.005995  0.002917  0.009213
  2O   1s         0.092911 -0.000004  0.000001  0.000000  0.000000  0.000106
  2O   2s         0.197141 -0.000012  0.000002  0.000005 -0.000001  0.000261
  2O   3s         0.217207  0.000002 -0.000000 -0.000034  0.000005  0.000583
  2O   1pz       -0.137594 -0.315038  0.187884 -0.395473  0.237664 -0.295885
  2O   1px       -0.329400 -0.007730 -0.231232 -0.010745 -0.290807 -0.003740
  2O   1py       -0.200594  0.228855  0.250827  0.288900  0.314521  0.209831
  2O   2pz       -0.060152 -0.166612  0.099366 -0.247674  0.148843 -0.275815
  2O   2px       -0.144013 -0.004085 -0.122293 -0.006732 -0.182124 -0.003453
  2O   2py       -0.087701  0.121036  0.132655  0.180927  0.196976  0.195629
  2O   1dz2       0.004960 -0.010515  0.006271 -0.006073  0.003649  0.009514
  2O   1dxz      -0.007024 -0.014681  0.004211 -0.008487  0.002465  0.013226
  2O   1dyz      -0.004277 -0.004439  0.010111 -0.002549  0.005859  0.004117
  2O   1dx2y2    -0.005290 -0.006785 -0.017711 -0.003961 -0.010236  0.005852
  2O   1dxy      -0.010240  0.010337  0.005075  0.005993  0.002916 -0.009203
                     12        13        14        15        16        17   
                  -0.04086   0.00930   0.31030   0.38928   0.40034   0.40034
                   0.00000   0.00000   0.00000   0.00000   0.00000   0.00000
                  --------  --------  --------  --------  --------  --------
  0C   1s        -0.000021 -0.117224 -0.000001  0.333145 -0.000213  0.000026
  0C   2s         0.000044  0.215779  0.000002 -1.697060  0.001052 -0.000127
  0C   3s         0.000221  1.682812 -0.000007  1.646058 -0.001182  0.000143
  0C   1pz       -0.305697  0.000678  0.011829  0.000467  0.732326 -0.415376
  0C   1px        0.386029 -0.000049  0.028314 -0.000039  0.006080  0.531030
  0C   1py       -0.424187 -0.000382  0.017241 -0.000267 -0.512665 -0.587055
  0C   2pz       -0.266849  0.000740  1.171600 -0.000716 -1.019724  0.578390
  0C   2px        0.336971 -0.000055  2.803352  0.000060 -0.008458 -0.739436
  0C   2py       -0.370281 -0.000418  1.706844  0.000410  0.713865  0.817443
  0C   1dz2       0.000005  0.024445  0.000004 -0.046359  0.000050 -0.000012
  0C   1dxz      -0.000006 -0.034649  0.000005  0.065711 -0.000060  0.000014
  0C   1dyz      -0.000002 -0.021097  0.000002  0.040009 -0.000047  0.000001
  0C   1dx2y2    -0.000003 -0.026086  0.000001  0.049472 -0.000048  0.000001
  0C   1dxy      -0.000007 -0.050479 -0.000003  0.095731 -0.000087  0.000008
  1O   1s        -0.000014 -0.099917 -0.091261  0.032451 -0.000022  0.000003
  1O   2s        -0.000033 -0.244671 -0.135713  0.120214 -0.000091  0.000011
  1O   3s        -0.000074 -0.613003 -2.252813 -0.319241  0.000341 -0.000041
  1O   1pz        0.170636  0.093653 -0.031382 -0.109699  0.081612 -0.046254
  1O   1px       -0.215431  0.224930 -0.075213 -0.262585  0.000873  0.059096
  1O   1py        0.236777  0.137127 -0.045820 -0.159898 -0.056956 -0.065372
  1O   2pz        0.159073  0.114369  0.192006 -0.020609  0.102362 -0.058062
  1O   2px       -0.200826  0.274474  0.459043 -0.049496  0.000842  0.074229
  1O   2py        0.220731  0.167288  0.279412 -0.030175 -0.071666 -0.082059
  1O   1dz2       0.005489  0.001293  0.009088  0.020807 -0.014989  0.008494
  1O   1dxz       0.003577 -0.001872 -0.012885 -0.029537 -0.020718  0.005456
  1O   1dyz       0.009012 -0.001136 -0.007845 -0.017979 -0.006519  0.014066
  1O   1dx2y2    -0.015975 -0.001400 -0.009700 -0.022228 -0.008962 -0.025084
  1O   1dxy       0.004690 -0.002687 -0.018769 -0.042986  0.014410  0.007442
  2O   1s        -0.000014 -0.099917  0.091261  0.032450 -0.000022  0.000003
  2O   2s        -0.000034 -0.244670  0.135712  0.120213 -0.000089  0.000011
  2O   3s        -0.000075 -0.613003  2.252819 -0.319233  0.000354 -0.000044
  2O   1pz        0.170612 -0.094333 -0.031483  0.109780  0.081448 -0.046234
  2O   1px       -0.215491 -0.224878 -0.075207  0.262576  0.000480  0.059143
  2O   1py        0.236741 -0.136742 -0.045765  0.159851 -0.057195 -0.065342
  2O   2pz        0.159046 -0.115030  0.191695  0.020757  0.102369 -0.058062
  2O   2px       -0.200890 -0.274424  0.459065  0.049484  0.000859  0.074227
  2O   2py        0.220693 -0.166914  0.279587  0.030090 -0.071655 -0.082060
  2O   1dz2      -0.005485  0.001322 -0.009091  0.020840  0.014943 -0.008484
  2O   1dxz      -0.003582 -0.001833  0.012882 -0.029494  0.020776 -0.005467
  2O   1dyz      -0.009010 -0.001121  0.007844 -0.017962  0.006560 -0.014068
  2O   1dx2y2     0.015977 -0.001390  0.009699 -0.022215  0.009007  0.025082
  2O   1dxy      -0.004690 -0.002711  0.018771 -0.043013 -0.014328 -0.007450
                     18        19        20        21        22        23   
                   0.65870   0.71136   0.80301   0.80301   0.92577   0.98906
                   0.00000   0.00000   0.00000   0.00000   0.00000   0.00000
                  --------  --------  --------  --------  --------  --------
  0C   1s         0.000002 -0.087015 -0.000000  0.000000  0.000001  0.000029
  0C   2s        -0.000016  1.216058  0.000005 -0.000003 -0.000003 -0.000490
  0C   3s         0.000000  0.413643  0.000004 -0.000002  0.000004 -0.000621
  0C   1pz        0.403119  0.000072  0.000068 -0.000009  0.170423 -0.050876
  0C   1px        0.964567 -0.000001  0.000163 -0.000022  0.407783 -0.000146
  0C   1py        0.587284 -0.000037  0.000099 -0.000014  0.248282  0.035158
  0C   2pz       -0.044744  0.000048  0.000006 -0.000000  0.220277  0.825207
  0C   2px       -0.107058 -0.000005  0.000016 -0.000003  0.527058  0.002345
  0C   2py       -0.065183 -0.000028  0.000011 -0.000000  0.320902 -0.570275
  0C   1dz2      -0.000019 -0.069285  0.051041 -0.029876 -0.000111  0.000040
  0C   1dxz      -0.000025  0.098207  0.071052 -0.019742 -0.000148 -0.000081
  0C   1dyz      -0.000010  0.059794  0.021818 -0.048654 -0.000057 -0.000026
  0C   1dx2y2    -0.000007  0.073937  0.032052  0.085791 -0.000041 -0.000055
  0C   1dxy       0.000016  0.143073 -0.049734 -0.024919  0.000094 -0.000121
  1O   1s        -0.107118 -0.101107  0.000024 -0.000003 -0.022924 -0.000055
  1O   2s        -0.354145 -0.383531  0.000157 -0.000021 -0.032577 -0.000380
  1O   3s        -0.195846 -0.225307 -0.000285  0.000040 -0.582951  0.000780
  1O   1pz        0.020415 -0.150203  0.522340 -0.305723  0.247742  0.529345
  1O   1px        0.048810 -0.359348  0.009670  0.381606  0.592864  0.001435
  1O   1py        0.029710 -0.218783 -0.374158 -0.416939  0.360987 -0.365876
  1O   2pz        0.278337  0.379417 -0.660245  0.386464 -0.188233 -0.932151
  1O   2px        0.665688  0.907611 -0.012078 -0.482420 -0.450927 -0.002842
  1O   2py        0.405247  0.552557  0.473074  0.527052 -0.274663  0.644007
  1O   1dz2      -0.029773  0.002243 -0.005996  0.003508 -0.008243 -0.023554
  1O   1dxz       0.042245 -0.003183 -0.008332  0.002316  0.011747 -0.032564
  1O   1dyz       0.025716 -0.001938 -0.002556  0.005710  0.007145 -0.010399
  1O   1dx2y2     0.031795 -0.002395 -0.003756 -0.010070  0.008829 -0.013775
  1O   1dxy       0.061500 -0.004633  0.005848  0.002924  0.017049  0.022424
  2O   1s         0.107120 -0.101106 -0.000025  0.000003  0.022925 -0.000056
  2O   2s         0.354149 -0.383525 -0.000157  0.000021  0.032581 -0.000386
  2O   3s         0.195852 -0.225312  0.000277 -0.000036  0.582945  0.000789
  2O   1pz        0.020384  0.150165 -0.522252  0.305711  0.247810  0.529398
  2O   1px        0.048811  0.359352 -0.009460 -0.381634  0.592860  0.001564
  2O   1py        0.029727  0.218805  0.374285  0.416922  0.360949 -0.365797
  2O   2pz        0.278094 -0.379223  0.660256 -0.386466 -0.188674 -0.931984
  2O   2px        0.665720 -0.907621  0.012101  0.482417 -0.450895 -0.002442
  2O   2py        0.405395 -0.552663 -0.473060 -0.527055 -0.274415  0.644251
  2O   1dz2       0.029805  0.002246 -0.005985  0.003506  0.008289  0.023537
  2O   1dxz      -0.042202 -0.003180 -0.008347  0.002319 -0.011685  0.032568
  2O   1dyz      -0.025700 -0.001937 -0.002566  0.005711 -0.007121  0.010422
  2O   1dx2y2    -0.031783 -0.002395 -0.003768 -0.010069 -0.008812  0.013783
  2O   1dxy      -0.061527 -0.004636  0.005827  0.002926 -0.017088 -0.022421
                     24        25        26        27        28        29   
                   0.98906   1.14284   1.45544   1.45544   1.46738   1.47114
                   0.00000   0.00000   0.00000   0.00000   0.00000   0.00000
                  --------  --------  --------  --------  --------  --------
  0C   1s        -0.000003 -0.084016 -0.000000 -0.000000 -0.000000 -0.000000
  0C   2s         0.000056  1.368656 -0.000000  0.000000 -0.000003  0.000000
  0C   3s         0.000070  2.566603 -0.000002  0.000000 -0.000002  0.000001
  0C   1pz        0.028353  0.000067 -0.000030  0.000006  0.166559  0.000031
  0C   1px       -0.036738 -0.000006 -0.000073  0.000014  0.398534 -0.000016
  0C   1py        0.040877 -0.000038 -0.000045  0.000009  0.242651  0.000005
  0C   2pz       -0.459890  0.000641 -0.000838  0.000164  1.476201 -0.000098
  0C   2px        0.595887 -0.000051 -0.002005  0.000393  3.532206  0.000051
  0C   2py       -0.663025 -0.000364 -0.001221  0.000240  2.150617 -0.000016
  0C   1dz2       0.000010 -0.118530  0.379357 -0.253484  0.000322 -0.728855
  0C   1dxz      -0.000005  0.168010  0.538112 -0.184649  0.000431  0.243135
  0C   1dyz       0.000015  0.102293  0.145691 -0.384688  0.000166  0.178331
  0C   1dx2y2     0.000016  0.126489  0.286204  0.645978  0.000120 -0.234200
  0C   1dxy       0.000020  0.244766 -0.394449 -0.169064 -0.000271 -0.473348
  1O   1s         0.000006  0.174893 -0.000181  0.000035  0.224551  0.000000
  1O   2s         0.000043  1.271257 -0.001258  0.000247  1.701080  0.000001
  1O   3s        -0.000087 -2.929532  0.003024 -0.000593 -5.023795 -0.000001
  1O   1pz       -0.295018  0.002161 -0.130109  0.086996 -0.030593 -0.000002
  1O   1px        0.382274  0.004660 -0.008082 -0.098490 -0.072687 -0.000000
  1O   1py       -0.425329  0.002730  0.103253  0.101914 -0.044148  0.000001
  1O   2pz        0.519453  0.402791 -0.105001  0.070032  0.406927  0.000084
  1O   2px       -0.673034  0.964533 -0.007390 -0.079026  0.972847 -0.000044
  1O   2py        0.748899  0.587423  0.082490  0.082061  0.592152  0.000015
  1O   1dz2       0.013130 -0.010339 -0.114704  0.076669 -0.029317 -0.118910
  1O   1dxz       0.008305  0.014620 -0.162676  0.055786  0.041384  0.039718
  1O   1dyz       0.021964  0.008905 -0.043999  0.116307  0.025216  0.029139
  1O   1dx2y2    -0.039397  0.011015 -0.086509 -0.195252  0.031196 -0.038255
  1O   1dxy       0.011837  0.021334  0.119224  0.051127  0.060462 -0.077255
  2O   1s         0.000006  0.174893  0.000181 -0.000035 -0.224551  0.000000
  2O   2s         0.000044  1.271259  0.001256 -0.000246 -1.701079  0.000000
  2O   3s        -0.000091 -2.929545 -0.003020  0.000592  5.023799 -0.000001
  2O   1pz       -0.295024 -0.001746  0.130332 -0.087041 -0.030177 -0.000007
  2O   1px        0.382259 -0.004693  0.008611  0.098387 -0.072716  0.000005
  2O   1py       -0.425338 -0.002965 -0.102933 -0.101979 -0.044381 -0.000003
  2O   2pz        0.519435 -0.403400  0.104435 -0.069920  0.406254  0.000079
  2O   2px       -0.673080 -0.964488  0.006035  0.079291  0.972893 -0.000041
  2O   2py        0.748871 -0.587079 -0.083315 -0.081899  0.592528  0.000011
  2O   1dz2      -0.013115 -0.010314 -0.114654  0.076602  0.029193 -0.118977
  2O   1dxz      -0.008318  0.014653 -0.162658  0.055839 -0.041549  0.039647
  2O   1dyz      -0.021956  0.008918 -0.044083  0.116276 -0.025279  0.029078
  2O   1dx2y2     0.039406  0.011024 -0.086527 -0.195289 -0.031242 -0.038200
  2O   1dxy      -0.011831  0.021313  0.119252  0.051096 -0.060359 -0.077241
                     30        31        32        33        34        35   
                   1.47114   2.37737   2.37738   2.49199   2.49199   2.57397
                   0.00000   0.00000   0.00000   0.00000   0.00000   0.00000
                  --------  --------  --------  --------  --------  --------
  0C   1s        -0.000000 -0.000000  0.000000  0.000000  0.000000 -0.000084
  0C   2s         0.000001  0.000000 -0.000000 -0.000007 -0.000002 -0.001711
  0C   3s         0.000002  0.000000 -0.000000 -0.000004 -0.000001 -0.000786
  0C   1pz        0.000012 -0.000001 -0.000001 -0.000095 -0.000144  0.296260
  0C   1px        0.000014 -0.000002 -0.000000 -0.000051  0.000096 -0.119037
  0C   1py       -0.000030 -0.000001 -0.000001  0.000148 -0.000059 -0.007847
  0C   2pz       -0.000038 -0.000001 -0.000001 -0.000047 -0.000071  0.191664
  0C   2px       -0.000043 -0.000004 -0.000001 -0.000025  0.000047 -0.077010
  0C   2py        0.000096 -0.000002 -0.000001  0.000073 -0.000029 -0.005076
  0C   1dz2       0.021113  0.000002  0.000002  0.048054  0.255074 -0.000751
  0C   1dxz      -0.472152  0.000003  0.000003  0.145722 -0.120443  0.001356
  0C   1dyz       0.758746  0.000001  0.000003 -0.277421 -0.004354  0.000748
  0C   1dx2y2     0.290399  0.000004 -0.000004 -0.083193  0.103525  0.001117
  0C   1dxy      -0.132859 -0.000003 -0.000000  0.082182  0.154516  0.002214
  1O   1s         0.000000 -0.000000 -0.000000 -0.000000 -0.000000 -0.000360
  1O   2s         0.000001 -0.000002 -0.000001 -0.000003 -0.000000 -0.002405
  1O   3s        -0.000002  0.000006  0.000002  0.000007  0.000001  0.002237
  1O   1pz       -0.000003  0.000002  0.000002 -0.000026 -0.000040  0.078221
  1O   1px       -0.000001  0.000001 -0.000002 -0.000013  0.000027 -0.029930
  1O   1py        0.000003 -0.000003  0.000001  0.000042 -0.000016 -0.001276
  1O   2pz        0.000031 -0.000004 -0.000005  0.000059  0.000091 -0.226562
  1O   2px        0.000037 -0.000004  0.000002  0.000029 -0.000062  0.089535
  1O   2py       -0.000080  0.000004 -0.000002 -0.000096  0.000037  0.005206
  1O   1dz2       0.003457 -0.097909 -0.534196 -0.098993 -0.525098  0.395689
  1O   1dxz      -0.077029 -0.306094  0.250611 -0.300058  0.247731  0.455712
  1O   1dyz       0.123816  0.580483  0.012014  0.570949  0.008804  0.327426
  1O   1dx2y2     0.047443  0.175233 -0.215862  0.171019 -0.212872 -0.210868
  1O   1dxy      -0.021715 -0.170462 -0.324180 -0.168966 -0.318001 -0.148056
  2O   1s         0.000000  0.000000  0.000000 -0.000000 -0.000000 -0.000360
  2O   2s         0.000001  0.000002  0.000001 -0.000003 -0.000000 -0.002405
  2O   3s        -0.000002 -0.000006 -0.000002  0.000007  0.000001  0.002238
  2O   1pz       -0.000001 -0.000002 -0.000003 -0.000027 -0.000040  0.077148
  2O   1px       -0.000003 -0.000001  0.000002 -0.000015  0.000027 -0.032497
  2O   1py        0.000006  0.000002 -0.000001  0.000041 -0.000017 -0.002839
  2O   2pz        0.000032  0.000002  0.000005  0.000061  0.000091 -0.225491
  2O   2px        0.000034 -0.000000 -0.000004  0.000035 -0.000060  0.092100
  2O   2py       -0.000079 -0.000006  0.000002 -0.000092  0.000038  0.006768
  2O   1dz2       0.003431  0.097991  0.534321 -0.098802 -0.524808 -0.396571
  2O   1dxz      -0.077081  0.306233 -0.250484 -0.299736  0.248021 -0.454982
  2O   1dyz       0.123832 -0.580488 -0.011878  0.570938  0.009117 -0.326841
  2O   1dx2y2     0.047350 -0.175062  0.215704  0.171412 -0.213241  0.211243
  2O   1dxy      -0.021651  0.170320  0.324180 -0.169294 -0.318000  0.148689
                     36        37        38        39        40        41   
                   2.57397   2.63257   3.32796   3.33911   3.33911   3.65521
                   0.00000   0.00000   0.00000   0.00000   0.00000   0.00000
                  --------  --------  --------  --------  --------  --------
  0C   1s        -0.000054  0.015875 -0.000000  0.000000 -0.000000  0.287208
  0C   2s        -0.001095  0.673882 -0.000004 -0.000001  0.000001 -2.176970
  0C   3s        -0.000503  0.346376 -0.000000 -0.000001 -0.000000 -1.001144
  0C   1pz        0.051988  0.001008  0.427090 -0.000242  0.001595 -0.000155
  0C   1px        0.147741 -0.000072  1.021926 -0.000583  0.003819  0.000018
  0C   1py       -0.278337 -0.000566  0.622209 -0.000353  0.002326  0.000092
  0C   2pz        0.033633  0.000737  0.371428 -0.000196  0.001285 -0.000077
  0C   2px        0.095580 -0.000057  0.888740 -0.000469  0.003076  0.000006
  0C   2py       -0.180069 -0.000417  0.541118 -0.000285  0.001873  0.000043
  0C   1dz2      -0.000689  0.322336 -0.001719 -0.268101  0.440485  0.468795
  0C   1dxz       0.001072 -0.456887 -0.002297 -0.182746  0.616446 -0.664483
  0C   1dyz       0.000307 -0.278182 -0.000884 -0.427415  0.182908 -0.404577
  0C   1dx2y2     0.000566 -0.343978 -0.000637  0.743097  0.292274 -0.500271
  0C   1dxy       0.001324 -0.665619  0.001450 -0.209782 -0.437306 -0.968057
  1O   1s        -0.000230  0.120013  0.021818 -0.000008  0.000051  0.067718
  1O   2s        -0.001539  0.819086  0.381390 -0.000184  0.001207  0.195084
  1O   3s         0.001432 -0.849032 -1.746119  0.000940 -0.006157  1.356831
  1O   1pz        0.013975 -0.174659  0.026533  0.037877 -0.062127 -0.176547
  1O   1px        0.039561 -0.418342  0.062892 -0.045988 -0.001612 -0.422216
  1O   1py       -0.072485 -0.254801  0.038167  0.049404  0.046130 -0.257024
  1O   2pz       -0.040006  0.198698  0.283818  0.111592 -0.182572 -0.291267
  1O   2px       -0.113537  0.477290  0.676914 -0.135831 -0.003266 -0.696623
  1O   2py        0.211853  0.290992  0.411684  0.145540  0.136929 -0.424080
  1O   1dz2       0.069418  0.104761  0.274694 -0.222487  0.366283 -0.308885
  1O   1dxz       0.210132 -0.144912 -0.393719 -0.151168  0.509453  0.438361
  1O   1dyz      -0.156062 -0.088617 -0.239244 -0.354191  0.150557  0.266841
  1O   1dx2y2     0.586192 -0.109925 -0.295414  0.616081  0.241082  0.329905
  1O   1dxy      -0.347689 -0.214745 -0.569177 -0.173588 -0.364692  0.638085
  2O   1s        -0.000230  0.120014 -0.021818  0.000008 -0.000051  0.067719
  2O   2s        -0.001539  0.819091 -0.381393  0.000184 -0.001207  0.195090
  2O   3s         0.001431 -0.849037  1.746124 -0.000938  0.006158  1.356836
  2O   1pz        0.013289  0.175004  0.026050 -0.037919  0.062404  0.176371
  2O   1px        0.037919  0.418318  0.062927  0.045888  0.002271  0.422233
  2O   1py       -0.073485  0.254607  0.038439 -0.049466 -0.045729  0.257126
  2O   2pz       -0.039320 -0.200200  0.282039 -0.111906  0.184630  0.291017
  2O   2px       -0.111897 -0.477179  0.677047  0.135082  0.008188  0.696645
  2O   2py        0.212853 -0.290146  0.412688 -0.145998 -0.133933  0.424224
  2O   1dz2      -0.069609  0.102161 -0.277856 -0.221973  0.363958 -0.309276
  2O   1dxz      -0.210033 -0.148391  0.389485 -0.151790  0.512498  0.437841
  2O   1dyz       0.156742 -0.089956  0.237614 -0.354382  0.152669  0.266641
  2O   1dx2y2    -0.585683 -0.110891  0.294237  0.615837  0.243453  0.329761
  2O   1dxy       0.348260 -0.212554  0.571839 -0.174190 -0.360280  0.638415
--------------
SCF ITERATIONS
--------------
               ***  Starting incremental Fock matrix formation  ***

                         ----------------------------
                         !        ITERATION     0   !
                         ----------------------------
   Total Energy        :    -188.297087296690 Eh
   Energy Change       :    -188.297087296690 Eh
   MAX-DP              :       0.100783081928
   RMS-DP              :       0.006540407522
   Actual Damping      :       0.7000
   Actual Level Shift  :       0.2500 Eh
   Int. Num. El.       :    21.99999508 (UP=   10.99999754 DN=   10.99999754)
   Exchange            :   -22.02977626
   Correlation         :    -0.74475768


                         ----------------------------
                         !        ITERATION     1   !
                         ----------------------------
   Total Energy        :    -188.353799771342 Eh
   Energy Change       :      -0.056712474652 Eh
   MAX-DP              :       0.033433317257
   RMS-DP              :       0.002939063478
   Actual Damping      :       0.7000
   Actual Level Shift  :       0.2500 Eh
   Int. Num. El.       :    21.99999484 (UP=   10.99999742 DN=   10.99999742)
   Exchange            :   -21.82785032
   Correlation         :    -0.74420897

                               ***Turning on DIIS***

                         ----------------------------
                         !        ITERATION     2   !
                         ----------------------------
   Total Energy        :    -188.365794684102 Eh
   Energy Change       :      -0.011994912760 Eh
   MAX-DP              :       0.035465331143
   RMS-DP              :       0.002488490234
   Actual Damping      :       0.0000
   Actual Level Shift  :       0.2500 Eh
   Int. Num. El.       :    21.99999474 (UP=   10.99999737 DN=   10.99999737)
   Exchange            :   -21.73444604
   Correlation         :    -0.74394428
   DIIS-Error          :       0.016211098494


                         ----------------------------
                         !        ITERATION     3   !
                         ----------------------------
   Total Energy        :    -188.399327905208 Eh
   Energy Change       :      -0.033533221106 Eh
   MAX-DP              :       0.025591643283
   RMS-DP              :       0.001811642486
   Actual Damping      :       0.0000
   Actual Level Shift  :       0.2500 Eh
   Int. Num. El.       :    21.99999473 (UP=   10.99999737 DN=   10.99999737)
   Exchange            :   -21.68138192
   Correlation         :    -0.74312008
   DIIS-Error          :       0.027409838196
   DIIS coefficients:
      0.85114   0.14886


                         ----------------------------
                         !        ITERATION     4   !
                         ----------------------------
   Total Energy        :    -188.401277821438 Eh
   Energy Change       :      -0.001949916230 Eh
   MAX-DP              :       0.017899305171
   RMS-DP              :       0.000726247236
   Actual Damping      :       0.0000
   Actual Level Shift  :       0.2500 Eh
   Int. Num. El.       :    21.99999479 (UP=   10.99999740 DN=   10.99999740)
   Exchange            :   -21.72788188
   Correlation         :    -0.74306551
   DIIS-Error          :       0.010071775483
   DIIS coefficients:
      0.30509   0.14024   0.55467

                      *** Initiating the SOSCF procedure ***
                           *** Shutting down DIIS ***
                      *** Re-Reading the Fockian *** 
                      *** Removing any level shift *** 

                         ----------------------------
                         !        ITERATION     5   !
                         ----------------------------
   Total Energy        :    -188.401753795040 Eh
   Energy Change       :      -0.000475973603 Eh
   MAX-DP              :       0.003831523257
   RMS-DP              :       0.000162343208
   Orbital gradient    :       0.000825062770
   Orbital Rotation    :       0.000825062770
   Actual Damping      :       0.0000
   Int. Num. El.       :    21.99999477 (UP=   10.99999739 DN=   10.99999739)
   Exchange            :   -21.72705879
   Correlation         :    -0.74337871

               *** Restarting incremental Fock matrix formation ***

                         ----------------------------
                         !        ITERATION     6   !
                         ----------------------------
   Total Energy        :    -188.401787259061 Eh
   Energy Change       :      -0.000033464020 Eh
   MAX-DP              :       0.002240743965
   RMS-DP              :       0.000139254316
   Orbital gradient    :       0.000710687512
   Orbital Rotation    :       0.001592915789
   Actual Damping      :       0.0000
   Int. Num. El.       :    21.99999477 (UP=   10.99999738 DN=   10.99999738)
   Exchange            :   -21.72576923
   Correlation         :    -0.74344063


                         ----------------------------
                         !        ITERATION     7   !
                         ----------------------------
   Total Energy        :    -188.401777438658 Eh
   Energy Change       :       0.000009820402 Eh
   MAX-DP              :       0.001580109877
   RMS-DP              :       0.000097876171
   Orbital gradient    :       0.001621997983
   Orbital Rotation    :       0.001093016453
   Actual Damping      :       0.0000
   Int. Num. El.       :    21.99999476 (UP=   10.99999738 DN=   10.99999738)
   Exchange            :   -21.72260501
   Correlation         :    -0.74346086


                         ----------------------------
                         !        ITERATION     8   !
                         ----------------------------
   Total Energy        :    -188.401789544519 Eh
   Energy Change       :      -0.000012105860 Eh
   MAX-DP              :       0.000045462400
   RMS-DP              :       0.000003107770
   Orbital gradient    :       0.000016305213
   Orbital Rotation    :       0.000013562574
   Actual Damping      :       0.0000
   Int. Num. El.       :    21.99999477 (UP=   10.99999738 DN=   10.99999738)
   Exchange            :   -21.72494354
   Correlation         :    -0.74344964


                         ----------------------------
                         !        ITERATION     9   !
                         ----------------------------
   Total Energy        :    -188.401789544962 Eh
   Energy Change       :      -0.000000000443 Eh
   MAX-DP              :       0.000019733205
   RMS-DP              :       0.000001314494
   Orbital gradient    :       0.000012046283
   Orbital Rotation    :       0.000005619565
   Actual Damping      :       0.0000
   Int. Num. El.       :    21.99999477 (UP=   10.99999738 DN=   10.99999738)
   Exchange            :   -21.72485055
   Correlation         :    -0.74344768


                         ----------------------------
                         !        ITERATION    10   !
                         ----------------------------
   Total Energy        :    -188.401789546971 Eh
   Energy Change       :      -0.000000002009 Eh
   MAX-DP              :       0.000010609830
   RMS-DP              :       0.000000762964
   Orbital gradient    :       0.000003403077
   Orbital Rotation    :       0.000009681280
   Actual Damping      :       0.0000
   Int. Num. El.       :    21.99999477 (UP=   10.99999738 DN=   10.99999738)
   Exchange            :   -21.72488971
   Correlation         :    -0.74344852


                         ----------------------------
                         !        ITERATION    11   !
                         ----------------------------
   Total Energy        :    -188.401789546561 Eh
   Energy Change       :       0.000000000410 Eh
   MAX-DP              :       0.000008392567
   RMS-DP              :       0.000000597352
   Orbital gradient    :       0.000010787669
   Orbital Rotation    :       0.000007361959
   Actual Damping      :       0.0000
   Int. Num. El.       :    21.99999477 (UP=   10.99999738 DN=   10.99999738)
   Exchange            :   -21.72489860
   Correlation         :    -0.74344871

                 **** Energy Check signals convergence ****
              ***Rediagonalizing the Fockian in SOSCF/NRSCF***

               *****************************************************
               *                     SUCCESS                       *
               *           SCF CONVERGED AFTER  12 CYCLES          *
               *****************************************************

Setting up the final grid:

General Integration Accuracy     IntAcc      ...  5.010
Radial Grid Type                 RadialGrid  ... Gauss-Chebyshev
Angular Grid (max. acc.)         AngularGrid ... Lebedev-434
Angular grid pruning method      GridPruning ... 3 (G Style)
Weight generation scheme         WeightScheme... Becke
Basis function cutoff            BFCut       ...    1.0000e-11
Integration weight cutoff        WCut        ...    1.0000e-14
Grids for H and He will be reduced by one unit

# of grid points (after initial pruning)     ...  32382 (   0.0 sec)
# of grid points (after weights+screening)   ...  32134 (   0.0 sec)
nearest neighbour list constructed           ...    0.0 sec
Grid point re-assignment to atoms done       ...    0.0 sec
Grid point division into batches done        ...    0.4 sec
Reduced shell lists constructed in    0.4 sec

Total number of grid points                  ...    32134
Total number of batches                      ...      504
Average number of points per batch           ...       63
Average number of grid points per atom       ...    10711
Average number of shells per batch           ...    15.32 (85.13%)
Average number of basis functions per batch  ...    37.28 (88.75%)
Average number of large shells per batch     ...    14.37 (93.78%)
Average number of large basis fcns per batch ...    35.28 (94.66%)
Maximum spatial batch extension              ...  10.11, 18.20, 21.76 au
Average spatial batch extension              ...   0.43,  0.53,  0.57 au

Final grid set up in    0.5 sec
Final integration                            ... done (   0.1 sec)
Change in XC energy                          ...     0.000015521
Integrated number of electrons               ...    21.999995585
Previous integrated no of electrons          ...    21.999994766

----------------
TOTAL SCF ENERGY
----------------

Total Energy       :         -188.40177403 Eh           -5126.67291 eV

Components:
Nuclear Repulsion  :           57.54640068 Eh            1565.91717 eV
Electronic Energy  :         -245.94817470 Eh           -6692.59008 eV
One Electron Energy:         -371.06823766 Eh          -10097.28008 eV
Two Electron Energy:          125.12006295 Eh            3404.69000 eV

Virial components:
Potential Energy   :         -375.35266303 Eh          -10213.86522 eV
Kinetic Energy     :          186.95088900 Eh            5087.19232 eV
Virial Ratio       :            2.00776078


DFT components:
N(Alpha)           :       10.999997792392 electrons
N(Beta)            :       10.999997792392 electrons
N(Total)           :       21.999995584783 electrons
E(X)               :      -21.724891996208 Eh       
E(C)               :       -0.743431400273 Eh       
E(XC)              :      -22.468323396481 Eh       
DFET-embed. en.    :        0.000000000000 Eh       

---------------
SCF CONVERGENCE
---------------

  Last Energy change         ...    2.6068e-10  Tolerance :   1.0000e-08
  Last MAX-Density change    ...    1.0000e-07  Tolerance :   1.0000e-07
  Last RMS-Density change    ...    9.8509e-09  Tolerance :   5.0000e-09
  Last Orbital Gradient      ...    1.0618e-07  Tolerance :   1.0000e-05
  Last Orbital Rotation      ...    5.7827e-08  Tolerance :   1.0000e-05

             **** THE GBW FILE WAS UPDATED (CO2.gbw) ****
             **** DENSITY FILE WAS UPDATED (CO2.scfp) ****
             **** ENERGY FILE WAS UPDATED (CO2.en.tmp) ****
             **** THE GBW FILE WAS UPDATED (CO2.gbw) ****
             **** DENSITY FILE WAS UPDATED (CO2.scfp) ****
----------------
ORBITAL ENERGIES
----------------

  NO   OCC          E(Eh)            E(eV) 
   0   2.0000     -18.846737      -512.8458 
   1   2.0000     -18.846672      -512.8440 
   2   2.0000     -10.080575      -274.3064 
   3   2.0000      -1.046894       -28.4874 
   4   2.0000      -1.010184       -27.4885 
   5   2.0000      -0.488873       -13.3029 
   6   2.0000      -0.453028       -12.3275 
   7   2.0000      -0.453027       -12.3275 
   8   2.0000      -0.449718       -12.2374 
   9   2.0000      -0.320158        -8.7119 
  10   2.0000      -0.320156        -8.7119 
  11   0.0000      -0.006861        -0.1867 
  12   0.0000      -0.006859        -0.1867 
  13   0.0000       0.031888         0.8677 
  14   0.0000       0.326830         8.8935 
  15   0.0000       0.399046        10.8586 
  16   0.0000       0.399046        10.8586 
  17   0.0000       0.410507        11.1705 
  18   0.0000       0.703031        19.1304 
  19   0.0000       0.773162        21.0388 
  20   0.0000       0.857893        23.3444 
  21   0.0000       0.857896        23.3445 
  22   0.0000       0.993479        27.0339 
  23   0.0000       1.043295        28.3895 
  24   0.0000       1.043298        28.3896 
  25   0.0000       1.184390        32.2289 
  26   0.0000       1.465380        39.8750 
  27   0.0000       1.465381        39.8750 
  28   0.0000       1.491635        40.5895 
  29   0.0000       1.491636        40.5895 
  30   0.0000       1.512258        41.1506 
  31   0.0000       2.456555        66.8463 
  32   0.0000       2.456560        66.8464 
  33   0.0000       2.564915        69.7949 
  34   0.0000       2.564919        69.7950 
  35   0.0000       2.653623        72.2088 
  36   0.0000       2.653625        72.2088 
  37   0.0000       2.684618        73.0522 
  38   0.0000       3.403989        92.6272 
  39   0.0000       3.403992        92.6273 
  40   0.0000       3.406212        92.6877 
  41   0.0000       3.727217       101.4227 
------------------
MOLECULAR ORBITALS
------------------
                      0         1         2         3         4         5   
                 -18.84674 -18.84667 -10.08058  -1.04689  -1.01018  -0.48887
                   2.00000   2.00000   2.00000   2.00000   2.00000   2.00000
                  --------  --------  --------  --------  --------  --------
  0C   1s        -0.000003 -0.000840 -0.987999 -0.197258 -0.000004 -0.175434
  0C   2s         0.000001  0.000275 -0.050771  0.387094  0.000008  0.418855
  0C   3s        -0.000035 -0.011058  0.003972  0.027481  0.000001  0.081904
  0C   1pz       -0.000110  0.000001 -0.000001  0.000030  0.114879 -0.000022
  0C   1px       -0.000264  0.000001  0.000000 -0.000008  0.274880  0.000000
  0C   1py       -0.000161  0.000000  0.000001 -0.000022  0.167363  0.000011
  0C   2pz        0.008513 -0.000029 -0.000001 -0.000001  0.019731 -0.000023
  0C   2px        0.020370 -0.000065  0.000000 -0.000001  0.047211  0.000002
  0C   2py        0.012403 -0.000039  0.000001 -0.000001  0.028745  0.000013
  0C   1dz2      -0.000006 -0.001605  0.002193 -0.013268  0.000004 -0.001054
  0C   1dxz       0.000007  0.002276 -0.003109  0.018807  0.000007  0.001494
  0C   1dyz       0.000004  0.001386 -0.001893  0.011451  0.000003  0.000909
  0C   1dx2y2     0.000005  0.001713 -0.002340  0.014159  0.000002  0.001125
  0C   1dxy       0.000011  0.003315 -0.004529  0.027399 -0.000003  0.002176
  1O   1s        -0.696687  0.701216  0.000021  0.175425  0.192640 -0.126798
  1O   2s         0.031662 -0.030276  0.001262  0.346879  0.392032 -0.266403
  1O   3s        -0.033319  0.017044  0.009529  0.170917  0.144099 -0.289968
  1O   1pz       -0.000622  0.001090 -0.000763 -0.043806 -0.046217 -0.107762
  1O   1px       -0.001488  0.002608 -0.001825 -0.104783 -0.110535 -0.257705
  1O   1py       -0.000906  0.001588 -0.001111 -0.063791 -0.067289 -0.156876
  1O   2pz        0.002139 -0.001234 -0.002850 -0.008626 -0.003037 -0.054133
  1O   2px        0.005112 -0.002953 -0.006818 -0.020634 -0.007265 -0.129461
  1O   2py        0.003112 -0.001798 -0.004151 -0.012562 -0.004423 -0.078810
  1O   1dz2      -0.000057  0.000358 -0.000495 -0.003606 -0.003666 -0.005408
  1O   1dxz       0.000081 -0.000508  0.000702  0.005114  0.005202  0.007672
  1O   1dyz       0.000049 -0.000309  0.000427  0.003113  0.003166  0.004670
  1O   1dx2y2     0.000061 -0.000382  0.000528  0.003850  0.003915  0.005774
  1O   1dxy       0.000118 -0.000739  0.001022  0.007448  0.007572  0.011170
  2O   1s         0.701161  0.696742  0.000021  0.175433 -0.192633 -0.126799
  2O   2s        -0.031855 -0.030072  0.001262  0.346895 -0.392017 -0.266406
  2O   3s         0.033428  0.016830  0.009530  0.170923 -0.144091 -0.289971
  2O   1pz       -0.000629 -0.001086  0.000762  0.043780 -0.046173  0.107649
  2O   1px       -0.001505 -0.002599  0.001825  0.104790 -0.110534  0.257718
  2O   1py       -0.000917 -0.001582  0.001112  0.063809 -0.067311  0.156944
  2O   2pz        0.002142  0.001221  0.002849  0.008621 -0.003035  0.054081
  2O   2px        0.005132  0.002920  0.006818  0.020635 -0.007264  0.129467
  2O   2py        0.003125  0.001778  0.004152  0.012565 -0.004423  0.078841
  2O   1dz2       0.000059  0.000358 -0.000495 -0.003608  0.003670 -0.005413
  2O   1dxz      -0.000084 -0.000507  0.000701  0.005112 -0.005196  0.007665
  2O   1dyz      -0.000051 -0.000309  0.000427  0.003113 -0.003164  0.004668
  2O   1dx2y2    -0.000063 -0.000382  0.000528  0.003849 -0.003913  0.005773
  2O   1dxy      -0.000122 -0.000739  0.001022  0.007450 -0.007576  0.011174
                      6         7         8         9        10        11   
                  -0.45303  -0.45303  -0.44972  -0.32016  -0.32016  -0.00686
                   2.00000   2.00000   2.00000   2.00000   2.00000   0.00000
                  --------  --------  --------  --------  --------  --------
  0C   1s         0.000007 -0.000001  0.000001 -0.000000 -0.000000  0.000178
  0C   2s        -0.000013  0.000002 -0.000003  0.000001  0.000000 -0.000322
  0C   3s        -0.000026  0.000004 -0.000001  0.000001 -0.000000 -0.002686
  0C   1pz        0.340265 -0.212496 -0.117677  0.000005  0.000001  0.500731
  0C   1px        0.013561  0.252691 -0.281484  0.000011  0.000001  0.017347
  0C   1py       -0.255904 -0.269156 -0.171364  0.000006  0.000002 -0.372197
  0C   2pz        0.140115 -0.087498  0.018235 -0.000029 -0.000004  0.445567
  0C   2px        0.005600  0.104046  0.043668 -0.000071 -0.000012  0.015437
  0C   2py       -0.105362 -0.110829  0.026596 -0.000044 -0.000006 -0.331193
  0C   1dz2       0.000006 -0.000004  0.000000  0.029463  0.018218 -0.000047
  0C   1dxz      -0.000004  0.000004  0.000001  0.041324  0.012568  0.000059
  0C   1dyz      -0.000008 -0.000001  0.000000  0.012085  0.028798  0.000044
  0C   1dx2y2    -0.000005 -0.000002  0.000000  0.019985 -0.049779  0.000047
  0C   1dxy      -0.000005 -0.000000 -0.000000 -0.029475  0.013885  0.000085
  1O   1s        -0.000000  0.000000  0.096310 -0.000001 -0.000000  0.000147
  1O   2s         0.000003  0.000000  0.202010 -0.000010 -0.000002  0.000336
  1O   3s        -0.000017  0.000003  0.209919  0.000054  0.000009  0.000946
  1O   1pz        0.274033 -0.171136  0.130313  0.377075  0.233176 -0.308996
  1O   1px        0.010903  0.203515  0.311690  0.013695 -0.279346 -0.011040
  1O   1py       -0.206111 -0.216767  0.189753 -0.281538  0.298714  0.229366
  1O   2pz        0.147934 -0.092386  0.064691  0.262253  0.162175 -0.304083
  1O   2px        0.005889  0.109865  0.154719  0.009520 -0.194288 -0.010942
  1O   2py       -0.111264 -0.117020  0.094188 -0.195812  0.207757  0.225648
  1O   1dz2      -0.010972  0.006851  0.005491 -0.007165 -0.004430 -0.006136
  1O   1dxz      -0.015402  0.004757 -0.007788 -0.010045 -0.003054 -0.008586
  1O   1dyz      -0.004459  0.010770 -0.004741 -0.002935 -0.007001 -0.002520
  1O   1dx2y2    -0.007539 -0.018548 -0.005862 -0.004857  0.012101 -0.004121
  1O   1dxy       0.011029  0.005134 -0.011341  0.007167 -0.003376  0.006125
  2O   1s        -0.000020  0.000003 -0.096308  0.000001  0.000000  0.000147
  2O   2s        -0.000038  0.000006 -0.202006  0.000009  0.000001  0.000335
  2O   3s        -0.000057  0.000009 -0.209915 -0.000056 -0.000009  0.000947
  2O   1pz        0.274097 -0.171147  0.130159 -0.377144 -0.233186 -0.308712
  2O   1px        0.011047  0.203493  0.311699 -0.013865  0.279317 -0.010360
  2O   1py       -0.206025 -0.216784  0.189837  0.281432 -0.298728  0.229781
  2O   2pz        0.147964 -0.092392  0.064601 -0.262305 -0.162182 -0.303739
  2O   2px        0.005957  0.109855  0.154724 -0.009648  0.194266 -0.010115
  2O   2py       -0.111223 -0.117028  0.094237  0.195733 -0.207768  0.226152
  2O   1dz2       0.010963 -0.006846 -0.005497 -0.007160 -0.004427  0.006125
  2O   1dxz       0.015409 -0.004762  0.007780 -0.010047 -0.003057  0.008598
  2O   1dyz       0.004469 -0.010769  0.004738 -0.002941 -0.007000  0.002531
  2O   1dx2y2     0.007546  0.018549  0.005860 -0.004860  0.012102  0.004131
  2O   1dxy      -0.011020 -0.005134  0.011346  0.007164 -0.003375 -0.006108
                     12        13        14        15        16        17   
                  -0.00686   0.03189   0.32683   0.39905   0.39905   0.41051
                   0.00000   0.00000   0.00000   0.00000   0.00000   0.00000
                  --------  --------  --------  --------  --------  --------
  0C   1s        -0.000028  0.089818 -0.000001  0.000279  0.000424 -0.331139
  0C   2s         0.000051 -0.126622  0.000002 -0.001452 -0.002207  1.705953
  0C   3s         0.000422 -1.789194 -0.000006  0.001259  0.001913 -1.586952
  0C   1pz       -0.307900 -0.000932  0.010816  0.155190  0.822300  0.001229
  0C   1px        0.370376  0.000068  0.025880  0.406748 -0.336413 -0.000087
  0C   1py       -0.396967  0.000525  0.015757 -0.774575 -0.011906 -0.000690
  0C   2pz       -0.273980 -0.000972  1.203321 -0.222142 -1.177056 -0.001655
  0C   2px        0.329573  0.000073  2.879266 -0.582229  0.481547  0.000115
  0C   2py       -0.353236  0.000549  1.753068  1.108739  0.017040  0.000927
  0C   1dz2       0.000012 -0.024731  0.000004 -0.000038 -0.000048  0.052124
  0C   1dxz      -0.000014  0.035055  0.000005  0.000056  0.000076 -0.073883
  0C   1dyz      -0.000003  0.021344  0.000002  0.000024  0.000044 -0.044984
  0C   1dx2y2    -0.000004  0.026392  0.000001  0.000035  0.000060 -0.055624
  0C   1dxy      -0.000011  0.051070 -0.000004  0.000075  0.000118 -0.107636
  1O   1s        -0.000023  0.095650 -0.089223  0.000033  0.000050 -0.039336
  1O   2s        -0.000053  0.217628 -0.105634  0.000116  0.000177 -0.146280
  1O   3s        -0.000148  0.660596 -2.358116 -0.000188 -0.000286  0.322631
  1O   1pz        0.189936 -0.091165 -0.029497  0.016097  0.085624  0.112025
  1O   1px       -0.228397 -0.219426 -0.070715  0.042209 -0.035404  0.267716
  1O   1py        0.244884 -0.133871 -0.043084 -0.080908 -0.001437  0.162931
  1O   2pz        0.186903 -0.121591  0.189294  0.026768  0.141987  0.034370
  1O   2px       -0.224732 -0.292252  0.452534  0.070171 -0.058252  0.081769
  1O   2py        0.240974 -0.178217  0.275445 -0.133857 -0.002140  0.049687
  1O   1dz2       0.003772 -0.002477  0.008504 -0.002943 -0.015643 -0.019259
  1O   1dxz       0.002587  0.003551 -0.012059 -0.008574 -0.017960  0.027249
  1O   1dyz       0.005977  0.002158 -0.007341  0.006022 -0.013055  0.016596
  1O   1dx2y2    -0.010352  0.002664 -0.009078 -0.023119  0.008639  0.020526
  1O   1dxy       0.002899  0.005133 -0.017563  0.013836  0.005661  0.039747
  2O   1s        -0.000023  0.095650  0.089223  0.000032  0.000049 -0.039336
  2O   2s        -0.000053  0.217628  0.105632  0.000116  0.000176 -0.146279
  2O   3s        -0.000149  0.660597  2.358123 -0.000190 -0.000288  0.322622
  2O   1pz        0.189892  0.092210 -0.029609  0.016273  0.085891 -0.111754
  2O   1px       -0.228504  0.219347 -0.070709  0.042629 -0.034764 -0.267734
  2O   1py        0.244819  0.133280 -0.043023 -0.080651 -0.001047 -0.163082
  2O   2pz        0.186850  0.122655  0.188969  0.026845  0.142102 -0.033989
  2O   2px       -0.224862  0.292172  0.452557  0.070353 -0.057975 -0.081797
  2O   2py        0.240896  0.177616  0.275628 -0.133746 -0.001972 -0.049902
  2O   1dz2      -0.003768 -0.002506 -0.008507  0.002968  0.015675 -0.019224
  2O   1dxz      -0.002592  0.003513  0.012055  0.008535  0.017908  0.027296
  2O   1dyz      -0.005977  0.002143  0.007340 -0.006038  0.013025  0.016614
  2O   1dx2y2     0.010353  0.002654  0.009077  0.023095 -0.008680  0.020539
  2O   1dxy      -0.002901  0.005158  0.017566 -0.013887 -0.005742  0.039718
                     18        19        20        21        22        23   
                   0.70303   0.77316   0.85789   0.85790   0.99348   1.04330
                   0.00000   0.00000   0.00000   0.00000   0.00000   0.00000
                  --------  --------  --------  --------  --------  --------
  0C   1s        -0.000002 -0.084813  0.000000  0.000000  0.000001 -0.000036
  0C   2s         0.000017  1.221734 -0.000005 -0.000002 -0.000003  0.000564
  0C   3s         0.000001  0.515971 -0.000002 -0.000000  0.000004  0.000727
  0C   1pz       -0.406320  0.000072 -0.000062 -0.000007  0.167449  0.040618
  0C   1px       -0.972227 -0.000000 -0.000148 -0.000017  0.400667  0.000000
  0C   1py       -0.591948 -0.000036 -0.000090 -0.000011  0.243950 -0.027871
  0C   2pz        0.006255  0.000052  0.000010  0.000002  0.189128 -0.799001
  0C   2px        0.014963 -0.000004  0.000020  0.000001  0.452521  0.000073
  0C   2py        0.009110 -0.000030  0.000011  0.000003  0.275519  0.548334
  0C   1dz2       0.000022 -0.076706 -0.056130 -0.031335 -0.000126 -0.000043
  0C   1dxz       0.000029  0.108726 -0.077652 -0.019878 -0.000168  0.000091
  0C   1dyz       0.000011  0.066198 -0.024789 -0.052389 -0.000064  0.000027
  0C   1dx2y2     0.000008  0.081856 -0.032929  0.093943 -0.000046  0.000061
  0C   1dxy      -0.000019  0.158398  0.053494 -0.028183  0.000106  0.000135
  1O   1s         0.107584 -0.098656 -0.000026 -0.000003 -0.022653  0.000067
  1O   2s         0.339557 -0.357177 -0.000159 -0.000017 -0.040425  0.000456
  1O   3s         0.298760 -0.311417  0.000246  0.000028 -0.507713 -0.000938
  1O   1pz       -0.020294 -0.153950 -0.537945 -0.300293  0.252110 -0.542203
  1O   1px       -0.048518 -0.368300 -0.001892  0.388577  0.603245  0.000127
  1O   1py       -0.029532 -0.224230  0.372146 -0.432104  0.367293  0.372169
  1O   2pz       -0.289185  0.387875  0.662065  0.369603 -0.191630  0.924617
  1O   2px       -0.691621  0.927823  0.002196 -0.478288 -0.458980  0.000155
  1O   2py       -0.421031  0.564858 -0.458131  0.531838 -0.279551 -0.634326
  1O   1dz2       0.027331  0.003768  0.006601  0.003683 -0.007776  0.023098
  1O   1dxz      -0.038782 -0.005346  0.009118  0.002335  0.011086  0.031893
  1O   1dyz      -0.023608 -0.003254  0.002908  0.006156  0.006743  0.010260
  1O   1dx2y2    -0.029188 -0.004024  0.003864 -0.011039  0.008332  0.013320
  1O   1dxy      -0.056457 -0.007784 -0.006295  0.003311  0.016086 -0.021892
  2O   1s        -0.107585 -0.098654  0.000027  0.000003  0.022654  0.000067
  2O   2s        -0.339561 -0.357170  0.000162  0.000019  0.040430  0.000455
  2O   3s        -0.298768 -0.311419 -0.000245 -0.000028  0.507707 -0.000925
  2O   1pz       -0.020261  0.153902  0.537874  0.300285  0.252123 -0.542265
  2O   1px       -0.048519  0.368305  0.001722 -0.388597  0.603244 -0.000024
  2O   1py       -0.029549  0.224258 -0.372250  0.432093  0.367285  0.372076
  2O   2pz       -0.288923 -0.387661 -0.662089 -0.369607 -0.192016  0.924418
  2O   2px       -0.691655 -0.927834 -0.002250  0.478284 -0.458952 -0.000320
  2O   2py       -0.421190 -0.564975  0.458099 -0.531843 -0.279334 -0.634615
  2O   1dz2      -0.027362  0.003772  0.006590  0.003680  0.007824 -0.023079
  2O   1dxz       0.038742 -0.005342  0.009131  0.002337 -0.011023 -0.031897
  2O   1dyz       0.023593 -0.003253  0.002918  0.006156 -0.006719 -0.010284
  2O   1dx2y2     0.029177 -0.004023  0.003874 -0.011038 -0.008315 -0.013330
  2O   1dxy       0.056483 -0.007787 -0.006277  0.003312 -0.016126  0.021888
                     24        25        26        27        28        29   
                   1.04330   1.18439   1.46538   1.46538   1.49164   1.49164
                   0.00000   0.00000   0.00000   0.00000   0.00000   0.00000
                  --------  --------  --------  --------  --------  --------
  0C   1s        -0.000004  0.088008 -0.000000  0.000000  0.000000 -0.000000
  0C   2s         0.000062 -1.381075  0.000001  0.000001 -0.000000  0.000000
  0C   3s         0.000079 -2.518794  0.000003  0.000005  0.000001  0.000000
  0C   1pz        0.022420 -0.000068  0.000022  0.000011 -0.000065 -0.000014
  0C   1px       -0.029263  0.000006 -0.000013  0.000009 -0.000155 -0.000033
  0C   1py        0.032673  0.000039  0.000006 -0.000022 -0.000094 -0.000020
  0C   2pz       -0.441054 -0.000672 -0.000101 -0.000049  0.000062  0.000013
  0C   2px        0.575677  0.000054  0.000058 -0.000041  0.000147  0.000031
  0C   2py       -0.642755  0.000382 -0.000026  0.000101  0.000089  0.000019
  0C   1dz2       0.000013  0.119240 -0.733445 -0.044081 -0.381838 -0.264955
  0C   1dxz      -0.000008 -0.169016  0.286333 -0.452138 -0.544743 -0.197636
  0C   1dyz       0.000018 -0.102905  0.111064  0.777535 -0.141514 -0.394388
  0C   1dx2y2     0.000019 -0.127247 -0.261101  0.270516 -0.303007  0.652774
  0C   1dxy       0.000023 -0.246232 -0.463208 -0.175745  0.404737 -0.165162
  1O   1s         0.000007 -0.179922  0.000000  0.000000  0.000066  0.000014
  1O   2s         0.000050 -1.285750  0.000001  0.000003  0.000374  0.000080
  1O   3s        -0.000103  2.919392 -0.000003 -0.000005 -0.000381 -0.000082
  1O   1pz       -0.299315 -0.007968 -0.000009 -0.000004  0.137047  0.095143
  1O   1px        0.390689 -0.018468  0.000005 -0.000004  0.010486 -0.104801
  1O   1py       -0.436198 -0.011119 -0.000003  0.000007 -0.111918  0.106687
  1O   2pz        0.510351 -0.395614  0.000086  0.000044  0.104330  0.072356
  1O   2px       -0.666086 -0.947482 -0.000048  0.000037  0.008333 -0.079588
  1O   2py        0.743744 -0.577067  0.000022 -0.000086 -0.084856  0.081146
  1O   1dz2       0.012752  0.008190 -0.106803 -0.006407  0.106860  0.074156
  1O   1dxz       0.007996 -0.011570  0.041734 -0.065830  0.152386  0.055263
  1O   1dyz       0.021447 -0.007049  0.016203  0.113248  0.039537  0.110345
[...]
                                                                              
------------------------------------------------------------------------------
Method:  dft/svp 
  
Egcp:       0.0101120108 a.u.
------------------   -----------------
gCP correction             0.010112011
------------------   -----------------

-------------------------   --------------------
FINAL SINGLE POINT ENERGY      -188.395477477240
-------------------------   --------------------

                                *** OPTIMIZATION RUN DONE ***

                            ***************************************
                            *     ORCA property calculations      *
                            ***************************************

                                    ---------------------
                                    Active property flags
                                    ---------------------
   (+) Dipole Moment


------------------------------------------------------------------------------
                       ORCA ELECTRIC PROPERTIES CALCULATION
------------------------------------------------------------------------------

Dipole Moment Calculation                       ... on
Quadrupole Moment Calculation                   ... off
Polarizability Calculation                      ... off
GBWName                                         ... CO2.gbw
Electron density file                           ... CO2.scfp
The origin for moment calculation is the CENTER OF MASS  = (-0.741942, -0.508802 -3.851116)

-------------
DIPOLE MOMENT
-------------
                                X             Y             Z
Electronic contribution:      0.00001       0.00004      -0.00007
Nuclear contribution   :     -0.00000      -0.00000       0.00000
                        -----------------------------------------
Total Dipole Moment    :      0.00001       0.00004      -0.00007
                        -----------------------------------------
Magnitude (a.u.)       :      0.00008
Magnitude (Debye)      :      0.00021



--------------------
Rotational spectrum 
--------------------
 
Rotational constants in cm-1: 191723775.635338     0.379127     0.379127 
Rotational constants in MHz : 5747734195475.851562 11365.932934 11365.932912 

 Dipole components along the rotational axes: 
x,y,z [a.u.] :    -0.000002    -0.000082     0.000001 
x,y,z [Debye]:    -0.000005    -0.000210     0.000001 

 


           ************************************************************
           *        Program running with 4 parallel MPI-processes     *
           *              working on a common directory               *
           ************************************************************

-------------------------------------------------------------------------------
                               ORCA SCF HESSIAN
-------------------------------------------------------------------------------

Hessian of the Kohn-Sham DFT energy:
Kohn-Sham wavefunction type                      ... RKS
Hartree-Fock exchange scaling                    ...    0.000
Number of operators                              ...    1
Number of atoms                                  ...    3
Basis set dimensions                             ...   42
Integral neglect threshold                       ... 2.5e-11
Integral primitive cutoff                        ... 2.5e-12

Setting up DFT Hessian calculations              ... 
Electron density on the grid                     ... found on disk
Electron density on the final grid               ... found on disk
Building xc-kernel on the grid                   ... done   (      0.0 sec)
Building xc-kernel on the final grid             ... done   (      0.0 sec)
                                                     done   (      0.2 sec)

Nuclear repulsion Hessian                        ... done   (      0.0 sec)

----------------------------------------------------------
Detailed info about batch handling over perturbations
----------------------------------------------------------

Number of atoms                                    3
Total number of perturbations                      9
Number of perturbations per process                3
Storage mode                                  InCore

Batching info for step 0
Memory available                   ...       1005.2 MB
Memory needed per perturbation     ...          0.0 MB
Number of perturbations per batch  ...            3
Number of batches                  ...            1

Batching info for step 1
Memory available                   ...       1005.2 MB
Memory needed per perturbation     ...          0.0 MB
Number of perturbations per batch  ...            3
Number of batches                  ...            1

Batching info for step 2
Memory available                   ...       1005.2 MB
Memory needed per perturbation     ...          0.0 MB
Number of perturbations per batch  ...            1
Number of batches                  ...            3

Batching info for step 3
Memory available                   ...       1005.2 MB
Memory needed per perturbation     ...          0.0 MB
Number of perturbations per batch  ...            3
Number of batches                  ...            1

Batching info for step 4
Memory available                   ...       1005.2 MB
Memory needed per perturbation     ...          0.0 MB
Number of perturbations per batch  ...            3
Number of batches                  ...            1

Batching info for step 5
Memory available                   ...       1005.2 MB
Memory needed per perturbation     ...          0.3 MB
Number of perturbations per batch  ...            3
Number of batches                  ...            1

Batching info for step 6
Memory available                   ...       1005.2 MB
Memory needed per perturbation     ...          0.1 MB
Number of perturbations per batch  ...            3
Number of batches                  ...            1


----------------------------------------------
Forming right-hand sides of CP-SCF equations     ...
----------------------------------------------

------------------------
Batching info for step 0
------------------------
Number of perturbation per batch  ...            3
Number of batches                 ...            1
Storage mode                      ...       InCore

One electron integral derivatives                ... done   (      0.1 sec)

------------------------
Batching info for step 1
------------------------
Number of perturbation per batch  ...            3
Number of batches                 ...            1
Storage mode                      ...       InCore

Transforming the overlap derivative matrices     ... done   (      0.0 sec)

------------------------
Batching info for step 1
------------------------
Number of perturbation per batch  ...            3
Number of batches                 ...            1
Storage mode                      ...       InCore

Making the Q(x) pseudodensities                  ... done   (      0.0 sec)
Adding the E*S(x)*S(y) terms to the Hessian      ... done   (      0.0 sec)
Calculating energy weighted overlap derivatives  ... done   (      0.0 sec)

------------------------
Batching info for step 3
------------------------
Number of perturbation per batch  ...            3
Number of batches                 ...            1
Storage mode                      ...       InCore

Two electron integral derivatives (RI)           ... done   (      0.2 sec)

------------------------
Batching info for step 4
------------------------
Number of perturbation per batch  ...            3
Number of batches                 ...            1
Storage mode                      ...       InCore

Exchange-correlation integral derivatives        ... done   (      0.6 sec)
tr(F(y)Q(x)) contribution to the Hessian         ... done   (      0.0 sec)

------------------------
Batching info for step 5
------------------------
Number of perturbation per batch  ...            3
Number of batches                 ...            1
Storage mode                      ...       InCore

Response fock operator R(S(x)) (RI)              ... (RIJ)done   (      0.4 sec)

------------------------
Batching info for step 6
------------------------
Number of perturbation per batch  ...            3
Number of batches                 ...            1
Storage mode                      ...       InCore

XC Response fock operator R(S(x))                ... done   (      0.3 sec)
tr(F(y)S(x)) contribution to the Hessian         ... done   (      0.0 sec)
Transforming and finalizing RHSs                 ... done   (      0.0 sec)

----------------------------------------------
Solving the CP-SCF equations (RI)                ...
----------------------------------------------
     CP-SCF ITERATION   0: 
     CP-SCF ITERATION   1:      0.004010285607
     CP-SCF ITERATION   2:      0.000048455199
     CP-SCF ITERATION   3:      0.000000721451
     CP-SCF ITERATION   4:      0.000000014732
     CP-SCF ITERATION   5:      0.000000006802

                                                 ... done   (      2.2 sec)
Forming perturbed density Hessian contributions  ... done   (      0.0 sec)
Making the perturbed densities                   ... done   (      0.0 sec)
2nd integral derivative contribs (RI)            ... done   (      0.3 sec)
Exchange-correlation Hessian                     ... done   (      0.7 sec)
Dispersion correction in the Hessian             ... 
The revPBE functional is recognized
Active option DFTDOPT                   ...         5   



------------------- 
Dispersion Gradient 
------------------- 
   1  :    0.000000081   -0.000000003   -0.000000006
   2  :    0.000292416    0.000178067    0.000122229
   3  :   -0.000292511   -0.000178072   -0.000122228

  |G| =    0.001185613


The revPBE functional is recognized
Active option DFTDOPT                   ...         5   



------------------- 
Dispersion Gradient 
------------------- 
   1  :   -0.000000080    0.000000006    0.000000000
   2  :    0.000292511    0.000178070    0.000122231
   3  :   -0.000292417   -0.000178068   -0.000122226

  |G| =    0.001185610


The revPBE functional is recognized
Active option DFTDOPT                   ...         5   



------------------- 
Dispersion Gradient 
------------------- 
   1  :    0.000000003   -0.000000041   -0.000000002
   2  :    0.000292795    0.000178701    0.000122369
   3  :   -0.000292794   -0.000178657   -0.000122365

  |G| =    0.001187727


The revPBE functional is recognized
Active option DFTDOPT                   ...         5   



------------------- 
Dispersion Gradient 
------------------- 
   1  :   -0.000000002    0.000000044   -0.000000004
   2  :    0.000292131    0.000177436    0.000122091
   3  :   -0.000292133   -0.000177483   -0.000122089

  |G| =    0.001183413


The revPBE functional is recognized
Active option DFTDOPT                   ...         5   



------------------- 
Dispersion Gradient 
------------------- 
   1  :    0.000000002    0.000000003   -0.000000046
   2  :    0.000292237    0.000177930    0.000121750
   3  :   -0.000292236   -0.000177931   -0.000121702

  |G| =    0.001183836


The revPBE functional is recognized
Active option DFTDOPT                   ...         5   



------------------- 
Dispersion Gradient 
------------------- 
   1  :   -0.000000001    0.000000001    0.000000040
   2  :    0.000292690    0.000178206    0.000122711
   3  :   -0.000292692   -0.000178209   -0.000122753

  |G| =    0.001187303


Dispersion correction Hessian from Numerical Differentiation: 
                  0          1          2          3          4          5    
      0       0.000016   0.000000   0.000000   0.000000   0.000000   0.000000
      1       0.000000   0.000000   0.000000   0.000000  -0.000009   0.000000
      2       0.000000   0.000000   0.000000   0.000000   0.000000   0.000000
      3       0.000000   0.000000   0.000000   0.000000   0.000066   0.000000
      4       0.000000  -0.000009   0.000000   0.000066   0.000127   0.000000
      5       0.000000   0.000000   0.000000   0.000000   0.000000   0.000000
      6       0.000000   0.000000   0.000000   0.000000   0.000000   0.000000
      7       0.000000   0.000000   0.000000   0.000000   0.000000   0.000000
      8       0.000000   0.000000  -0.000009  -0.000045  -0.000028  -0.000096
                   6          7          8    
      0       0.000000   0.000000   0.000000
      1       0.000000   0.000000   0.000000
      2       0.000000   0.000000  -0.000009
      3       0.000000   0.000000  -0.000045
      4       0.000000   0.000000  -0.000028
      5       0.000000   0.000000  -0.000096
      6       0.000000   0.000000   0.000046
      7       0.000000   0.000000   0.000028
      8       0.000046   0.000028   0.000105

done   (      0.3 sec)
gCP correction in the Hessian                    ...  
-----------------
gCP hessian 
from Numerical Differentiation: 
-----------------
                  0          1          2          3          4          5    
      0       0.001204   0.002162   0.001484  -0.000602  -0.001081  -0.000742
      1       0.002162  -0.001030   0.000904  -0.001081   0.000515  -0.000452
      2       0.001484   0.000904  -0.001727  -0.000742  -0.000452   0.000863
      3      -0.000602  -0.001081  -0.000742   0.000866   0.001396   0.000959
      4      -0.001081   0.000515  -0.000452   0.001396  -0.000577   0.000584
      5      -0.000742  -0.000452   0.000863   0.000959   0.000584  -0.001027
      6      -0.000602  -0.001081  -0.000742  -0.000264  -0.000315  -0.000216
      7      -0.001081   0.000515  -0.000452  -0.000315   0.000062  -0.000132
      8      -0.000742  -0.000452   0.000863  -0.000216  -0.000132   0.000164
                   6          7          8    
      0      -0.000602  -0.001081  -0.000742
      1      -0.001081   0.000515  -0.000452
      2      -0.000742  -0.000452   0.000863
      3      -0.000264  -0.000315  -0.000216
      4      -0.000315   0.000062  -0.000132
      5      -0.000216  -0.000132   0.000164
      6       0.000866   0.001396   0.000958
      7       0.001396  -0.000577   0.000584
      8       0.000958   0.000584  -0.001027

done   (      0.0 sec)
Dipol derivatives                                ... done   (      0.1 sec)

-------
TIMINGS
-------

Total SCF Hessian time: 0 days 0 hours 0 min 5 sec 
                   F(y)            G[Q(x)]           CPSCF         Total
Table01         0.2  0.04         0.4  0.07         2.2  0.38         5.7 
Table01a        0.2  0.04,        0.4, 0.07,        2.2  0.38         5.7 
Table01b        0.2   3.8,        0.4,  6.5,        2.2  38.0         5.7 

Writing the Hessian file to the disk             ... done


Maximum memory used throughout the entire calculation: 131.7 MB
Warning: T+R between 5 and 0 = 3.600e-12

-----------------------
VIBRATIONAL FREQUENCIES
-----------------------

Scaling factor for frequencies =  1.000000000  (already applied!)

   0:         0.00 cm**-1
   1:         0.00 cm**-1
   2:         0.00 cm**-1
   3:         0.00 cm**-1
   4:         0.00 cm**-1
   5:         0.00 cm**-1
   6:       619.52 cm**-1
   7:      1323.59 cm**-1
   8:      2387.66 cm**-1


------------
NORMAL MODES
------------

These modes are the Cartesian displacements weighted by the diagonal matrix
M(i,i)=1/sqrt(m[i]) where m[i] is the mass of the displaced atom
Thus, these vectors are normalized but *not* orthogonal

                  0          1          2          3          4          5    
      0       0.000000   0.000000   0.000000   0.000000   0.000000   0.000000
      1       0.000000   0.000000   0.000000   0.000000   0.000000   0.000000
      2       0.000000   0.000000   0.000000   0.000000   0.000000   0.000000
      3       0.000000   0.000000   0.000000   0.000000   0.000000   0.000000
      4       0.000000   0.000000   0.000000   0.000000   0.000000   0.000000
      5       0.000000   0.000000   0.000000   0.000000   0.000000   0.000000
      6       0.000000   0.000000   0.000000   0.000000   0.000000   0.000000
      7       0.000000   0.000000   0.000000   0.000000   0.000000   0.000000
      8       0.000000   0.000000   0.000000   0.000000   0.000000   0.000000
                   6          7          8    
      0       0.090849   0.000014  -0.710519
      1       0.390815   0.000061  -0.432622
      2      -0.786869  -0.000121  -0.296905
      3      -0.034173   0.568806   0.266703
      4      -0.146742   0.346303   0.162380
      5       0.295335   0.237767   0.111474
      6      -0.034031  -0.568817   0.266708
      7      -0.146656  -0.346349   0.162405
      8       0.295394  -0.237676   0.111423


-----------
IR SPECTRUM
-----------

 Mode    freq (cm**-1)   T**2         TX         TY         TZ
-------------------------------------------------------------------
   6:       619.52   22.937065  (  0.492264   2.118877  -4.266744)
   7:      1323.59    0.000000  (  0.000030   0.000104  -0.000203)
   8:      2387.66  487.446016  (-17.760368 -10.813271  -7.422164)

The first frequency considered to be a vibration is 6
The total number of vibrations considered is 3


--------------------------
THERMOCHEMISTRY AT 298.15K
--------------------------

Temperature         ... 298.15 K
Pressure            ... 1.00 atm
Total Mass          ... 44.01 AMU

Throughout the following assumptions are being made:
  (1) The electronic state is orbitally nondegenerate
  (2) There are no thermally accessible electronically excited states
  (3) Hindered rotations indicated by low frequency modes are not
      treated as such but are treated as vibrations and this may
      cause some error
  (4) All equations used are the standard statistical mechanics
      equations for an ideal gas
  (5) All vibrations are strictly harmonic

freq.     619.52  E(vib)   ...       0.09 
freq.    1323.59  E(vib)   ...       0.01 
freq.    2387.66  E(vib)   ...       0.00 

------------
INNER ENERGY
------------

The inner energy is: U= E(el) + E(ZPE) + E(vib) + E(rot) + E(trans)
    E(el)   - is the total energy from the electronic structure calculation
              = E(kin-el) + E(nuc-el) + E(el-el) + E(nuc-nuc)
    E(ZPE)  - the the zero temperature vibrational energy from the frequency calculation
    E(vib)  - the the finite temperature correction to E(ZPE) due to population
              of excited vibrational states
    E(rot)  - is the rotational thermal energy
    E(trans)- is the translational thermal energy

Summary of contributions to the inner energy U:
Electronic energy                ...   -188.39547748 Eh
Zero point energy                ...      0.00986622 Eh       6.19 kcal/mol
Thermal vibrational correction   ...      0.00015982 Eh       0.10 kcal/mol
Thermal rotational correction    ...      0.00141627 Eh       0.89 kcal/mol
Thermal translational correction ...      0.00141627 Eh       0.89 kcal/mol
-----------------------------------------------------------------------
Total thermal energy                   -188.38261890 Eh


Summary of corrections to the electronic energy:
(perhaps to be used in another calculation)
Total thermal correction                  0.00299236 Eh       1.88 kcal/mol
Non-thermal (ZPE) correction              0.00986622 Eh       6.19 kcal/mol
-----------------------------------------------------------------------
Total correction                          0.01285857 Eh       8.07 kcal/mol


--------
ENTHALPY
--------

The enthalpy is H = U + kB*T
                kB is Boltzmann's constant
Total free energy                 ...   -188.38261890 Eh 
Thermal Enthalpy correction       ...      0.00094421 Eh       0.59 kcal/mol
-----------------------------------------------------------------------
Total Enthalpy                    ...   -188.38167469 Eh

[file orca_tools/Tool-Symmetry/symmain.cpp, line 3070]: Error (ORCA_SYM): TMoleculeSymmetry::CleanUp molecule is linear but not aligned to z axis!

