
                                 *****************
                                 * O   R   C   A *
                                 *****************

           --- An Ab Initio, DFT and Semiempirical electronic structure package ---

                  #######################################################
                  #                        -***-                        #
                  #          Department of theory and spectroscopy      #
                  #               Directorship: Frank Neese             #
                  #        Max Planck Institute fuer Kohlenforschung    #
                  #                Kaiser Wilhelm Platz 1               #
                  #                 D-45470 Muelheim/Ruhr               #
                  #                      Germany                        #
                  #                                                     #
                  #                  All rights reserved                #
                  #                        -***-                        #
                  #######################################################


                         Program Version 4.2.1 -  RELEASE  -


 With contributions from (in alphabetic order):
   Daniel Aravena         : Magnetic Suceptibility
   Michael Atanasov       : Ab Initio Ligand Field Theory (pilot matlab implementation)
   Alexander A. Auer      : GIAO ZORA, VPT2
   Ute Becker             : Parallelization
   Giovanni Bistoni       : ED, misc. LED, open-shell LED, HFLD
   Martin Brehm           : Molecular dynamics
   Dmytro Bykov           : SCF Hessian
   Vijay G. Chilkuri      : MRCI spin determinant printing, contributions to CSF-ICE
   Dipayan Datta          : RHF DLPNO-CCSD density
   Achintya Kumar Dutta   : EOM-CC, STEOM-CC
   Dmitry Ganyushin       : Spin-Orbit,Spin-Spin,Magnetic field MRCI
   Miquel Garcia          : C-PCM Hessian, Gaussian charge scheme
   Yang Guo               : DLPNO-NEVPT2, CIM, IAO-localization
   Andreas Hansen         : Spin unrestricted coupled pair/coupled cluster methods
   Benjamin Helmich-Paris : CASSCF linear response (MC-RPA)
   Lee Huntington         : MR-EOM, pCC
   Robert Izsak           : Overlap fitted RIJCOSX, COSX-SCS-MP3, EOM
   Christian Kollmar      : KDIIS, OOCD, Brueckner-CCSD(T), CCSD density
   Simone Kossmann        : Meta GGA functionals, TD-DFT gradient, OOMP2, MP2 Hessian
   Martin Krupicka        : AUTO-CI
   Lucas Lang             : DCDCAS
   Dagmar Lenk            : GEPOL surface, SMD
   Dimitrios Liakos       : Extrapolation schemes; Compound Job, initial MDCI parallelization
   Dimitrios Manganas     : Further ROCIS development; embedding schemes
   Dimitrios Pantazis     : SARC Basis sets
   Taras Petrenko         : DFT Hessian,TD-DFT gradient, ASA, ECA, R-Raman, ABS, FL, XAS/XES, NRVS
   Peter Pinski           : DLPNO-MP2, DLPNO-MP2 Gradient
   Christoph Reimann      : Effective Core Potentials
   Marius Retegan         : Local ZFS, SOC
   Christoph Riplinger    : Optimizer, TS searches, QM/MM, DLPNO-CCSD(T), (RO)-DLPNO pert. Triples
   Tobias Risthaus        : Range-separated hybrids, TD-DFT gradient, RPA, STAB
   Michael Roemelt        : Original ROCIS implementation
   Masaaki Saitow         : Open-shell DLPNO-CCSD energy and density
   Barbara Sandhoefer     : DKH picture change effects
   Avijit Sen             : IP-ROCIS
   Kantharuban Sivalingam : CASSCF convergence, NEVPT2, FIC-MRCI
   Bernardo de Souza      : ESD, SOC TD-DFT
   Georgi Stoychev        : AutoAux, RI-MP2 NMR
   Willem Van den Heuvel  : Paramagnetic NMR
   Boris Wezisla          : Elementary symmetry handling
   Frank Wennmohs         : Technical directorship


 We gratefully acknowledge several colleagues who have allowed us to
 interface, adapt or use parts of their codes:
   Stefan Grimme, W. Hujo, H. Kruse,             : VdW corrections, initial TS optimization,
                  C. Bannwarth                     DFT functionals, gCP, sTDA/sTD-DF
   Ed Valeev, F. Pavosevic, A. Kumar             : LibInt (2-el integral package), F12 methods
   Garnet Chan, S. Sharma, J. Yang, R. Olivares  : DMRG
   Ulf Ekstrom                                   : XCFun DFT Library
   Mihaly Kallay                                 : mrcc  (arbitrary order and MRCC methods)
   Andreas Klamt, Michael Diedenhofen            : otool_cosmo (COSMO solvation model)
   Jiri Pittner, Ondrej Demel                    : Mk-CCSD
   Frank Weinhold                                : gennbo (NPA and NBO analysis)
   Christopher J. Cramer and Donald G. Truhlar   : smd solvation model
   Lars Goerigk                                  : TD-DFT with DH, B97 family of functionals
   V. Asgeirsson, H. Jonsson                     : NEB implementation
   FAccTs GmbH                                   : IRC, NEB, NEB-TS, Multilevel, MM, QM/MM, CI optimization
   S Lehtola, MJT Oliveira, MAL Marques          : LibXC Library


 Your calculation uses the libint2 library for the computation of 2-el integrals
 For citations please refer to: http://libint.valeyev.net

 Your ORCA version has been built with support for libXC version: 4.2.3
 For citations please refer to: https://tddft.org/programs/libxc/

 This ORCA versions uses:
   CBLAS   interface :  Fast vector & matrix operations
   LAPACKE interface :  Fast linear algebra routines
   SCALAPACK package :  Parallel linear algebra routines


Your calculation utilizes the geometrical counterpoise correction gCP
Please cite in your paper:
H.Kruse, S. Grimme J.Chem.Phys., 136, (2012), 154101 
   

Your calculation utilizes the atom-pairwise dispersion correction
based on tight binding partial charges (D4)
Cite in your paper:
E.Caldeweyher, C.Bannwarth, S.Grimme, J.Chem.Phys., (2017), 147, 034112.
E.Caldeweyher, S.Ehlert, A.Hansen, H.Neugebauer, S.Grimme, J.Chem.Phys., (2018), in progress.
   

----- Orbital basis set information -----
Your calculation utilizes the basis: def2-SVP
   F. Weigend and R. Ahlrichs, Phys. Chem. Chem. Phys. 7, 3297 (2005).

----- AuxJ basis set information -----
Your calculation utilizes the auxiliary basis: def2/J
   F. Weigend, Phys. Chem. Chem. Phys. 8, 1057 (2006).

================================================================================
                                        WARNINGS
                       Please study these warnings very carefully!
================================================================================


WARNING: Geometry Optimization
  ===> : Switching off AutoStart
         For restart on a previous wavefunction, please use MOREAD

INFO   : the flag for use of LIBINT has been found!

================================================================================
                                       INPUT FILE
================================================================================
NAME = cyclohexane-chair.inp
|  1> ! revPBE D4 gCP(DFT/SVP) def2-SVP Opt Freq TightOpt TightSCF Grid4 FinalGrid5 LargePrint
|  2> 
|  3> %pal
|  4>  nprocs 12
|  5> end
|  6> 
|  7> *xyz 0 1
|  8> C       -1.4503480518      2.8363914020      0.0553052366                 
|  9> C       -0.6544034787      1.9312137321     -0.8962490475                 
| 10> C       -0.6728438901      3.0517716700      1.3619913128                 
| 11> H       -2.4312390562      2.3630882181      0.2821524762                 
| 12> H       -1.6419413873      3.8161463192     -0.4324219525                 
| 13> C       -0.3738669951      1.7034282845      2.0334918248                 
| 14> H        0.2836083760      3.5753737226      1.1413950645                 
| 15> H       -1.2672021079      3.6896287686      2.0507453055                 
| 16> C       -0.3554265907      0.5828705600     -0.2247481042                 
| 17> H        0.3024603821      2.4298046613     -1.1672497597                 
| 18> H       -1.2355248840      1.7647170590     -1.8284948197                 
| 19> C        0.4220782963      0.7982515241      1.0819373626                 
| 20> H       -1.3118787336      0.0592686403     -0.0041508952                 
| 21> H        0.2389311212     -0.0549869585     -0.9135021221                 
| 22> H       -1.3307307165      1.2048366695      2.3044918571                 
| 23> H        0.2072539058      1.8699247230      2.9657379367                 
| 24> H        1.4029687472      1.2715557151      0.8550896161                 
| 25> H        0.6136729134     -0.1815031626      1.5696644479                 
| 26> *
| 27> 
| 28>                          ****END OF INPUT****
================================================================================

                       *****************************
                       * Geometry Optimization Run *
                       *****************************

Geometry optimization settings:
Update method            Update   .... BFGS
Choice of coordinates    CoordSys .... Z-matrix Internals
Initial Hessian          InHess   .... Almoef's Model

Convergence Tolerances:
Energy Change            TolE     ....  1.0000e-06 Eh
Max. Gradient            TolMAXG  ....  1.0000e-04 Eh/bohr
RMS Gradient             TolRMSG  ....  3.0000e-05 Eh/bohr
Max. Displacement        TolMAXD  ....  1.0000e-03 bohr
RMS Displacement         TolRMSD  ....  6.0000e-04 bohr
Strict Convergence                ....  False
------------------------------------------------------------------------------
                        ORCA OPTIMIZATION COORDINATE SETUP
------------------------------------------------------------------------------

The optimization will be done in new redundant internal coordinates
Making redundant internal coordinates   ...  (new redundants) done
Evaluating the initial hessian          ...  (Almloef) done
Evaluating the coordinates              ...  done
Calculating the B-matrix                .... done
Calculating the G-matrix                .... done
Diagonalizing the G-matrix              .... done
The first mode is                       ....   60
The number of degrees of freedom        ....   48

    -----------------------------------------------------------------
                    Redundant Internal Coordinates


    -----------------------------------------------------------------
         Definition                    Initial Value    Approx d2E/dq
    -----------------------------------------------------------------
      1. B(C   1,C   0)                  1.5357         0.365853   
      2. B(C   2,C   0)                  1.5357         0.365853   
      3. B(H   3,C   0)                  1.1125         0.331551   
      4. B(H   4,C   0)                  1.1111         0.333263   
      5. B(C   5,C   2)                  1.5357         0.365853   
      6. B(H   6,C   2)                  1.1125         0.331551   
      7. B(H   7,C   2)                  1.1111         0.333263   
      8. B(C   8,C   1)                  1.5357         0.365853   
      9. B(H   9,C   1)                  1.1125         0.331551   
     10. B(H  10,C   1)                  1.1111         0.333263   
     11. B(C  11,C   8)                  1.5357         0.365853   
     12. B(C  11,C   5)                  1.5357         0.365853   
     13. B(H  12,C   8)                  1.1125         0.331551   
     14. B(H  13,C   8)                  1.1111         0.333263   
     15. B(H  14,C   5)                  1.1125         0.331551   
     16. B(H  15,C   5)                  1.1111         0.333263   
     17. B(H  16,C  11)                  1.1125         0.331551   
     18. B(H  17,C  11)                  1.1111         0.333263   
     19. A(C   1,C   0,C   2)          110.3337         0.360770   
     20. A(C   1,C   0,H   4)          109.7026         0.319139   
     21. A(C   2,C   0,H   4)          109.7026         0.319139   
     22. A(C   2,C   0,H   3)          109.4247         0.318871   
     23. A(H   3,C   0,H   4)          108.2177         0.283658   
     24. A(C   1,C   0,H   3)          109.4247         0.318871   
     25. A(C   0,C   1,H  10)          109.7026         0.319139   
     26. A(C   0,C   1,H   9)          109.4248         0.318871   
     27. A(C   0,C   1,C   8)          110.3337         0.360770   
     28. A(C   8,C   1,H  10)          109.7026         0.319139   
     29. A(H   9,C   1,H  10)          108.2177         0.283658   
     30. A(C   8,C   1,H   9)          109.4247         0.318871   
     31. A(H   6,C   2,H   7)          108.2177         0.283658   
     32. A(C   5,C   2,H   7)          109.7026         0.319139   
     33. A(C   0,C   2,H   7)          109.7026         0.319139   
     34. A(C   5,C   2,H   6)          109.4247         0.318871   
     35. A(C   0,C   2,H   6)          109.4248         0.318871   
     36. A(C   0,C   2,C   5)          110.3337         0.360770   
     37. A(C  11,C   5,H  15)          109.7027         0.319139   
     38. A(C   2,C   5,H  15)          109.7026         0.319139   
     39. A(C  11,C   5,H  14)          109.4247         0.318871   
     40. A(C   2,C   5,H  14)          109.4248         0.318871   
     41. A(H  14,C   5,H  15)          108.2177         0.283658   
     42. A(C   2,C   5,C  11)          110.3337         0.360770   
     43. A(H  12,C   8,H  13)          108.2177         0.283658   
     44. A(C  11,C   8,H  13)          109.7027         0.319139   
     45. A(C   1,C   8,H  13)          109.7026         0.319139   
     46. A(C  11,C   8,H  12)          109.4247         0.318871   
     47. A(C   1,C   8,H  12)          109.4248         0.318871   
     48. A(C   1,C   8,C  11)          110.3337         0.360770   
     49. A(C   5,C  11,C   8)          110.3337         0.360770   
     50. A(H  16,C  11,H  17)          108.2177         0.283658   
     51. A(C   8,C  11,H  17)          109.7026         0.319139   
     52. A(C   5,C  11,H  17)          109.7026         0.319139   
     53. A(C   8,C  11,H  16)          109.4248         0.318871   
     54. A(C   5,C  11,H  16)          109.4248         0.318871   
     55. D(H  10,C   1,C   0,H   4)    -60.2345         0.010715   
     56. D(H   9,C   1,C   0,C   2)    -62.6252         0.010715   
     57. D(C   8,C   1,C   0,H   3)    -62.6252         0.010715   
     58. D(C   8,C   1,C   0,C   2)     57.8229         0.010715   
     59. D(H   9,C   1,C   0,H   3)    176.9267         0.010715   
     60. D(H   9,C   1,C   0,H   4)     58.3461         0.010715   
     61. D(C   8,C   1,C   0,H   4)    178.7942         0.010715   
     62. D(H  10,C   1,C   0,H   3)     58.3461         0.010715   
     63. D(H  10,C   1,C   0,C   2)    178.7942         0.010715   
     64. D(H   6,C   2,C   0,H   3)   -176.9267         0.010715   
     65. D(C   5,C   2,C   0,H   4)   -178.7942         0.010715   
     66. D(H   6,C   2,C   0,C   1)     62.6252         0.010715   
     67. D(C   5,C   2,C   0,C   1)    -57.8229         0.010715   
     68. D(H   6,C   2,C   0,H   4)    -58.3461         0.010715   
     69. D(H   7,C   2,C   0,H   4)     60.2345         0.010715   
     70. D(H   7,C   2,C   0,H   3)    -58.3461         0.010715   
     71. D(H   7,C   2,C   0,C   1)   -178.7942         0.010715   
     72. D(C   5,C   2,C   0,H   3)     62.6252         0.010715   
     73. D(H  14,C   5,C   2,H   7)     58.3461         0.010715   
     74. D(H  14,C   5,C   2,H   6)    176.9267         0.010715   
     75. D(H  14,C   5,C   2,C   0)    -62.6252         0.010715   
     76. D(H  15,C   5,C   2,C   0)    178.7943         0.010715   
     77. D(C  11,C   5,C   2,H   7)    178.7943         0.010715   
     78. D(H  15,C   5,C   2,H   6)     58.3461         0.010715   
     79. D(C  11,C   5,C   2,H   6)    -62.6252         0.010715   
     80. D(C  11,C   5,C   2,C   0)     57.8230         0.010715   
     81. D(H  15,C   5,C   2,H   7)    -60.2344         0.010715   
     82. D(H  12,C   8,C   1,C   0)     62.6252         0.010715   
     83. D(C  11,C   8,C   1,H  10)   -178.7943         0.010715   
     84. D(C  11,C   8,C   1,H   9)     62.6252         0.010715   
     85. D(C  11,C   8,C   1,C   0)    -57.8230         0.010715   
     86. D(H  13,C   8,C   1,H  10)     60.2344         0.010715   
     87. D(H  13,C   8,C   1,H   9)    -58.3461         0.010715   
     88. D(H  13,C   8,C   1,C   0)   -178.7943         0.010715   
     89. D(H  12,C   8,C   1,H  10)    -58.3461         0.010715   
     90. D(H  12,C   8,C   1,H   9)   -176.9267         0.010715   
     91. D(H  17,C  11,C   8,H  13)    -60.2344         0.010715   
     92. D(H  17,C  11,C   8,H  12)     58.3462         0.010715   
     93. D(H  17,C  11,C   8,C   1)    178.7943         0.010715   
     94. D(H  16,C  11,C   8,H  13)     58.3462         0.010715   
     95. D(H  16,C  11,C   8,H  12)    176.9267         0.010715   
     96. D(H  16,C  11,C   8,C   1)    -62.6251         0.010715   
     97. D(C   5,C  11,C   8,H  13)    178.7943         0.010715   
     98. D(C   5,C  11,C   8,H  12)    -62.6251         0.010715   
     99. D(C   5,C  11,C   8,C   1)     57.8230         0.010715   
    100. D(H  17,C  11,C   5,H  15)     60.2344         0.010715   
    101. D(H  17,C  11,C   5,H  14)    -58.3462         0.010715   
    102. D(H  17,C  11,C   5,C   2)   -178.7943         0.010715   
    103. D(H  16,C  11,C   5,H  15)    -58.3462         0.010715   
    104. D(H  16,C  11,C   5,H  14)   -176.9267         0.010715   
    105. D(H  16,C  11,C   5,C   2)     62.6251         0.010715   
    106. D(C   8,C  11,C   5,H  15)   -178.7943         0.010715   
    107. D(C   8,C  11,C   5,H  14)     62.6251         0.010715   
    108. D(C   8,C  11,C   5,C   2)    -57.8230         0.010715   
    -----------------------------------------------------------------

Number of atoms                         .... 18
Number of degrees of freedom            .... 108

         *************************************************************
         *                GEOMETRY OPTIMIZATION CYCLE   1            *
         *************************************************************
---------------------------------
CARTESIAN COORDINATES (ANGSTROEM)
---------------------------------
  C     -1.450348    2.836391    0.055305
  C     -0.654403    1.931214   -0.896249
  C     -0.672844    3.051772    1.361991
  H     -2.431239    2.363088    0.282152
  H     -1.641941    3.816146   -0.432422
  C     -0.373867    1.703428    2.033492
  H      0.283608    3.575374    1.141395
  H     -1.267202    3.689629    2.050745
  C     -0.355427    0.582871   -0.224748
  H      0.302460    2.429805   -1.167250
  H     -1.235525    1.764717   -1.828495
  C      0.422078    0.798252    1.081937
  H     -1.311879    0.059269   -0.004151
  H      0.238931   -0.054987   -0.913502
  H     -1.330731    1.204837    2.304492
  H      0.207254    1.869925    2.965738
  H      1.402969    1.271556    0.855090
  H      0.613673   -0.181503    1.569664

----------------------------
CARTESIAN COORDINATES (A.U.)
----------------------------
  NO LB      ZA    FRAG     MASS         X           Y           Z
   0 C     6.0000    0    12.011   -2.740761    5.360003    0.104512
   1 C     6.0000    0    12.011   -1.236643    3.649465   -1.693665
   2 C     6.0000    0    12.011   -1.271491    5.767013    2.573791
   3 H     1.0000    0     1.008   -4.594376    4.465590    0.533191
   4 H     1.0000    0     1.008   -3.102820    7.211471   -0.817159
   5 C     6.0000    0    12.011   -0.706506    3.219013    3.842743
   6 H     1.0000    0     1.008    0.535942    6.756477    2.156924
   7 H     1.0000    0     1.008   -2.394665    6.972388    3.875347
   8 C     6.0000    0    12.011   -0.671659    1.101466   -0.424712
   9 H     1.0000    0     1.008    0.571567    4.591665   -2.205782
  10 H     1.0000    0     1.008   -2.334804    3.334832   -3.455354
  11 C     6.0000    0    12.011    0.797612    1.508477    2.044565
  12 H     1.0000    0     1.008   -2.479092    0.112001   -0.007844
  13 H     1.0000    0     1.008    0.451514   -0.103910   -1.726269
  14 H     1.0000    0     1.008   -2.514717    2.276811    4.354858
  15 H     1.0000    0     1.008    0.391653    3.533646    5.604432
  16 H     1.0000    0     1.008    2.651227    2.402892    1.615885
  17 H     1.0000    0     1.008    1.159674   -0.342991    2.966236

--------------------------------
INTERNAL COORDINATES (ANGSTROEM)
--------------------------------
 C      0   0   0     0.000000000000     0.00000000     0.00000000
 C      1   0   0     1.535685492906     0.00000000     0.00000000
 C      1   2   0     1.535685476600   110.33370998     0.00000000
 H      1   2   3     1.112484937658   109.42474247   239.55186440
 H      1   2   3     1.111083036939   109.70264449   120.97129206
 C      3   1   2     1.535685516824   110.33370097   302.17706246
 H      3   1   2     1.112484944428   109.42475183    62.62519114
 H      3   1   2     1.111082999492   109.70264700   181.20577216
 C      2   1   3     1.535685516686   110.33370005    57.82293716
 H      2   1   3     1.112484943178   109.42475123   297.37480939
 H      2   1   3     1.111082989536   109.70264707   178.79422790
 C      9   2   1     1.535685422914   110.33368806   302.17702350
 H      9   2   1     1.112484966456   109.42475447    62.62515583
 H      9   2   1     1.111082985549   109.70264597   181.20573618
 H      6   3   1     1.112484965016   109.42475450   297.37484524
 H      6   3   1     1.111082975591   109.70264674   178.79426362
 H     12   9   2     1.112484981461   109.42475388   297.37488010
 H     12   9   2     1.111083009117   109.70264893   178.79430156

---------------------------
INTERNAL COORDINATES (A.U.)
---------------------------
 C      0   0   0     0.000000000000     0.00000000     0.00000000
 C      1   0   0     2.902025009428     0.00000000     0.00000000
 C      1   2   0     2.902024978614   110.33370998     0.00000000
 H      1   2   3     2.102291860287   109.42474247   239.55186440
 H      1   2   3     2.099642651860   109.70264449   120.97129206
 C      3   1   2     2.902025054626   110.33370097   302.17706246
 H      3   1   2     2.102291873079   109.42475183    62.62519114
 H      3   1   2     2.099642581096   109.70264700   181.20577216
 C      2   1   3     2.902025054366   110.33370005    57.82293716
 H      2   1   3     2.102291870718   109.42475123   297.37480939
 H      2   1   3     2.099642562281   109.70264707   178.79422790
 C      9   2   1     2.902024877163   110.33368806   302.17702350
 H      9   2   1     2.102291914706   109.42475447    62.62515583
 H      9   2   1     2.099642554746   109.70264597   181.20573618
 H      6   3   1     2.102291911985   109.42475450   297.37484524
 H      6   3   1     2.099642535930   109.70264674   178.79426362
 H     12   9   2     2.102291943062   109.42475388   297.37488010
 H     12   9   2     2.099642599283   109.70264893   178.79430156

---------------------
BASIS SET INFORMATION
---------------------
There are 2 groups of distinct atoms

 Group   1 Type C   : 7s4p1d contracted to 3s2p1d pattern {511/31/1}
 Group   2 Type H   : 4s1p contracted to 2s1p pattern {31/1}

Atom   0C    basis set group =>   1
Atom   1C    basis set group =>   1
Atom   2C    basis set group =>   1
Atom   3H    basis set group =>   2
Atom   4H    basis set group =>   2
Atom   5C    basis set group =>   1
Atom   6H    basis set group =>   2
Atom   7H    basis set group =>   2
Atom   8C    basis set group =>   1
Atom   9H    basis set group =>   2
Atom  10H    basis set group =>   2
Atom  11C    basis set group =>   1
Atom  12H    basis set group =>   2
Atom  13H    basis set group =>   2
Atom  14H    basis set group =>   2
Atom  15H    basis set group =>   2
Atom  16H    basis set group =>   2
Atom  17H    basis set group =>   2

-------------------------
BASIS SET IN INPUT FORMAT
-------------------------

 # Basis set for element : H 
 NewGTO H 
 S 3 
   1      13.0107010000      0.0334854848
   2       1.9622572000      0.2347218709
   3       0.4445379600      0.8137702853
 S 1 
   1       0.1219496200      1.0000000000
 P 1 
   1       0.8000000000      1.0000000000
  end;

 # Basis set for element : C 
 NewGTO C 
 S 5 
   1    1238.4016938000      0.0055173650
   2     186.2900499200      0.0410888285
   3      42.2511763460      0.1822538213
   4      11.6765579320      0.4682845944
   5       3.5930506482      0.4457581734
 S 1 
   1       0.4024514736      1.0000000000
 S 1 
   1       0.1309018267      1.0000000000
 P 3 
   1       9.4680970621      0.0568883320
   2       2.0103545142      0.3129405934
   3       0.5477100471      0.7606501651
 P 1 
   1       0.1526861379      1.0000000000
 D 1 
   1       0.8000000000      1.0000000000
  end;

---------------------------------
AUXILIARY/J BASIS SET INFORMATION
---------------------------------
There are 2 groups of distinct atoms

 Group   1 Type C   : 12s5p4d2f1g contracted to 6s4p3d1f1g pattern {711111/2111/211/2/1}
 Group   2 Type H   : 5s2p1d contracted to 3s1p1d pattern {311/2/1}

Atom   0C    basis set group =>   1
Atom   1C    basis set group =>   1
Atom   2C    basis set group =>   1
Atom   3H    basis set group =>   2
Atom   4H    basis set group =>   2
Atom   5C    basis set group =>   1
Atom   6H    basis set group =>   2
Atom   7H    basis set group =>   2
Atom   8C    basis set group =>   1
Atom   9H    basis set group =>   2
Atom  10H    basis set group =>   2
Atom  11C    basis set group =>   1
Atom  12H    basis set group =>   2
Atom  13H    basis set group =>   2
Atom  14H    basis set group =>   2
Atom  15H    basis set group =>   2
Atom  16H    basis set group =>   2
Atom  17H    basis set group =>   2

-------------------------------------
AUXILIARY/J BASIS SET IN INPUT FORMAT
-------------------------------------

 # Auxiliary/J basis set for element : H 
 NewAuxJGTO H 
 S 3 
   1      15.6752927000      0.1007184237
   2       3.6063578000      0.3404257499
   3       1.2080016000      0.6491996172
 S 1 
   1       0.4726794000      1.0000000000
 S 1 
   1       0.2018100000      1.0000000000
 P 2 
   1       2.0281365000      0.5596620919
   2       0.5358730000      0.5596620919
 D 1 
   1       2.2165124000      1.0000000000
  end;

 # Auxiliary/J basis set for element : C 
 NewAuxJGTO C 
 S 7 
   1    1861.0916331000      0.0134602335
   2     642.9939764000      0.0299160374
   3     235.1105725000      0.1008649584
   4      90.7028894000      0.2370970548
   5      36.7794552000      0.3924037254
   6      15.6046273000      0.3195862154
   7       6.8907294000      0.0530104441
 S 1 
   1       3.1478850000     -1.0000000000
 S 1 
   1       1.4777287000      1.0000000000
 S 1 
   1       0.7076466000      1.0000000000
 S 1 
   1       0.3430122000      1.0000000000
 S 1 
   1       0.1669453000      1.0000000000
 P 2 
   1      13.5472892000     -0.6769313712
   2       5.4669419000     -0.3779500978
 P 1 
   1       2.1751721000      1.0000000000
 P 1 
   1       0.8582194000      1.0000000000
 P 1 
   1       0.3376720000      1.0000000000
 D 2 
   1       5.9287253000     -0.3533329857
   2       1.9809209000     -0.7456525731
 D 1 
   1       0.8055417000     -1.0000000000
 D 1 
   1       0.3531244000     -1.0000000000
 F 2 
   1       1.6755626000      0.6311076882
   2       0.5997536000      0.4968166032
 G 1 
   1       1.0024600000     -1.0000000000
  end;



           ************************************************************
           *        Program running with 12 parallel MPI-processes    *
           *              working on a common directory               *
           ************************************************************
------------------------------------------------------------------------------
                           ORCA GTO INTEGRAL CALCULATION
                           -- RI-GTO INTEGRALS CHOSEN --
------------------------------------------------------------------------------

                         BASIS SET STATISTICS AND STARTUP INFO

Gaussian basis set:
 # of primitive gaussian shells          ...  132
 # of primitive gaussian functions       ...  228
 # of contracted shells                  ...   72
 # of contracted basis functions         ...  144
 Highest angular momentum                ...    2
 Maximum contraction depth               ...    5
Auxiliary gaussian basis set:
 # of primitive gaussian shells          ...  240
 # of primitive gaussian functions       ...  612
 # of contracted shells                  ...  150
 # of contracted aux-basis functions     ...  426
 Highest angular momentum                ...    4
 Maximum contraction depth               ...    7
Ratio of auxiliary to basis functions    ...  2.96
Integral package used                  ... LIBINT
 One Electron integrals                  ... done
 Ordering auxiliary basis shells         ... done
 Integral threshhold             Thresh  ...  2.500e-11
 Primitive cut-off               TCut    ...  2.500e-12
 Pre-screening matrix                    ... done
 Shell pair data                         ... 
 Ordering of the shell pairs             ... done (   0.001 sec) 2610 of 2628 pairs
 Determination of significant pairs      ... done (   0.000 sec)
 Creation of shell pair data             ... done (   0.001 sec)
 Storage of shell pair data              ... done (   0.014 sec)
 Shell pair data done in (   0.017 sec)
 Computing two index integrals           ... done
 Cholesky decomposition of the V-matrix  ... done


Timings:
 Total evaluation time                   ...   0.242 sec (  0.004 min)
 One electron matrix time                ...   0.033 sec (  0.001 min) = 13.8%
 Schwartz matrix evaluation time         ...   0.146 sec (  0.002 min) = 60.2%
 Two index repulsion integral time       ...   0.009 sec (  0.000 min) =  3.7%
 Cholesky decomposition of V             ...   0.017 sec (  0.000 min) =  7.0%
 Three index repulsion integral time     ...   0.000 sec (  0.000 min) =  0.1%



           ************************************************************
           *        Program running with 12 parallel MPI-processes    *
           *              working on a common directory               *
           ************************************************************
-------------------------------------------------------------------------------
                                 ORCA SCF
-------------------------------------------------------------------------------

------------
SCF SETTINGS
------------
Hamiltonian:
 Density Functional     Method          .... DFT(GTOs)
 Exchange Functional    Exchange        .... PBE
   PBE kappa parameter   XKappa         ....  1.245000
   PBE mue parameter    XMuePBE         ....  0.219520
 Correlation Functional Correlation     .... PBE
   PBE beta parameter  CBetaPBE         ....  0.066725
 LDA part of GGA corr.  LDAOpt          .... PW91-LDA
 Gradients option       PostSCFGGA      .... off
   Density functional embedding theory  .... OFF
   NL short-range parameter             ....  3.700000
 RI-approximation to the Coulomb term is turned on
   Number of auxiliary basis functions  .... 426


General Settings:
 Integral files         IntName         .... cyclohexane-chair
 Hartree-Fock type      HFTyp           .... RHF
 Total Charge           Charge          ....    0
 Multiplicity           Mult            ....    1
 Number of Electrons    NEL             ....   48
 Basis Dimension        Dim             ....  144
 Nuclear Repulsion      ENuc            ....    255.2399477699 Eh

Convergence Acceleration:
 DIIS                   CNVDIIS         .... on
   Start iteration      DIISMaxIt       ....    12
   Startup error        DIISStart       ....  0.200000
   # of expansion vecs  DIISMaxEq       ....     5
   Bias factor          DIISBfac        ....   1.050
   Max. coefficient     DIISMaxC        ....  10.000
 Newton-Raphson         CNVNR           .... off
 SOSCF                  CNVSOSCF        .... on
   Start iteration      SOSCFMaxIt      ....   150
   Startup grad/error   SOSCFStart      ....  0.003300
 Level Shifting         CNVShift        .... on
   Level shift para.    LevelShift      ....    0.2500
   Turn off err/grad.   ShiftErr        ....    0.0010
 Zerner damping         CNVZerner       .... off
 Static damping         CNVDamp         .... on
   Fraction old density DampFac         ....    0.7000
   Max. Damping (<1)    DampMax         ....    0.9800
   Min. Damping (>=0)   DampMin         ....    0.0000
   Turn off err/grad.   DampErr         ....    0.1000
 Fernandez-Rico         CNVRico         .... off

SCF Procedure:
 Maximum # iterations   MaxIter         ....   125
 SCF integral mode      SCFMode         .... Direct
   Integral package                     .... LIBINT
 Reset frequency        DirectResetFreq ....    20
 Integral Threshold     Thresh          ....  2.500e-11 Eh
 Primitive CutOff       TCut            ....  2.500e-12 Eh

Convergence Tolerance:
 Convergence Check Mode ConvCheckMode   .... Total+1el-Energy
 Convergence forced     ConvForced      .... 0
 Energy Change          TolE            ....  1.000e-08 Eh
 1-El. energy change                    ....  1.000e-05 Eh
 Orbital Gradient       TolG            ....  1.000e-05
 Orbital Rotation angle TolX            ....  1.000e-05
 DIIS Error             TolErr          ....  5.000e-07


Diagonalization of the overlap matrix:
Smallest eigenvalue                        ... 1.551e-03
Time for diagonalization                   ...    0.005 sec
Threshold for overlap eigenvalues          ... 1.000e-08
Number of eigenvalues below threshold      ... 0
Time for construction of square roots      ...    0.009 sec
Total time needed                          ...    0.015 sec

-------------------
DFT GRID GENERATION
-------------------

General Integration Accuracy     IntAcc      ...  4.670
Radial Grid Type                 RadialGrid  ... Gauss-Chebyshev
Angular Grid (max. acc.)         AngularGrid ... Lebedev-302
Angular grid pruning method      GridPruning ... 3 (G Style)
Weight generation scheme         WeightScheme... Becke
Basis function cutoff            BFCut       ...    1.0000e-11
Integration weight cutoff        WCut        ...    1.0000e-14
Grids for H and He will be reduced by one unit

# of grid points (after initial pruning)     ...  78000 (   0.0 sec)
# of grid points (after weights+screening)   ...  70052 (   0.1 sec)
nearest neighbour list constructed           ...    0.0 sec
Grid point re-assignment to atoms done       ...    0.0 sec
Grid point division into batches done        ...    0.2 sec
Reduced shell lists constructed in    0.3 sec

Total number of grid points                  ...    70052
Total number of batches                      ...     1104
Average number of points per batch           ...       63
Average number of grid points per atom       ...     3892
Average number of shells per batch           ...    65.57 (91.07%)
Average number of basis functions per batch  ...   132.67 (92.13%)
Average number of large shells per batch     ...    55.57 (84.75%)
Average number of large basis fcns per batch ...   108.99 (82.15%)
Maximum spatial batch extension              ...   1.79,  2.12,  1.78 au
Average spatial batch extension              ...   0.08,  0.08,  0.08 au

Time for grid setup =    0.540 sec

------------------------------
INITIAL GUESS: MODEL POTENTIAL
------------------------------
Loading Hartree-Fock densities                     ... done
Calculating cut-offs                               ... done
Setting up the integral package                    ... done
Initializing the effective Hamiltonian             ... done
Starting the Coulomb interaction                   ... done (   0.0 sec)
Reading the grid                                   ... done
Mapping shells                                     ... done
Starting the XC term evaluation                    ... done (   0.2 sec)
  promolecular density results
     # of electrons  =     47.994631689
     EX              =    -34.453485090
     EC              =     -1.566455107
     EX+EC           =    -36.019940197
Transforming the Hamiltonian                       ... done (   0.0 sec)
Diagonalizing the Hamiltonian                      ... done (   0.0 sec)
Back transforming the eigenvectors                 ... done (   0.0 sec)
Now organizing SCF variables                       ... done
                      ------------------
                      INITIAL GUESS DONE (   1.0 sec)
                      ------------------
----------------------
INITIAL GUESS ORBITALS
----------------------
                      0         1         2         3         4         5   
                 -10.07567 -10.07567 -10.07564 -10.07561 -10.07561 -10.07558
                   2.00000   2.00000   2.00000   2.00000   2.00000   2.00000
                  --------  --------  --------  --------  --------  --------
  0C   1s        -0.283822  0.494020  0.402253 -0.272973  0.501437  0.403782
  0C   2s        -0.017217  0.029964  0.021981 -0.014883  0.027338  0.019738
  0C   3s         0.030554 -0.053147 -0.027504  0.012609 -0.023125 -0.010095
  0C   1pz        0.000569  0.000483  0.000009 -0.000975 -0.000586 -0.000248
  0C   1px        0.000115 -0.000214  0.000160  0.000424 -0.000763 -0.000943
  0C   1py        0.000453 -0.000057 -0.000020 -0.000537 -0.000193  0.000482
  0C   2pz       -0.003358 -0.007281 -0.000160  0.004488  0.000161  0.000902
  0C   2px        0.004868 -0.008360 -0.002251  0.000254 -0.000527 -0.001665
  0C   2py       -0.007395  0.006348  0.000306 -0.000163  0.004483 -0.001836
  0C   1dz2       0.000303  0.000151  0.000095  0.000185 -0.000797 -0.000730
  0C   1dxz       0.000778  0.000365  0.000071 -0.000666 -0.000546 -0.000112
  0C   1dyz      -0.000207 -0.000209  0.000081  0.000600 -0.000736 -0.001030
  0C   1dx2y2     0.000200  0.000016 -0.000041 -0.000070 -0.000106 -0.000305
  0C   1dxy       0.000300  0.000339 -0.000150 -0.000540  0.000112  0.000249
  1C   1s         0.570171 -0.001015 -0.404379 -0.569214  0.014967  0.403192
  1C   2s         0.034579 -0.000061 -0.022097 -0.031033  0.000816  0.019702
  1C   3s        -0.061315  0.000108  0.027601  0.026226 -0.000688 -0.010032
  1C   1pz        0.000062 -0.000091 -0.000121  0.000654 -0.000158 -0.001030
  1C   1px        0.000351  0.000355  0.000085 -0.000473  0.000564  0.000248
  1C   1py        0.000161 -0.000733  0.000057 -0.000349 -0.001125  0.000248
  1C   2pz       -0.014035  0.000836  0.001774  0.003693  0.000402  0.000402
  1C   2px       -0.000492 -0.003171 -0.001192  0.002462 -0.002016  0.002365
  1C   2py        0.001520  0.006525 -0.000800  0.000870  0.003991  0.001100
  1C   1dz2      -0.000103 -0.000191 -0.000082 -0.000266 -0.000157  0.000376
  1C   1dxz       0.000106  0.000464 -0.000003 -0.000362  0.000425  0.000608
  1C   1dyz       0.000056 -0.000857 -0.000008  0.000008 -0.000730  0.000073
  1C   1dx2y2     0.000086 -0.000371  0.000118 -0.000782 -0.000425  0.000739
  1C   1dxy       0.000088  0.000151  0.000151 -0.000915  0.000254  0.000836
  2C   1s        -0.285582 -0.493077 -0.402405  0.299179  0.486120  0.403706
  2C   2s        -0.017324 -0.029906 -0.021989  0.016311  0.026503  0.019733
  2C   3s         0.030742  0.053040  0.027510 -0.013817 -0.022414 -0.010088
  2C   1pz       -0.000474  0.000463  0.000028 -0.000770  0.000649  0.000428
  2C   1px       -0.000479 -0.000129  0.000084 -0.000210  0.000694  0.000237
  2C   1py        0.000294 -0.000229  0.000135  0.000862  0.000316  0.000972
  2C   2pz        0.001304 -0.009174 -0.000435  0.004469  0.000548 -0.001085
  2C   2px        0.003031 -0.000991 -0.001179  0.000296 -0.003189  0.002375
  2C   2py       -0.008900 -0.008810 -0.001900 -0.000430  0.003149  0.000373
  2C   1dz2       0.000461 -0.000259 -0.000078  0.000088 -0.000587 -0.000350
  2C   1dxz       0.000405 -0.000084 -0.000117 -0.000129 -0.001032 -0.001026
  2C   1dyz       0.000512 -0.000261 -0.000010  0.000774  0.000205  0.000683
  2C   1dx2y2     0.000405 -0.000403  0.000124  0.000672  0.000031  0.000347
  2C   1dxy       0.000254 -0.000115  0.000097  0.000298  0.000119  0.000016
  3H   1s         0.000001 -0.000003 -0.001274  0.000475 -0.000870 -0.001846
  3H   2s        -0.003315  0.005768  0.003063 -0.003387  0.006230  0.002318
  3H   1pz       -0.000662  0.000262  0.000222  0.000060  0.000671  0.000349
  3H   1px        0.000654 -0.001131 -0.001141  0.000451 -0.000833 -0.000674
  3H   1py        0.000380 -0.001102 -0.000465  0.000711 -0.000920 -0.000714
  4H   1s         0.000958 -0.001667 -0.001092  0.001141 -0.002098 -0.001185
  4H   2s        -0.002143  0.003731  0.003994 -0.001464  0.002682  0.003430
  4H   1pz        0.000306 -0.000733 -0.000553  0.000569 -0.000583 -0.000556
  4H   1px       -0.000025  0.000046 -0.000272  0.000030 -0.000058  0.000244
  4H   1py       -0.000835  0.001353  0.001111 -0.000658  0.001439  0.001125
  5C   1s         0.570221 -0.001037  0.404335  0.569225 -0.015054  0.403148
  5C   2s         0.034582 -0.000063  0.022094  0.031033 -0.000821  0.019700
  5C   3s        -0.061318  0.000110 -0.027596 -0.026224  0.000692 -0.010030
  5C   1pz       -0.000062  0.000091 -0.000121  0.000654 -0.000158  0.001030
  5C   1px       -0.000351 -0.000355  0.000085 -0.000473  0.000564 -0.000248
  5C   1py       -0.000161  0.000733  0.000057 -0.000349 -0.001125 -0.000249
  5C   2pz        0.014035 -0.000836  0.001773  0.003693  0.000401 -0.000403
  5C   2px        0.000492  0.003171 -0.001192  0.002462 -0.002016 -0.002366
  5C   2py       -0.001519 -0.006525 -0.000801  0.000870  0.003991 -0.001099
  5C   1dz2      -0.000103 -0.000191  0.000082  0.000266  0.000157  0.000376
  5C   1dxz       0.000106  0.000464  0.000003  0.000362 -0.000425  0.000608
  5C   1dyz       0.000056 -0.000857  0.000008 -0.000008  0.000730  0.000073
  5C   1dx2y2     0.000086 -0.000371 -0.000118  0.000782  0.000425  0.000739
  5C   1dxy       0.000088  0.000151 -0.000151  0.000915 -0.000254  0.000835
  6H   1s         0.000001  0.000004  0.001274 -0.000520 -0.000843 -0.001846
  6H   2s        -0.003336 -0.005757 -0.003065  0.003712  0.006040  0.002317
  6H   1pz        0.000659  0.000363  0.000199 -0.000079 -0.000754 -0.000417
  6H   1px       -0.000644 -0.001533 -0.001051  0.000899  0.001122  0.000940
  6H   1py       -0.000413 -0.000270 -0.000652 -0.000074  0.000234  0.000166
  7H   1s         0.000964  0.001664  0.001093 -0.001250 -0.002034 -0.001185
  7H   2s        -0.002156 -0.003723 -0.003994  0.001605  0.002599  0.003430
  7H   1pz       -0.000465 -0.000978 -0.000787  0.000733  0.000822  0.000742
  7H   1px        0.000638  0.001006  0.000641 -0.000491 -0.001000 -0.000971
  7H   1py       -0.000421 -0.000627 -0.000766  0.000345  0.000772  0.000373
  8C   1s        -0.285588 -0.493131  0.402361 -0.299112 -0.486177  0.403661
  8C   2s        -0.017324 -0.029909  0.021987 -0.016307 -0.026506  0.019731
  8C   3s         0.030741  0.053044 -0.027505  0.013813  0.022415 -0.010086
  8C   1pz        0.000474 -0.000463  0.000028 -0.000770  0.000649 -0.000428
  8C   1px        0.000479  0.000129  0.000084 -0.000210  0.000694 -0.000237
  8C   1py       -0.000294  0.000229  0.000135  0.000862  0.000316 -0.000972
  8C   2pz       -0.001304  0.009174 -0.000433  0.004469  0.000548  0.001084
  8C   2px       -0.003031  0.000991 -0.001178  0.000296 -0.003188 -0.002375
  8C   2py        0.008900  0.008810 -0.001899 -0.000431  0.003149 -0.000373
  8C   1dz2       0.000461 -0.000260  0.000078 -0.000088  0.000587 -0.000350
  8C   1dxz       0.000405 -0.000084  0.000117  0.000129  0.001032 -0.001026
  8C   1dyz       0.000512 -0.000261  0.000010 -0.000774 -0.000205  0.000683
  8C   1dx2y2     0.000405 -0.000403 -0.000124 -0.000672 -0.000031  0.000347
  8C   1dxy       0.000254 -0.000115 -0.000097 -0.000298 -0.000119  0.000016
  9H   1s        -0.000005  0.000000  0.001278  0.000986 -0.000026 -0.001846
  9H   2s         0.006656 -0.000012 -0.003090 -0.007077  0.000187  0.002311
  9H   1pz        0.000061  0.000055  0.000384 -0.000304  0.000054  0.000133
  9H   1px        0.001643 -0.000218 -0.001057 -0.001419 -0.000144  0.000934
  9H   1py        0.000792  0.000441 -0.000562 -0.000639  0.000389  0.000438
 10H   1s        -0.001924  0.000003  0.001101  0.002383 -0.000063 -0.001183
 10H   2s         0.004306 -0.000008 -0.004005 -0.003040  0.000079  0.003426
 10H   1pz       -0.001269  0.000015  0.001099  0.001334 -0.000008 -0.000758
 10H   1px       -0.001172 -0.000047  0.000629  0.001084 -0.000136 -0.000958
 10H   1py       -0.000412  0.000101  0.000169  0.000368  0.000211 -0.000371
 11C   1s        -0.283871  0.494106 -0.402165  0.272985 -0.501461  0.403692
 11C   2s        -0.017220  0.029968 -0.021976  0.014883 -0.027339  0.019733
 11C   3s         0.030557 -0.053152  0.027495 -0.012608  0.023123 -0.010091
 11C   1pz       -0.000569 -0.000483  0.000009 -0.000975 -0.000586  0.000248
 11C   1px       -0.000115  0.000214  0.000160  0.000424 -0.000763  0.000943
 11C   1py       -0.000453  0.000057 -0.000020 -0.000537 -0.000193 -0.000482
 11C   2pz        0.003358  0.007282 -0.000160  0.004487  0.000161 -0.000902
 11C   2px       -0.004868  0.008361 -0.002250  0.000254 -0.000527  0.001665
 11C   2py        0.007395 -0.006348  0.000305 -0.000163  0.004482  0.001836
 11C   1dz2       0.000303  0.000151 -0.000095 -0.000185  0.000797 -0.000730
 11C   1dxz       0.000778  0.000365 -0.000071  0.000665  0.000546 -0.000112
 11C   1dyz      -0.000207 -0.000209 -0.000081 -0.000600  0.000736 -0.001029
 11C   1dx2y2     0.000200  0.000016  0.000041  0.000070  0.000106 -0.000305
 11C   1dxy       0.000300  0.000339  0.000150  0.000540 -0.000112  0.000249
 12H   1s         0.000001  0.000004 -0.001274  0.000520  0.000843 -0.001846
 12H   2s        -0.003336 -0.005757  0.003065 -0.003712 -0.006041  0.002316
 12H   1pz       -0.000659 -0.000363  0.000199 -0.000079 -0.000754  0.000417
 12H   1px        0.000644  0.001533 -0.001050  0.000899  0.001122 -0.000940
 12H   1py        0.000413  0.000270 -0.000652 -0.000074  0.000234 -0.000165
 13H   1s         0.000964  0.001664 -0.001093  0.001250  0.002034 -0.001185
 13H   2s        -0.002156 -0.003724  0.003994 -0.001604 -0.002600  0.003429
 13H   1pz        0.000465  0.000978 -0.000787  0.000733  0.000822 -0.000742
 13H   1px       -0.000638 -0.001006  0.000641 -0.000491 -0.001000  0.000971
 13H   1py        0.000421  0.000627 -0.000766  0.000345  0.000772 -0.000373
 14H   1s        -0.000005  0.000000 -0.001278 -0.000986  0.000026 -0.001846
 14H   2s         0.006656 -0.000012  0.003089  0.007077 -0.000187  0.002310
 14H   1pz       -0.000061 -0.000055  0.000384 -0.000304  0.000054 -0.000133
 14H   1px       -0.001644  0.000218 -0.001057 -0.001419 -0.000143 -0.000934
 14H   1py       -0.000792 -0.000441 -0.000562 -0.000639  0.000389 -0.000438
 15H   1s        -0.001924  0.000003 -0.001101 -0.002383  0.000063 -0.001183
 15H   2s         0.004306 -0.000008  0.004005  0.003040 -0.000080  0.003425
 15H   1pz        0.001269 -0.000015  0.001099  0.001334 -0.000008  0.000758
 15H   1px        0.001173  0.000047  0.000629  0.001084 -0.000136  0.000958
 15H   1py        0.000412 -0.000101  0.000169  0.000368  0.000211  0.000371
 16H   1s         0.000001 -0.000004  0.001274 -0.000475  0.000870 -0.001846
 16H   2s        -0.003316  0.005769 -0.003062  0.003387 -0.006230  0.002317
 16H   1pz        0.000662 -0.000262  0.000222  0.000060  0.000671 -0.000349
 16H   1px       -0.000654  0.001131 -0.001141  0.000451 -0.000833  0.000674
 16H   1py       -0.000380  0.001102 -0.000465  0.000711 -0.000920  0.000714
 17H   1s         0.000958 -0.001667  0.001092 -0.001141  0.002098 -0.001185
 17H   2s        -0.002143  0.003731 -0.003993  0.001464 -0.002682  0.003430
 17H   1pz       -0.000306  0.000734 -0.000553  0.000569 -0.000583  0.000556
 17H   1px        0.000025 -0.000046 -0.000272  0.000030 -0.000058 -0.000244
 17H   1py        0.000835 -0.001353  0.001111 -0.000658  0.001439 -0.001125
                      6         7         8         9        10        11   
                  -0.89173  -0.80472  -0.80472  -0.67626  -0.67625  -0.62008
                   2.00000   2.00000   2.00000   2.00000   2.00000   2.00000
                  --------  --------  --------  --------  --------  --------
  0C   1s        -0.113895  0.156287 -0.039516 -0.030825  0.138109  0.076395
  0C   2s         0.228449 -0.328929  0.083166  0.070642 -0.316535 -0.170449
  0C   3s         0.045733 -0.059496  0.015074 -0.011232  0.050528 -0.040187
  0C   1pz        0.013833  0.019952  0.082170  0.132843  0.050837 -0.013857
  0C   1px        0.040537 -0.026443  0.005973 -0.012198  0.049370  0.133772
  0C   1py       -0.027211  0.011411  0.040390  0.077049 -0.024646  0.030126
  0C   2pz        0.004002  0.007882  0.033984  0.063192  0.029811 -0.013400
  0C   2px        0.017274 -0.008100  0.001756 -0.009932  0.042008  0.039628
  0C   2py       -0.007760  0.005469  0.016461  0.039559 -0.022045  0.027687
  0C   1dz2       0.002585 -0.002428  0.004175  0.000844  0.001662  0.001785
  0C   1dxz       0.001399  0.001424  0.006469  0.007874  0.002509  0.000487
  0C   1dyz       0.003184 -0.005162 -0.001706 -0.001262  0.001501  0.004285
  0C   1dx2y2     0.000421 -0.000632  0.002104  0.000497  0.000300  0.003439
  0C   1dxy      -0.002911  0.001327  0.003094  0.004332 -0.000599 -0.001010
  1C   1s        -0.113895  0.112366  0.115593  0.135020 -0.042362 -0.076391
  1C   2s         0.228462 -0.236497 -0.243293 -0.309451  0.097087  0.170421
  1C   3s         0.045666 -0.042748 -0.044011  0.049368 -0.015451  0.040252
  1C   1pz        0.049558 -0.020878 -0.006436  0.059327 -0.036906 -0.065188
  1C   1px       -0.006043  0.040713 -0.016933  0.017781  0.065932  0.105839
  1C   1py       -0.009096 -0.053340  0.066178 -0.051345 -0.131074  0.059525
  1C   2pz        0.017952 -0.007690 -0.001713  0.048733 -0.024133 -0.003914
  1C   2px       -0.005299  0.015114 -0.008689  0.004560  0.033199  0.044763
  1C   2py       -0.004813 -0.022923  0.026348 -0.029334 -0.062091  0.022235
  1C   1dz2       0.000755  0.000405  0.002778 -0.000092 -0.001447  0.001147
  1C   1dxz      -0.001520  0.004525 -0.000922  0.000358  0.003778  0.004368
  1C   1dyz      -0.000282 -0.005258  0.005276 -0.001966 -0.005863  0.001438
  1C   1dx2y2    -0.003185  0.000545  0.003846 -0.003142 -0.004234  0.002534
  1C   1dxy      -0.003782  0.002916  0.002152 -0.001106  0.003366  0.002399
  2C   1s        -0.113894  0.043922 -0.155108 -0.104196 -0.095752 -0.076393
  2C   2s         0.228462 -0.092437  0.326463  0.238813  0.219463  0.170434
  2C   3s         0.045614 -0.016717  0.058987 -0.038139 -0.035074  0.040217
  2C   1pz       -0.022806  0.072249  0.016692 -0.058978  0.113222 -0.006586
  2C   1px       -0.005452  0.043153 -0.004464 -0.043957  0.050711  0.105356
  2C   1py       -0.045003 -0.034936 -0.032323  0.091798 -0.011528  0.088603
  2C   2pz       -0.007073  0.029863  0.006681 -0.021913  0.060948 -0.014736
  2C   2px       -0.005102  0.017153  0.000447 -0.018347  0.027282  0.044875
  2C   2py       -0.017220 -0.014916 -0.011513  0.058872  0.007664  0.016876
  2C   1dz2       0.001639 -0.005345  0.000162  0.001082 -0.002529 -0.000240
  2C   1dxz       0.003865 -0.003810  0.003420  0.001523 -0.004740 -0.004540
  2C   1dyz      -0.000969 -0.003427 -0.004518  0.003992 -0.003499  0.002507
  2C   1dx2y2    -0.002762 -0.003743 -0.002105  0.004808 -0.003091  0.001879
  2C   1dxy      -0.001100 -0.002591 -0.000885  0.001287 -0.000469 -0.002036
  3H   1s         0.052954 -0.083304  0.021063  0.025898 -0.116037 -0.140768
  3H   2s         0.002219 -0.008365  0.002111  0.004858 -0.021772 -0.013611
  3H   1pz       -0.001592  0.002909  0.000812  0.001584  0.003514  0.002621
  3H   1px        0.007135 -0.009849  0.002478  0.002194 -0.009917 -0.009425
  3H   1py        0.003326 -0.005102  0.002057  0.002511 -0.005982 -0.005440
  4H   1s         0.046241 -0.090725  0.022938  0.029328 -0.131404 -0.061062
  4H   2s         0.007545 -0.006001  0.001516  0.003138 -0.014045 -0.021914
  4H   1pz        0.003521 -0.004987  0.002875  0.003542 -0.005078 -0.002943
  4H   1px        0.001358 -0.002021  0.000498  0.000243 -0.001179  0.002742
  4H   1py       -0.007074  0.010981 -0.001975 -0.001371  0.011498  0.005975
  5C   1s        -0.113895 -0.112366 -0.115593  0.135020 -0.042362  0.076391
  5C   2s         0.228462  0.236497  0.243293 -0.309452  0.097087 -0.170421
  5C   3s         0.045666  0.042748  0.044011  0.049368 -0.015451 -0.040252
  5C   1pz       -0.049558 -0.020878 -0.006436 -0.059327  0.036906 -0.065188
  5C   1px        0.006043  0.040713 -0.016933 -0.017781 -0.065932  0.105839
  5C   1py        0.009096 -0.053340  0.066178  0.051345  0.131074  0.059525
  5C   2pz       -0.017952 -0.007690 -0.001713 -0.048733  0.024133 -0.003914
  5C   2px        0.005299  0.015114 -0.008689 -0.004559 -0.033199  0.044763
  5C   2py        0.004813 -0.022923  0.026348  0.029334  0.062091  0.022235
  5C   1dz2       0.000755 -0.000405 -0.002778 -0.000092 -0.001447 -0.001147
  5C   1dxz      -0.001520 -0.004525  0.000922  0.000358  0.003778 -0.004368
  5C   1dyz      -0.000282  0.005258 -0.005276 -0.001966 -0.005863 -0.001438
  5C   1dx2y2    -0.003185 -0.000545 -0.003846 -0.003142 -0.004234 -0.002534
  5C   1dxy      -0.003782 -0.002916 -0.002152 -0.001106  0.003366 -0.002399
  6H   1s         0.052955 -0.023412  0.082676  0.087544  0.080449  0.140764
  6H   2s         0.002220 -0.002350  0.008302  0.016427  0.015087  0.013598
  6H   1pz        0.001523  0.000539  0.002915  0.001057  0.003720  0.002727
  6H   1px       -0.006871  0.003495 -0.009718 -0.008834 -0.006621 -0.009839
  6H   1py       -0.003868  0.000679 -0.005158 -0.002664 -0.004022 -0.004586
  7H   1s         0.046243 -0.025498  0.090041  0.099136  0.091103  0.061060
  7H   2s         0.007543 -0.001685  0.005945  0.010583  0.009735  0.021906
  7H   1pz       -0.004971  0.003448 -0.007145 -0.007276 -0.003889 -0.003792
  7H   1px        0.004306 -0.001138  0.006756  0.004870  0.005997  0.006063
  7H   1py       -0.004587  0.001199 -0.007115 -0.004126 -0.005394 -0.000859
  8C   1s        -0.113894 -0.043922  0.155108 -0.104196 -0.095752  0.076393
  8C   2s         0.228462  0.092437 -0.326463  0.238813  0.219463 -0.170434
  8C   3s         0.045614  0.016717 -0.058987 -0.038139 -0.035074 -0.040218
  8C   1pz        0.022806  0.072249  0.016692  0.058978 -0.113222 -0.006586
  8C   1px        0.005452  0.043153 -0.004464  0.043957 -0.050711  0.105356
  8C   1py        0.045003 -0.034936 -0.032323 -0.091798  0.011528  0.088603
  8C   2pz        0.007073  0.029863  0.006681  0.021913 -0.060948 -0.014736
  8C   2px        0.005102  0.017153  0.000447  0.018347 -0.027282  0.044875
  8C   2py        0.017220 -0.014916 -0.011513 -0.058872 -0.007664  0.016876
  8C   1dz2       0.001639  0.005345 -0.000162  0.001082 -0.002529  0.000240
  8C   1dxz       0.003865  0.003810 -0.003420  0.001523 -0.004740  0.004540
  8C   1dyz      -0.000969  0.003427  0.004518  0.003992 -0.003499 -0.002507
  8C   1dx2y2    -0.002762  0.003743  0.002105  0.004808 -0.003091 -0.001879
  8C   1dxy      -0.001100  0.002591  0.000885  0.001287 -0.000469  0.002036
  9H   1s         0.052953 -0.059894 -0.061615 -0.113439  0.035592  0.140764
  9H   2s         0.002208 -0.006002 -0.006182 -0.021273  0.006675  0.013597
  9H   1pz        0.002067 -0.001775 -0.001559 -0.001602  0.000202  0.001871
  9H   1px       -0.006875  0.007700  0.006878  0.010803 -0.002215 -0.009832
  9H   1py       -0.003598  0.002620  0.004842  0.004584 -0.003856 -0.005011
 10H   1s         0.046244 -0.065230 -0.067101 -0.128462  0.040305  0.061055
 10H   2s         0.007554 -0.004318 -0.004436 -0.013726  0.004308  0.021901
 10H   1pz        0.006716 -0.007477 -0.007413 -0.009874  0.002792  0.003056
 10H   1px        0.004211 -0.004099 -0.005306 -0.006810  0.003332  0.006008
 10H   1py        0.001211 -0.002464 -0.000294 -0.002960 -0.001529  0.002539
 11C   1s        -0.113895 -0.156287  0.039516 -0.030825  0.138109 -0.076395
 11C   2s         0.228450  0.328929 -0.083166  0.070642 -0.316535  0.170449
 11C   3s         0.045734  0.059496 -0.015074 -0.011232  0.050528  0.040187
 11C   1pz       -0.013833  0.019952  0.082170 -0.132843 -0.050837 -0.013857
 11C   1px       -0.040537 -0.026443  0.005973  0.012198 -0.049370  0.133772
 11C   1py        0.027211  0.011411  0.040390 -0.077049  0.024646  0.030126
 11C   2pz       -0.004002  0.007882  0.033984 -0.063192 -0.029811 -0.013400
 11C   2px       -0.017274 -0.008100  0.001756  0.009932 -0.042008  0.039628
 11C   2py        0.007760  0.005469  0.016461 -0.039559  0.022045  0.027687
 11C   1dz2       0.002585  0.002428 -0.004175  0.000844  0.001662 -0.001785
 11C   1dxz       0.001399 -0.001424 -0.006469  0.007874  0.002509 -0.000487
 11C   1dyz       0.003184  0.005162  0.001706 -0.001262  0.001501 -0.004285
 11C   1dx2y2     0.000421  0.000632 -0.002104  0.000497  0.000300 -0.003440
 11C   1dxy      -0.002911 -0.001327 -0.003094  0.004332 -0.000599  0.001010
 12H   1s         0.052955  0.023412 -0.082676  0.087544  0.080449 -0.140764
 12H   2s         0.002220  0.002350 -0.008302  0.016427  0.015087 -0.013598
 12H   1pz       -0.001523  0.000539  0.002915 -0.001057 -0.003720  0.002727
 12H   1px        0.006871  0.003495 -0.009718  0.008834  0.006621 -0.009839
 12H   1py        0.003868  0.000679 -0.005158  0.002664  0.004022 -0.004586
 13H   1s         0.046243  0.025498 -0.090041  0.099136  0.091103 -0.061060
 13H   2s         0.007543  0.001685 -0.005945  0.010583  0.009735 -0.021906
 13H   1pz        0.004971  0.003448 -0.007145  0.007276  0.003889 -0.003792
 13H   1px       -0.004306 -0.001138  0.006756 -0.004870 -0.005997  0.006063
 13H   1py        0.004587  0.001199 -0.007115  0.004126  0.005394 -0.000859
 14H   1s         0.052953  0.059894  0.061615 -0.113439  0.035592 -0.140764
 14H   2s         0.002208  0.006002  0.006182 -0.021273  0.006675 -0.013597
 14H   1pz       -0.002067 -0.001775 -0.001559  0.001602 -0.000202  0.001871
 14H   1px        0.006875  0.007700  0.006878 -0.010803  0.002215 -0.009832
 14H   1py        0.003598  0.002620  0.004842 -0.004584  0.003856 -0.005011
 15H   1s         0.046244  0.065229  0.067101 -0.128462  0.040305 -0.061055
 15H   2s         0.007554  0.004318  0.004436 -0.013726  0.004308 -0.021901
 15H   1pz       -0.006716 -0.007477 -0.007413  0.009874 -0.002792  0.003056
 15H   1px       -0.004211 -0.004099 -0.005306  0.006810 -0.003332  0.006008
 15H   1py       -0.001211 -0.002464 -0.000294  0.002960  0.001529  0.002539
 16H   1s         0.052954  0.083304 -0.021063  0.025898 -0.116036  0.140768
 16H   2s         0.002219  0.008365 -0.002111  0.004858 -0.021772  0.013611
 16H   1pz        0.001592  0.002909  0.000812 -0.001584 -0.003514  0.002621
 16H   1px       -0.007135 -0.009849  0.002478 -0.002194  0.009917 -0.009425
 16H   1py       -0.003326 -0.005102  0.002057 -0.002511  0.005982 -0.005440
 17H   1s         0.046241  0.090725 -0.022938  0.029328 -0.131404  0.061062
 17H   2s         0.007545  0.006001 -0.001516  0.003138 -0.014045  0.021914
 17H   1pz       -0.003521 -0.004987  0.002875 -0.003542  0.005078 -0.002943
 17H   1px       -0.001358 -0.002021  0.000498 -0.000243  0.001179  0.002742
 17H   1py        0.007074  0.010981 -0.001975  0.001371 -0.011498  0.005975
                     12        13        14        15        16        17   
                  -0.55986  -0.51985  -0.51985  -0.51697  -0.47912  -0.46585
                   2.00000   2.00000   2.00000   2.00000   2.00000   2.00000
                  --------  --------  --------  --------  --------  --------
  0C   1s         0.010179  0.013524 -0.001543 -0.049688 -0.000003 -0.019255
  0C   2s        -0.023063 -0.045336  0.005175  0.118769  0.000009  0.048094
  0C   3s        -0.023994  0.107067 -0.012209  0.014775 -0.000020  0.063716
  0C   1pz        0.077424 -0.083432 -0.114542 -0.077813  0.250993  0.052106
  0C   1px        0.118579  0.218567 -0.023900  0.040219 -0.002047  0.166392
  0C   1py       -0.154061  0.136662 -0.077150  0.157440  0.124551 -0.213673
  0C   2pz        0.033124 -0.013996 -0.022773 -0.032751  0.094469  0.051530
  0C   2px        0.039038  0.128214 -0.014404  0.015664 -0.000763  0.092501
  0C   2py       -0.066088  0.023404 -0.014738  0.066229  0.046876 -0.055548
  0C   1dz2      -0.004173 -0.000017 -0.004384 -0.007971 -0.001649 -0.003533
  0C   1dxz       0.002647  0.001883  0.003543  0.001406  0.007317 -0.002381
  0C   1dyz      -0.002568  0.001458  0.003742 -0.007984  0.001565  0.007729
  0C   1dx2y2     0.003435  0.000491 -0.002649  0.001730 -0.001070  0.003772
  0C   1dxy      -0.005136 -0.002750  0.002125 -0.002515  0.003610 -0.002744
  1C   1s         0.010178 -0.005424  0.012484  0.049690  0.000003 -0.020475
  1C   2s        -0.023057  0.018174 -0.041853 -0.118788 -0.000004  0.051147
  1C   3s        -0.023999 -0.042904  0.098877 -0.014738 -0.000017  0.067761
  1C   1pz        0.206034  0.002375  0.032910  0.102103 -0.031128  0.290332
  1C   1px        0.035675  0.041681 -0.245781  0.138104  0.121705  0.016890
  1C   1py       -0.008278  0.161132 -0.062134  0.054429 -0.250463  0.018187
  1C   2pz        0.080429 -0.023649  0.062029  0.043811 -0.011717  0.120778
  1C   2px        0.022771  0.028753 -0.095548  0.057291  0.045812 -0.005195
  1C   2py        0.001051  0.044623 -0.042085  0.022391 -0.094291 -0.036877
  1C   1dz2       0.007248 -0.000580  0.002259 -0.007966 -0.000697  0.000509
  1C   1dxz      -0.002253  0.000368 -0.001063 -0.001081  0.002323 -0.009132
  1C   1dyz      -0.002895  0.002173  0.000132  0.002256 -0.002818  0.001773
  1C   1dx2y2     0.000792 -0.004514 -0.003708 -0.005128 -0.006282 -0.002629
  1C   1dxy       0.001603  0.005014  0.000223 -0.006526  0.004427 -0.000253
  2C   1s         0.010177 -0.008095 -0.010940  0.049691  0.000003  0.001220
  2C   2s        -0.023040  0.027134  0.036680 -0.118789 -0.000012 -0.003056
  2C   3s        -0.024119 -0.064124 -0.086699 -0.014745  0.000035 -0.004009
  2C   1pz       -0.117538 -0.131809  0.003387 -0.103248 -0.219881 -0.061785
  2C   1px        0.038296  0.096965  0.229796  0.139787 -0.119631 -0.041017
  2C   1py       -0.168839  0.108102  0.042111 -0.047488  0.125910  0.054954
  2C   2pz       -0.049167 -0.019164  0.009821 -0.043556 -0.082774  0.033283
  2C   2px        0.023800  0.049369  0.086098  0.058007 -0.045049  0.016930
  2C   2py       -0.063223  0.061853  0.063149 -0.020968  0.047393 -0.010533
  2C   1dz2      -0.002495  0.003549 -0.003147  0.004442 -0.000952  0.009483
  2C   1dxz       0.000043 -0.004291  0.000618  0.005832  0.004995  0.000407
  2C   1dyz       0.005687 -0.002048  0.000321 -0.008513  0.004384  0.004381
  2C   1dx2y2    -0.004870 -0.000814  0.004013  0.001921  0.005211  0.003166
  2C   1dxy       0.002626  0.002466 -0.001523 -0.002949 -0.000818  0.005008
  3H   1s        -0.025552 -0.199689  0.022768 -0.033635  0.000000 -0.014275
  3H   2s        -0.011413 -0.025058  0.002871  0.002216  0.000008  0.000704
  3H   1pz        0.002094  0.000794 -0.004405 -0.001840  0.004853  0.000990
  3H   1px       -0.000702 -0.011187  0.001311 -0.002360 -0.000040  0.002178
  3H   1py       -0.004230 -0.003003 -0.001798  0.003669  0.002408 -0.006391
  4H   1s        -0.128785  0.068845 -0.007857  0.167184  0.000006 -0.174502
  4H   2s        -0.005169  0.007206 -0.000830  0.027739  0.000007 -0.044306
  4H   1pz       -0.003726  0.000679 -0.002510  0.004356  0.006516 -0.004652
  4H   1px       -0.000319  0.005585 -0.000618  0.002891 -0.000053  0.000680
  4H   1py        0.007504 -0.001963 -0.000983 -0.008731  0.003233  0.006971
  5C   1s         0.010178 -0.005425  0.012484 -0.049690 -0.000003  0.020475
  5C   2s        -0.023057  0.018175 -0.041853  0.118788  0.000004 -0.051147
  5C   3s        -0.023999 -0.042904  0.098877  0.014738  0.000017 -0.067761
  5C   1pz       -0.206034 -0.002374 -0.032910  0.102103 -0.031128  0.290332
  5C   1px       -0.035675 -0.041680  0.245781  0.138105  0.121705  0.016890
  5C   1py        0.008278 -0.161132  0.062134  0.054431 -0.250463  0.018186
  5C   2pz       -0.080429  0.023649 -0.062029  0.043810 -0.011717  0.120778
  5C   2px       -0.022771 -0.028752  0.095548  0.057291  0.045812 -0.005195
  5C   2py       -0.001051 -0.044623  0.042085  0.022391 -0.094291 -0.036877
  5C   1dz2       0.007248 -0.000580  0.002259  0.007966  0.000697 -0.000509
  5C   1dxz      -0.002253  0.000368 -0.001063  0.001081 -0.002323  0.009132
  5C   1dyz      -0.002895  0.002173  0.000132 -0.002256  0.002818 -0.001773
  5C   1dx2y2     0.000792 -0.004514 -0.003708  0.005128  0.006282  0.002629
  5C   1dxy       0.001603  0.005014  0.000223  0.006526 -0.004427  0.000253
  6H   1s        -0.025557  0.119563  0.161561  0.033627  0.000005  0.000898
  6H   2s        -0.011406  0.014994  0.020291 -0.002212  0.000001 -0.000046
  6H   1pz       -0.002814 -0.002590  0.002810 -0.002751 -0.004251 -0.002578
  6H   1px        0.003520 -0.007024 -0.006058  0.001201 -0.002313 -0.001709
  6H   1py       -0.001569 -0.002639 -0.007181 -0.003661  0.002434  0.001902
  7H   1s        -0.128776 -0.041227 -0.055718 -0.167184 -0.000024  0.011043
  7H   2s        -0.005162 -0.004317 -0.005851 -0.027737 -0.000014  0.002806
  7H   1pz        0.005155 -0.000605  0.002741  0.006261 -0.005706 -0.001860
  7H   1px       -0.005270  0.000361  0.002423 -0.004559 -0.003106 -0.000469
  7H   1py        0.003993  0.004110  0.003519  0.006601  0.003270  0.000681
  8C   1s         0.010177 -0.008096 -0.010940 -0.049691 -0.000003 -0.001220
  8C   2s        -0.023041  0.027135  0.036680  0.118789  0.000012  0.003056
  8C   3s        -0.024119 -0.064123 -0.086699  0.014745 -0.000035  0.004009
  8C   1pz        0.117538  0.131808 -0.003387 -0.103250 -0.219881 -0.061785
  8C   1px       -0.038296 -0.096964 -0.229796  0.139788 -0.119631 -0.041017
  8C   1py        0.168840 -0.108102 -0.042111 -0.047487  0.125910  0.054954
  8C   2pz        0.049167  0.019163 -0.009821 -0.043556 -0.082773  0.033283
  8C   2px       -0.023800 -0.049369 -0.086098  0.058008 -0.045049  0.016930
  8C   2py        0.063223 -0.061853 -0.063149 -0.020968  0.047393 -0.010533
  8C   1dz2      -0.002495  0.003549 -0.003147 -0.004442  0.000952 -0.009483
  8C   1dxz       0.000043 -0.004291  0.000618 -0.005832 -0.004995 -0.000407
  8C   1dyz       0.005687 -0.002048  0.000321  0.008513 -0.004384 -0.004381
  8C   1dx2y2    -0.004870 -0.000814  0.004013 -0.001921 -0.005211 -0.003166
  8C   1dxy       0.002626  0.002466 -0.001523  0.002949  0.000818 -0.005008
  9H   1s        -0.025551  0.080126 -0.184336  0.033628  0.000007 -0.015184
  9H   2s        -0.011419  0.010043 -0.023132 -0.002227  0.000009  0.000740
  9H   1pz        0.002997  0.002596 -0.004642  0.004593 -0.000601  0.006537
  9H   1px        0.003472 -0.005528  0.007503  0.001142  0.002352  0.002041
  9H   1py        0.001315  0.001901  0.006358 -0.000017 -0.004843  0.002011
 10H   1s        -0.128785 -0.027637  0.063551 -0.167192 -0.000004 -0.185534
 10H   2s        -0.005168 -0.002899  0.006686 -0.027742 -0.000001 -0.047107
 10H   1pz       -0.006368 -0.001833  0.004968 -0.009104 -0.000808 -0.005914
 10H   1px       -0.005175 -0.000189 -0.002505 -0.004433  0.003159 -0.006512
 10H   1py       -0.001723  0.002904 -0.000630 -0.001023 -0.006501 -0.001430
 11C   1s         0.010180  0.013524 -0.001543  0.049688  0.000003  0.019255
 11C   2s        -0.023063 -0.045337  0.005175 -0.118768 -0.000009 -0.048094
 11C   3s        -0.023994  0.107067 -0.012209 -0.014776  0.000020 -0.063716
 11C   1pz       -0.077424  0.083431  0.114542 -0.077814  0.250993  0.052106
 11C   1px       -0.118579 -0.218566  0.023900  0.040221 -0.002047  0.166392
 11C   1py        0.154062 -0.136660  0.077149  0.157441  0.124551 -0.213673
 11C   2pz       -0.033124  0.013996  0.022773 -0.032751  0.094469  0.051530
 11C   2px       -0.039039 -0.128214  0.014404  0.015666 -0.000763  0.092500
 11C   2py        0.066088 -0.023403  0.014738  0.066230  0.046876 -0.055548
 11C   1dz2      -0.004173 -0.000017 -0.004384  0.007971  0.001649  0.003533
 11C   1dxz       0.002647  0.001883  0.003543 -0.001406 -0.007317  0.002381
 11C   1dyz      -0.002568  0.001458  0.003742  0.007984 -0.001565 -0.007729
 11C   1dx2y2     0.003435  0.000491 -0.002649 -0.001730  0.001070 -0.003772
 11C   1dxy      -0.005136 -0.002750  0.002125  0.002515 -0.003610  0.002744
 12H   1s        -0.025557  0.119562  0.161561 -0.033628 -0.000005 -0.000898
 12H   2s        -0.011406  0.014994  0.020291  0.002212 -0.000001  0.000046
 12H   1pz        0.002814  0.002590 -0.002810 -0.002751 -0.004251 -0.002578
 12H   1px       -0.003520  0.007024  0.006058  0.001201 -0.002313 -0.001709
 12H   1py        0.001569  0.002639  0.007181 -0.003661  0.002434  0.001902
 13H   1s        -0.128776 -0.041226 -0.055718  0.167185  0.000024 -0.011043
 13H   2s        -0.005162 -0.004317 -0.005851  0.027737  0.000014 -0.002806
 13H   1pz       -0.005155  0.000605 -0.002741  0.006261 -0.005706 -0.001860
 13H   1px        0.005270 -0.000361 -0.002423 -0.004559 -0.003106 -0.000469
 13H   1py       -0.003993 -0.004110 -0.003519  0.006601  0.003270  0.000681
 14H   1s        -0.025551  0.080126 -0.184336 -0.033629 -0.000007  0.015184
 14H   2s        -0.011419  0.010043 -0.023132  0.002227 -0.000009 -0.000740
 14H   1pz       -0.002997 -0.002596  0.004642  0.004593 -0.000601  0.006537
 14H   1px       -0.003472  0.005528 -0.007503  0.001142  0.002352  0.002041
 14H   1py       -0.001314 -0.001901 -0.006358 -0.000017 -0.004843  0.002011
 15H   1s        -0.128785 -0.027635  0.063551  0.167193  0.000004  0.185534
 15H   2s        -0.005168 -0.002899  0.006686  0.027742  0.000001  0.047107
 15H   1pz        0.006368  0.001833 -0.004968 -0.009104 -0.000808 -0.005914
 15H   1px        0.005175  0.000189  0.002505 -0.004433  0.003159 -0.006512
 15H   1py        0.001723 -0.002904  0.000630 -0.001022 -0.006501 -0.001430
 16H   1s        -0.025552 -0.199689  0.022768  0.033637 -0.000000  0.014275
 16H   2s        -0.011413 -0.025058  0.002871 -0.002216 -0.000008 -0.000704
 16H   1pz       -0.002094 -0.000794  0.004405 -0.001840  0.004853  0.000990
 16H   1px        0.000702  0.011187 -0.001311 -0.002360 -0.000040  0.002178
 16H   1py        0.004230  0.003003  0.001798  0.003669  0.002408 -0.006391
 17H   1s        -0.128786  0.068843 -0.007857 -0.167185 -0.000006  0.174502
 17H   2s        -0.005169  0.007206 -0.000830 -0.027739 -0.000007  0.044306
 17H   1pz        0.003726 -0.000679  0.002510  0.004356  0.006516 -0.004652
 17H   1px        0.000319 -0.005585  0.000618  0.002891 -0.000053  0.000680
 17H   1py       -0.007504  0.001963  0.000983 -0.008731  0.003233  0.006971
                     18        19        20        21        22        23   
                  -0.46585  -0.42941  -0.42941  -0.40168  -0.39601  -0.39601
                   2.00000   2.00000   2.00000   2.00000   2.00000   2.00000
                  --------  --------  --------  --------  --------  --------
  0C   1s         0.012525 -0.002705 -0.002531  0.012827  0.003912  0.005185
  0C   2s        -0.031293  0.003016  0.002821 -0.039965 -0.013384 -0.017740
  0C   3s        -0.041421  0.046459  0.043468 -0.024005 -0.003233 -0.004277
  0C   1pz       -0.130928  0.104004 -0.008796  0.038703 -0.252452  0.064248
  0C   1px       -0.107435 -0.179744 -0.167203 -0.182951 -0.057092 -0.078943
  0C   1py        0.090818 -0.079679 -0.127146 -0.080963  0.025988  0.232516
  0C   2pz        0.007222  0.066065 -0.043707  0.012539 -0.095574  0.026177
  0C   2px       -0.060490 -0.055156 -0.050683 -0.049977 -0.017852 -0.024896
  0C   2py        0.056340 -0.001914 -0.054101 -0.026116  0.007668  0.086045
  0C   1dz2      -0.006257 -0.002228 -0.009707 -0.008853 -0.007595 -0.006458
  0C   1dxz      -0.005027 -0.007006  0.002689 -0.004385 -0.005911  0.008834
  0C   1dyz       0.002368 -0.005010  0.002153 -0.002532 -0.007583 -0.012952
  0C   1dx2y2    -0.007284  0.010184  0.004971  0.011298 -0.004275 -0.003857
  0C   1dxy      -0.001579  0.002902  0.007206  0.009296 -0.008052 -0.002368
  1C   1s        -0.010416 -0.003548  0.001078  0.012825 -0.006444  0.000794
  1C   2s         0.026025  0.003975 -0.001201 -0.039939  0.022047 -0.002717
  1C   3s         0.034461  0.060768 -0.018549 -0.024179  0.005325 -0.000638
  1C   1pz        0.136359 -0.046811  0.004198 -0.056598  0.225164 -0.057727
  1C   1px        0.052836  0.258275 -0.039313  0.173207  0.096504  0.105512
  1C   1py       -0.081853  0.103140 -0.112179  0.091212 -0.017743 -0.239378
  1C   2pz        0.066169 -0.020922 -0.003651 -0.012287  0.078711 -0.021183
  1C   2px       -0.021234  0.082303  0.014021  0.050207  0.038449  0.040243
  1C   2py        0.019449  0.014582 -0.084795  0.025914 -0.005145 -0.091946
  1C   1dz2      -0.002270 -0.002939  0.000694 -0.004825 -0.015105 -0.000023
  1C   1dxz       0.000728 -0.008023  0.001730 -0.008372 -0.008809  0.005909
  1C   1dyz      -0.010830 -0.005060  0.000064 -0.004798 -0.001137 -0.008185
  1C   1dx2y2    -0.000167  0.008939  0.006242  0.007908 -0.007287 -0.004716
  1C   1dxy      -0.002906  0.007834 -0.009575  0.011799 -0.006499  0.003832
  2C   1s         0.022941  0.000841 -0.003609  0.012827  0.002537 -0.005979
  2C   2s        -0.057318 -0.000951  0.004027 -0.039968 -0.008679  0.020464
  2C   3s        -0.075848 -0.014394  0.061888 -0.024018 -0.002099  0.004893
  2C   1pz        0.180264  0.082709 -0.056110 -0.036172  0.251385 -0.053687
  2C   1px       -0.040966 -0.022576  0.260404  0.173048  0.071896  0.123864
  2C   1py        0.265146 -0.064489  0.105901  0.101350 -0.042221 -0.209108
  2C   2pz        0.062607  0.069878 -0.002555 -0.012576  0.095022 -0.017518
  2C   2px        0.011750  0.018896  0.081004  0.050192  0.027017  0.048733
  2C   2py        0.124961 -0.046440  0.029180  0.025737 -0.018960 -0.073583
  2C   1dz2       0.000839 -0.003807 -0.009067 -0.008675 -0.004925  0.001252
  2C   1dxz      -0.005992  0.006590 -0.001555 -0.004049 -0.009251  0.008368
  2C   1dyz       0.002201  0.003587  0.000395 -0.001352  0.000101 -0.016932
  2C   1dx2y2     0.002923  0.004255  0.004879  0.005614 -0.007472  0.000555
  2C   1dxy      -0.005552 -0.006399  0.011644  0.013896 -0.003242  0.002537
  3H   1s         0.009285  0.188647  0.176404  0.197704 -0.015270 -0.020292
  3H   2s        -0.000461  0.051511  0.048179  0.089060 -0.001959 -0.002605
  3H   1pz       -0.004505 -0.000299 -0.003197 -0.001234 -0.006072  0.000841
  3H   1px       -0.001386  0.007583  0.007116  0.006381 -0.002407 -0.003267
  3H   1py        0.002242  0.004383  0.002651  0.002593  0.001459  0.006349
  4H   1s         0.113492 -0.073972 -0.069186 -0.070575  0.136385  0.180907
  4H   2s         0.028815 -0.026742 -0.025024 -0.023447  0.049916  0.066224
  4H   1pz        0.000922 -0.001003 -0.000271 -0.000582 -0.002311  0.007028
  4H   1px       -0.000426 -0.006479 -0.006065 -0.006361 -0.000658 -0.000954
  4H   1py       -0.005578  0.001079  0.001341  0.001070 -0.007538 -0.004990
  5C   1s         0.010416  0.003548 -0.001078  0.012825 -0.006444  0.000794
  5C   2s        -0.026025 -0.003975  0.001201 -0.039939  0.022047 -0.002717
  5C   3s        -0.034461 -0.060768  0.018549 -0.024179  0.005325 -0.000638
  5C   1pz        0.136359 -0.046811  0.004198  0.056598 -0.225164  0.057727
  5C   1px        0.052836  0.258275 -0.039312 -0.173206 -0.096504 -0.105512
  5C   1py       -0.081853  0.103140 -0.112179 -0.091212  0.017743  0.239378
  5C   2pz        0.066169 -0.020922 -0.003651  0.012287 -0.078711  0.021183
  5C   2px       -0.021234  0.082303  0.014021 -0.050206 -0.038449 -0.040243
  5C   2py        0.019449  0.014582 -0.084795 -0.025914  0.005144  0.091946
  5C   1dz2       0.002270  0.002939 -0.000694 -0.004825 -0.015105 -0.000023
  5C   1dxz      -0.000728  0.008023 -0.001730 -0.008372 -0.008809  0.005909
  5C   1dyz       0.010830  0.005060 -0.000064 -0.004798 -0.001137 -0.008185
  5C   1dx2y2     0.000167 -0.008939 -0.006242  0.007908 -0.007287 -0.004716
  5C   1dxy       0.002906 -0.007834  0.009575  0.011799 -0.006499  0.003832
  6H   1s         0.017009 -0.058443  0.251592  0.197706 -0.009900  0.023421
  6H   2s        -0.000851 -0.015976  0.068692  0.089012 -0.001269  0.003023
  6H   1pz        0.004904  0.001290  0.002694  0.001101  0.006069 -0.002297
  6H   1px       -0.003098  0.003283 -0.009642 -0.005866  0.001645  0.002656
  6H   1py        0.005194  0.000217 -0.005656 -0.003650 -0.000085 -0.006680
  7H   1s         0.207870  0.022929 -0.098685 -0.070552  0.088470 -0.208588
  7H   2s         0.052786  0.008299 -0.035696 -0.023454  0.032395 -0.076350
  7H   1pz       -0.005891 -0.000890  0.001940  0.001393  0.002675  0.007322
  7H   1px        0.007010 -0.001197  0.004127  0.003186  0.005375 -0.005251
  7H   1py       -0.003856 -0.001511  0.007583  0.005462 -0.004118  0.001903
  8C   1s        -0.022941 -0.000841  0.003609  0.012827  0.002537 -0.005979
  8C   2s         0.057318  0.000952 -0.004027 -0.039968 -0.008679  0.020464
  8C   3s         0.075848  0.014394 -0.061888 -0.024019 -0.002099  0.004893
  8C   1pz        0.180264  0.082709 -0.056110  0.036173 -0.251385  0.053687
  8C   1px       -0.040966 -0.022575  0.260404 -0.173048 -0.071896 -0.123864
  8C   1py        0.265146 -0.064489  0.105901 -0.101350  0.042221  0.209108
  8C   2pz        0.062607  0.069878 -0.002555  0.012576 -0.095022  0.017518
  8C   2px        0.011750  0.018897  0.081004 -0.050192 -0.027017 -0.048733
  8C   2py        0.124961 -0.046440  0.029180 -0.025737  0.018960  0.073582
  8C   1dz2      -0.000839  0.003807  0.009067 -0.008675 -0.004925  0.001252
  8C   1dxz       0.005992 -0.006590  0.001555 -0.004050 -0.009251  0.008368
  8C   1dyz      -0.002201 -0.003586 -0.000395 -0.001352  0.000101 -0.016932
  8C   1dx2y2    -0.002923 -0.004255 -0.004879  0.005614 -0.007472  0.000555
  8C   1dxy       0.005552  0.006399 -0.011644  0.013896 -0.003242  0.002537
  9H   1s        -0.007736  0.247107 -0.075172  0.197700  0.025267 -0.003093
  9H   2s         0.000383  0.067448 -0.020529  0.089006  0.003250 -0.000387
  9H   1pz        0.002875  0.002679 -0.001090  0.002160  0.007467 -0.001587
  9H   1px        0.002799 -0.009399  0.003940 -0.005874  0.002008  0.002368
  9H   1py       -0.002600 -0.005675 -0.000496 -0.003123 -0.000770 -0.005289
 10H   1s        -0.094367 -0.096915  0.029485 -0.070508 -0.224885  0.027663
 10H   2s        -0.023973 -0.035052  0.010662 -0.023418 -0.082312  0.010119
 10H   1pz       -0.003254 -0.007025  0.002201 -0.005148 -0.006258  0.000010
 10H   1px       -0.002353  0.004110 -0.001498  0.003240 -0.006423  0.003759
 10H   1py       -0.002703  0.003047 -0.000418  0.002215 -0.003270 -0.005706
 11C   1s        -0.012525  0.002705  0.002531  0.012827  0.003912  0.005185
 11C   2s         0.031293 -0.003016 -0.002821 -0.039965 -0.013384 -0.017740
 11C   3s         0.041421 -0.046459 -0.043468 -0.024005 -0.003233 -0.004277
 11C   1pz       -0.130928  0.104004 -0.008796 -0.038703  0.252452 -0.064248
 11C   1px       -0.107435 -0.179744 -0.167203  0.182950  0.057092  0.078943
 11C   1py        0.090818 -0.079679 -0.127146  0.080963 -0.025988 -0.232516
 11C   2pz        0.007222  0.066065 -0.043707 -0.012539  0.095574 -0.026177
 11C   2px       -0.060490 -0.055156 -0.050683  0.049977  0.017852  0.024896
 11C   2py        0.056340 -0.001914 -0.054101  0.026116 -0.007669 -0.086045
 11C   1dz2       0.006257  0.002228  0.009707 -0.008853 -0.007595 -0.006458
 11C   1dxz       0.005027  0.007006 -0.002689 -0.004385 -0.005911  0.008834
 11C   1dyz      -0.002368  0.005010 -0.002153 -0.002532 -0.007583 -0.012952
 11C   1dx2y2     0.007284 -0.010184 -0.004971  0.011298 -0.004275 -0.003857
 11C   1dxy       0.001579 -0.002902 -0.007206  0.009296 -0.008052 -0.002368
[...]
     53       0.020129   0.025520   0.005898  -0.058876   0.022386  -0.029627
                 42         43         44         45         46         47    
      0      -0.039708   0.016293   0.033858   0.034036  -0.013366  -0.024824
      1      -0.003815   0.000850   0.006041  -0.006860   0.003437   0.010428
      2       0.001127  -0.001385  -0.002707   0.003605  -0.001982  -0.005396
      3       0.004500  -0.028846  -0.021573   0.003437  -0.021747  -0.009387
      4       0.001436  -0.017226  -0.011909   0.002365  -0.014726  -0.007838
      5      -0.003373   0.024416   0.011528  -0.004106   0.033577   0.026436
      6       0.023185   0.018008  -0.023477   0.017474   0.009326  -0.008442
      7       0.023543   0.019984  -0.019797   0.029172   0.018140  -0.025014
      8       0.001696   0.000593   0.001412   0.007080   0.005481  -0.009772
      9       0.454660  -0.185974  -0.396885  -0.364334   0.140933   0.254648
     10       0.208441  -0.084562  -0.179557  -0.171275   0.065653   0.119781
     11      -0.098997   0.042046   0.085961   0.080958  -0.033576  -0.057311
     12       0.019498  -0.008480  -0.011888  -0.037580   0.016375   0.039279
     13      -0.157753   0.069422   0.100652   0.250626  -0.106443  -0.241356
     14       0.080512  -0.029276  -0.050227  -0.123223   0.056066   0.120142
     15       0.004498  -0.028846   0.021574  -0.003437   0.021747  -0.009388
     16       0.001435  -0.017226   0.011910  -0.002365   0.014726  -0.007838
     17      -0.003372   0.024416  -0.011528   0.004106  -0.033576   0.026437
     18      -0.361443  -0.292630   0.336523  -0.357659  -0.208853   0.254822
     19      -0.205489  -0.167695   0.194414  -0.200067  -0.117779   0.142392
     20       0.077722   0.064775  -0.072096   0.078421   0.048383  -0.057049
     21       0.082368   0.072606  -0.048448   0.148732   0.098897  -0.153364
     22      -0.074729  -0.066724   0.042618  -0.143867  -0.096139   0.152897
     23      -0.091603  -0.072663   0.051220  -0.161048  -0.112043   0.171190
     24       0.023184   0.018009   0.023479  -0.017474  -0.009325  -0.008442
     25       0.023542   0.019985   0.019798  -0.029171  -0.018139  -0.025014
     26       0.001696   0.000594  -0.001412  -0.007080  -0.005481  -0.009772
     27      -0.063112   0.453390   0.296611  -0.063448   0.438011   0.266412
     28      -0.031320   0.238099   0.156097  -0.030814   0.229490   0.139304
     29       0.019529  -0.140328  -0.094812   0.019328  -0.131278  -0.079091
     30       0.011283  -0.103913  -0.031194   0.021474  -0.178356  -0.153556
     31       0.008666  -0.031528  -0.010214   0.003382  -0.054234  -0.045827
     32       0.019389  -0.146044  -0.041347   0.029148  -0.263821  -0.232153
     33      -0.039705   0.016292  -0.033861  -0.034035   0.013365  -0.024825
     34      -0.003814   0.000849  -0.006041   0.006859  -0.003437   0.010428
     35       0.001127  -0.001385   0.002707  -0.003605   0.001982  -0.005397
     36      -0.361426  -0.292649  -0.336540   0.357642   0.208844   0.254832
     37      -0.205483  -0.167705  -0.194420   0.200059   0.117774   0.142398
     38       0.077717   0.064779   0.072099  -0.078419  -0.048382  -0.057052
     39       0.082369   0.072615   0.048448  -0.148724  -0.098893  -0.153371
     40      -0.074731  -0.066732  -0.042617   0.143859   0.096136   0.152903
     41      -0.091606  -0.072673  -0.051221   0.161038   0.112038   0.171196
     42      -0.063085   0.453389  -0.296626   0.063449  -0.438000   0.266421
     43      -0.031307   0.238099  -0.156102   0.030816  -0.229486   0.139310
     44       0.019523  -0.140329   0.094815  -0.019329   0.131274  -0.079093
     45       0.011276  -0.103916   0.031195  -0.021473   0.178352  -0.153560
     46       0.008663  -0.031529   0.010217  -0.003382   0.054231  -0.045827
     47       0.019382  -0.146050   0.041349  -0.029145   0.263813  -0.232159
     48       0.454636  -0.185970   0.396919   0.364325  -0.140925   0.254658
     49       0.208428  -0.084561   0.179576   0.171270  -0.065648   0.119787
     50      -0.098992   0.042042  -0.085970  -0.080955   0.033574  -0.057314
     51       0.019499  -0.008481   0.011888   0.037578  -0.016374   0.039281
     52      -0.157753   0.069424  -0.100662  -0.250612   0.106437  -0.241367
     53       0.080512  -0.029279   0.050232   0.123217  -0.056061   0.120148
                 48         49         50         51         52         53    
      0       0.005366  -0.000294  -0.000601  -0.016142   0.005166   0.016635
      1       0.046178  -0.002695   0.033281  -0.042588   0.014019   0.030637
      2      -0.022835   0.001794  -0.016517   0.021225  -0.006189  -0.015060
      3      -0.019823  -0.030329  -0.021850  -0.009588   0.042756   0.032956
      4      -0.007674  -0.010960  -0.007287  -0.004619   0.017447   0.014251
      5      -0.018874  -0.028345  -0.026655  -0.006304   0.025507   0.014225
      6      -0.015956   0.033174  -0.021976  -0.032919  -0.029616   0.033010
      7       0.008210  -0.017053   0.016691   0.007421   0.006639  -0.002505
      8       0.013860  -0.027583   0.021497   0.022742   0.019281  -0.019398
      9      -0.164028   0.009759  -0.077790   0.265327  -0.085190  -0.247791
     10      -0.067521   0.003850  -0.030150   0.113782  -0.035057  -0.104785
     11       0.032119  -0.002199   0.014306  -0.053178   0.020047   0.049945
     12       0.093401  -0.005848   0.070070  -0.076947   0.024779   0.049943
     13      -0.482916   0.029621  -0.363901   0.396410  -0.128152  -0.260735
     14       0.240231  -0.016455   0.181110  -0.197688   0.062498   0.129751
     15      -0.019821  -0.030330   0.021851   0.009589  -0.042755   0.032957
     16      -0.007673  -0.010960   0.007288   0.004619  -0.017447   0.014251
     17      -0.018873  -0.028346   0.026655   0.006305  -0.025506   0.014225
     18       0.064979  -0.135376   0.059014   0.197371   0.175622  -0.232816
     19       0.040282  -0.083305   0.038372   0.117098   0.107099  -0.140774
     20      -0.012675   0.025756  -0.010217  -0.037602  -0.037221   0.046056
     21       0.128269  -0.263272   0.210233   0.197026   0.173181  -0.160709
     22      -0.137108   0.281380  -0.224214  -0.210844  -0.185355   0.171088
     23      -0.150079   0.303546  -0.242775  -0.228992  -0.199256   0.185434
     24      -0.015955   0.033176   0.021976   0.032918   0.029615   0.033011
     25       0.008209  -0.017053  -0.016691  -0.007420  -0.006638  -0.002505
     26       0.013860  -0.027585  -0.021497  -0.022741  -0.019280  -0.019398
     27       0.082681   0.126218   0.061226   0.059710  -0.259219  -0.234838
     28       0.044210   0.066819   0.032869   0.028101  -0.137839  -0.124313
     29      -0.029896  -0.045573  -0.024302  -0.020475   0.089077   0.081771
     30       0.157082   0.238124   0.206637   0.058756  -0.248045  -0.158043
     31       0.046430   0.067532   0.059395   0.018062  -0.070943  -0.045500
     32       0.252141   0.379976   0.329734   0.094949  -0.396751  -0.251870
     33       0.005366  -0.000293   0.000600   0.016142  -0.005166   0.016635
     34       0.046177  -0.002695  -0.033283   0.042587  -0.014018   0.030637
     35      -0.022835   0.001794   0.016518  -0.021225   0.006188  -0.015060
     36       0.064976  -0.135384  -0.059017  -0.197368  -0.175621  -0.232815
     37       0.040279  -0.083309  -0.038375  -0.117096  -0.107098  -0.140774
     38      -0.012675   0.025758   0.010218   0.037602   0.037221   0.046056
     39       0.128262  -0.263286  -0.210234  -0.197018  -0.173169  -0.160712
     40      -0.137101   0.281395   0.224215   0.210836   0.185342   0.171092
     41      -0.150070   0.303563   0.242776   0.228983   0.199242   0.185437
     42       0.082675   0.126224  -0.061229  -0.059711   0.259217  -0.234839
     43       0.044207   0.066823  -0.032872  -0.028101   0.137837  -0.124314
     44      -0.029893  -0.045575   0.024304   0.020476  -0.089076   0.081772
     45       0.157070   0.238131  -0.206644  -0.058761   0.248037  -0.158045
     46       0.046426   0.067535  -0.059398  -0.018064   0.070940  -0.045500
     47       0.252123   0.379988  -0.329745  -0.094958   0.396738  -0.251874
     48      -0.164023   0.009755   0.077801  -0.265327   0.085188  -0.247793
     49      -0.067520   0.003849   0.030152  -0.113783   0.035056  -0.104785
     50       0.032118  -0.002197  -0.014307   0.053178  -0.020046   0.049945
     51       0.093400  -0.005848  -0.070073   0.076945  -0.024777   0.049944
     52      -0.482912   0.029619   0.363918  -0.396400   0.128143  -0.260739
     53       0.240229  -0.016453  -0.181119   0.197683  -0.062493   0.129753


-----------
IR SPECTRUM
-----------

 Mode    freq (cm**-1)   T**2         TX         TY         TZ
-------------------------------------------------------------------
   6:       232.91    0.001629  ( -0.021687   0.033723  -0.004624)
   7:       233.42    0.001725  (  0.006231   0.013549   0.038765)
   8:       378.89    0.000000  ( -0.000011   0.000027  -0.000011)
   9:       424.95    0.000000  ( -0.000023  -0.000020  -0.000002)
  10:       425.18    0.000000  ( -0.000015  -0.000001   0.000015)
  11:       513.86    1.083706  ( -0.903980  -0.464323   0.225679)
  12:       774.13    0.000000  (  0.000005   0.000015   0.000010)
  13:       774.28    0.000000  (  0.000010   0.000008  -0.000016)
  14:       792.56    0.000000  ( -0.000003   0.000001  -0.000006)
  15:       853.17    1.754710  ( -0.210209   0.871637   0.975074)
  16:       853.23    1.747335  ( -0.619918   0.800164  -0.850161)
  17:       890.60    1.278922  ( -0.270267   0.009398  -1.098084)
  18:       890.69    1.279280  ( -0.496969   1.007800   0.128994)
  19:      1007.97    2.110276  ( -1.260047  -0.651320   0.313590)
  20:      1016.73    0.000000  ( -0.000200  -0.000107   0.000036)
  21:      1016.80    0.000000  ( -0.000172  -0.000078   0.000053)
  22:      1041.28    0.000000  (  0.000000  -0.000003  -0.000006)
  23:      1079.11    0.000015  (  0.003312   0.000625   0.001934)
  24:      1095.90    0.000011  (  0.002881   0.001529  -0.000349)
  25:      1133.87    0.000000  (  0.000005  -0.000011   0.000006)
  26:      1238.44    3.008676  ( -0.494950   1.400521   0.895679)
  27:      1238.59    2.991035  ( -0.705226   0.666709  -1.431500)
  28:      1247.24    0.000000  (  0.000002  -0.000049  -0.000105)
  29:      1247.29    0.000000  ( -0.000002   0.000047   0.000002)
  30:      1287.51    0.000000  ( -0.000000  -0.000062  -0.000128)
  31:      1325.41    0.000162  (  0.007853  -0.006745   0.007424)
  32:      1329.41    0.000002  ( -0.000302   0.000989   0.000952)
  33:      1329.47    0.000001  ( -0.000494   0.000364  -0.001000)
  34:      1329.97    2.351690  ( -0.345061   1.134294   0.972625)
  35:      1330.00    2.359109  ( -0.686359   0.768789  -1.138852)
  36:      1406.99    0.000000  (  0.000034  -0.000005  -0.000032)
  37:      1407.10    0.000000  (  0.000053   0.000024   0.000011)
  38:      1414.94    4.170810  (  0.649537  -1.756351  -0.814948)
  39:      1415.02    4.153340  (  0.738016  -0.571848   1.811536)
  40:      1418.12   11.639274  ( -2.968762  -1.506693   0.745385)
  41:      1436.14    0.000000  ( -0.000007   0.000011  -0.000004)
  42:      2922.85   35.701208  ( -2.898664   5.222812  -0.145557)
  43:      2923.20   36.051134  (  1.249212   0.842803   5.812081)
  44:      2925.14    0.000000  ( -0.000105   0.000107  -0.000068)
  45:      2926.72    0.000000  (  0.000128   0.000065   0.000078)
  46:      2926.98    0.000000  ( -0.000076   0.000071   0.000093)
  47:      2929.41   74.263475  ( -7.408350  -3.921720   1.999984)
  48:      2978.08   90.659401  ( -4.667973   7.128879  -4.248356)
  49:      2978.13   90.553053  (  0.384060  -4.696756  -8.267166)
  50:      2980.10    0.000000  (  0.000063  -0.000098   0.000112)
  51:      2981.48    0.000000  (  0.000003   0.000003   0.000147)
  52:      2981.61    0.000000  ( -0.000022   0.000165   0.000136)
  53:      2987.93  114.015112  (  9.286658   4.755876  -2.270403)

The first frequency considered to be a vibration is 6
The total number of vibrations considered is 48


--------------------------
THERMOCHEMISTRY AT 298.15K
--------------------------

Temperature         ... 298.15 K
Pressure            ... 1.00 atm
Total Mass          ... 84.16 AMU

Throughout the following assumptions are being made:
  (1) The electronic state is orbitally nondegenerate
  (2) There are no thermally accessible electronically excited states
  (3) Hindered rotations indicated by low frequency modes are not
      treated as such but are treated as vibrations and this may
      cause some error
  (4) All equations used are the standard statistical mechanics
      equations for an ideal gas
  (5) All vibrations are strictly harmonic

freq.     232.91  E(vib)   ...       0.32 
freq.     233.42  E(vib)   ...       0.32 
freq.     378.89  E(vib)   ...       0.21 
freq.     424.95  E(vib)   ...       0.18 
freq.     425.18  E(vib)   ...       0.18 
freq.     513.86  E(vib)   ...       0.13 
freq.     774.13  E(vib)   ...       0.05 
freq.     774.28  E(vib)   ...       0.05 
freq.     792.56  E(vib)   ...       0.05 
freq.     853.17  E(vib)   ...       0.04 
freq.     853.23  E(vib)   ...       0.04 
freq.     890.60  E(vib)   ...       0.04 
freq.     890.69  E(vib)   ...       0.04 
freq.    1007.97  E(vib)   ...       0.02 
freq.    1016.73  E(vib)   ...       0.02 
freq.    1016.80  E(vib)   ...       0.02 
freq.    1041.28  E(vib)   ...       0.02 
freq.    1079.11  E(vib)   ...       0.02 
freq.    1095.90  E(vib)   ...       0.02 
freq.    1133.87  E(vib)   ...       0.01 
freq.    1238.44  E(vib)   ...       0.01 
freq.    1238.59  E(vib)   ...       0.01 
freq.    1247.24  E(vib)   ...       0.01 
freq.    1247.29  E(vib)   ...       0.01 
freq.    1287.51  E(vib)   ...       0.01 
freq.    1325.41  E(vib)   ...       0.01 
freq.    1329.41  E(vib)   ...       0.01 
freq.    1329.47  E(vib)   ...       0.01 
freq.    1329.97  E(vib)   ...       0.01 
freq.    1330.00  E(vib)   ...       0.01 
freq.    1406.99  E(vib)   ...       0.00 
freq.    1407.10  E(vib)   ...       0.00 
freq.    1414.94  E(vib)   ...       0.00 
freq.    1415.02  E(vib)   ...       0.00 
freq.    1418.12  E(vib)   ...       0.00 
freq.    1436.14  E(vib)   ...       0.00 
freq.    2922.85  E(vib)   ...       0.00 
freq.    2923.20  E(vib)   ...       0.00 
freq.    2925.14  E(vib)   ...       0.00 
freq.    2926.72  E(vib)   ...       0.00 
freq.    2926.98  E(vib)   ...       0.00 
freq.    2929.41  E(vib)   ...       0.00 
freq.    2978.08  E(vib)   ...       0.00 
freq.    2978.13  E(vib)   ...       0.00 
freq.    2980.10  E(vib)   ...       0.00 
freq.    2981.48  E(vib)   ...       0.00 
freq.    2981.61  E(vib)   ...       0.00 
freq.    2987.93  E(vib)   ...       0.00 

------------
INNER ENERGY
------------

The inner energy is: U= E(el) + E(ZPE) + E(vib) + E(rot) + E(trans)
    E(el)   - is the total energy from the electronic structure calculation
              = E(kin-el) + E(nuc-el) + E(el-el) + E(nuc-nuc)
    E(ZPE)  - the the zero temperature vibrational energy from the frequency calculation
    E(vib)  - the the finite temperature correction to E(ZPE) due to population
              of excited vibrational states
    E(rot)  - is the rotational thermal energy
    E(trans)- is the translational thermal energy

Summary of contributions to the inner energy U:
Electronic energy                ...   -235.62458206 Eh
Zero point energy                ...      0.16464951 Eh     103.32 kcal/mol
Thermal vibrational correction   ...      0.00300111 Eh       1.88 kcal/mol
Thermal rotational correction    ...      0.00141627 Eh       0.89 kcal/mol
Thermal translational correction ...      0.00141627 Eh       0.89 kcal/mol
-----------------------------------------------------------------------
Total thermal energy                   -235.45409889 Eh


Summary of corrections to the electronic energy:
(perhaps to be used in another calculation)
Total thermal correction                  0.00583365 Eh       3.66 kcal/mol
Non-thermal (ZPE) correction              0.16464951 Eh     103.32 kcal/mol
-----------------------------------------------------------------------
Total correction                          0.17048316 Eh     106.98 kcal/mol


--------
ENTHALPY
--------

The enthalpy is H = U + kB*T
                kB is Boltzmann's constant
Total free energy                 ...   -235.45409889 Eh 
Thermal Enthalpy correction       ...      0.00094421 Eh       0.59 kcal/mol
-----------------------------------------------------------------------
Total Enthalpy                    ...   -235.45315468 Eh


Note: Rotational entropy computed according to Herzberg 
Infrared and Raman Spectra, Chapter V,1, Van Nostrand Reinhold, 1945 
Point Group:  Ci, Symmetry Number:   1  
Rotational constants in cm-1:     0.140679     0.140659     0.080330 

Vibrational entropy computed according to the QRRHO of S. Grimme
Chem.Eur.J. 2012 18 9955


-------
ENTROPY
-------

The entropy contributions are T*S = T*(S(el)+S(vib)+S(rot)+S(trans))
     S(el)   - electronic entropy
     S(vib)  - vibrational entropy
     S(rot)  - rotational entropy
     S(trans)- translational entropy
The entropies will be listed as mutliplied by the temperature to get
units of energy

Electronic entropy                ...      0.00000000 Eh      0.00 kcal/mol
Vibrational entropy               ...      0.00444863 Eh      2.79 kcal/mol
Rotational entropy                ...      0.01255310 Eh      7.88 kcal/mol
Translational entropy             ...      0.01862704 Eh     11.69 kcal/mol
-----------------------------------------------------------------------
Final entropy term                ...      0.03562878 Eh     22.36 kcal/mol

In case the symmetry of your molecule has not been determined correctly
or in case you have a reason to use a different symmetry number we print 
out the resulting rotational entropy values for sn=1,12 :
 --------------------------------------------------------
|  sn= 1 | S(rot)=       0.01255310 Eh      7.88 kcal/mol|
|  sn= 2 | S(rot)=       0.01189865 Eh      7.47 kcal/mol|
|  sn= 3 | S(rot)=       0.01151582 Eh      7.23 kcal/mol|
|  sn= 4 | S(rot)=       0.01124419 Eh      7.06 kcal/mol|
|  sn= 5 | S(rot)=       0.01103350 Eh      6.92 kcal/mol|
|  sn= 6 | S(rot)=       0.01086136 Eh      6.82 kcal/mol|
|  sn= 7 | S(rot)=       0.01071581 Eh      6.72 kcal/mol|
|  sn= 8 | S(rot)=       0.01058974 Eh      6.65 kcal/mol|
|  sn= 9 | S(rot)=       0.01047853 Eh      6.58 kcal/mol|
|  sn=10 | S(rot)=       0.01037905 Eh      6.51 kcal/mol|
|  sn=11 | S(rot)=       0.01028906 Eh      6.46 kcal/mol|
|  sn=12 | S(rot)=       0.01020690 Eh      6.40 kcal/mol|
 --------------------------------------------------------


-------------------
GIBBS FREE ENERGY
-------------------

The Gibbs free energy is G = H - T*S

Total enthalpy                    ...   -235.45315468 Eh 
Total entropy correction          ...     -0.03562878 Eh    -22.36 kcal/mol
-----------------------------------------------------------------------
Final Gibbs free energy         ...   -235.48878346 Eh

For completeness - the Gibbs free energy minus the electronic energy
G-E(el)                           ...      0.13579860 Eh     85.21 kcal/mol


Timings for individual modules:

Sum of individual times         ...      156.710 sec (=   2.612 min)
GTO integral calculation        ...        3.826 sec (=   0.064 min)   2.4 %
SCF iterations                  ...       51.306 sec (=   0.855 min)  32.7 %
SCF Gradient evaluation         ...       17.598 sec (=   0.293 min)  11.2 %
Geometry relaxation             ...        0.488 sec (=   0.008 min)   0.3 %
Analytical frequency calculation...       83.491 sec (=   1.392 min)  53.3 %
                             ****ORCA TERMINATED NORMALLY****
TOTAL RUN TIME: 0 days 0 hours 2 minutes 38 seconds 127 msec
