
                                 *****************
                                 * O   R   C   A *
                                 *****************

           --- An Ab Initio, DFT and Semiempirical electronic structure package ---

                  #######################################################
                  #                        -***-                        #
                  #          Department of theory and spectroscopy      #
                  #               Directorship: Frank Neese             #
                  #        Max Planck Institute fuer Kohlenforschung    #
                  #                Kaiser Wilhelm Platz 1               #
                  #                 D-45470 Muelheim/Ruhr               #
                  #                      Germany                        #
                  #                                                     #
                  #                  All rights reserved                #
                  #                        -***-                        #
                  #######################################################


                         Program Version 4.2.1 -  RELEASE  -


 With contributions from (in alphabetic order):
   Daniel Aravena         : Magnetic Suceptibility
   Michael Atanasov       : Ab Initio Ligand Field Theory (pilot matlab implementation)
   Alexander A. Auer      : GIAO ZORA, VPT2
   Ute Becker             : Parallelization
   Giovanni Bistoni       : ED, misc. LED, open-shell LED, HFLD
   Martin Brehm           : Molecular dynamics
   Dmytro Bykov           : SCF Hessian
   Vijay G. Chilkuri      : MRCI spin determinant printing, contributions to CSF-ICE
   Dipayan Datta          : RHF DLPNO-CCSD density
   Achintya Kumar Dutta   : EOM-CC, STEOM-CC
   Dmitry Ganyushin       : Spin-Orbit,Spin-Spin,Magnetic field MRCI
   Miquel Garcia          : C-PCM Hessian, Gaussian charge scheme
   Yang Guo               : DLPNO-NEVPT2, CIM, IAO-localization
   Andreas Hansen         : Spin unrestricted coupled pair/coupled cluster methods
   Benjamin Helmich-Paris : CASSCF linear response (MC-RPA)
   Lee Huntington         : MR-EOM, pCC
   Robert Izsak           : Overlap fitted RIJCOSX, COSX-SCS-MP3, EOM
   Christian Kollmar      : KDIIS, OOCD, Brueckner-CCSD(T), CCSD density
   Simone Kossmann        : Meta GGA functionals, TD-DFT gradient, OOMP2, MP2 Hessian
   Martin Krupicka        : AUTO-CI
   Lucas Lang             : DCDCAS
   Dagmar Lenk            : GEPOL surface, SMD
   Dimitrios Liakos       : Extrapolation schemes; Compound Job, initial MDCI parallelization
   Dimitrios Manganas     : Further ROCIS development; embedding schemes
   Dimitrios Pantazis     : SARC Basis sets
   Taras Petrenko         : DFT Hessian,TD-DFT gradient, ASA, ECA, R-Raman, ABS, FL, XAS/XES, NRVS
   Peter Pinski           : DLPNO-MP2, DLPNO-MP2 Gradient
   Christoph Reimann      : Effective Core Potentials
   Marius Retegan         : Local ZFS, SOC
   Christoph Riplinger    : Optimizer, TS searches, QM/MM, DLPNO-CCSD(T), (RO)-DLPNO pert. Triples
   Tobias Risthaus        : Range-separated hybrids, TD-DFT gradient, RPA, STAB
   Michael Roemelt        : Original ROCIS implementation
   Masaaki Saitow         : Open-shell DLPNO-CCSD energy and density
   Barbara Sandhoefer     : DKH picture change effects
   Avijit Sen             : IP-ROCIS
   Kantharuban Sivalingam : CASSCF convergence, NEVPT2, FIC-MRCI
   Bernardo de Souza      : ESD, SOC TD-DFT
   Georgi Stoychev        : AutoAux, RI-MP2 NMR
   Willem Van den Heuvel  : Paramagnetic NMR
   Boris Wezisla          : Elementary symmetry handling
   Frank Wennmohs         : Technical directorship


 We gratefully acknowledge several colleagues who have allowed us to
 interface, adapt or use parts of their codes:
   Stefan Grimme, W. Hujo, H. Kruse,             : VdW corrections, initial TS optimization,
                  C. Bannwarth                     DFT functionals, gCP, sTDA/sTD-DF
   Ed Valeev, F. Pavosevic, A. Kumar             : LibInt (2-el integral package), F12 methods
   Garnet Chan, S. Sharma, J. Yang, R. Olivares  : DMRG
   Ulf Ekstrom                                   : XCFun DFT Library
   Mihaly Kallay                                 : mrcc  (arbitrary order and MRCC methods)
   Andreas Klamt, Michael Diedenhofen            : otool_cosmo (COSMO solvation model)
   Jiri Pittner, Ondrej Demel                    : Mk-CCSD
   Frank Weinhold                                : gennbo (NPA and NBO analysis)
   Christopher J. Cramer and Donald G. Truhlar   : smd solvation model
   Lars Goerigk                                  : TD-DFT with DH, B97 family of functionals
   V. Asgeirsson, H. Jonsson                     : NEB implementation
   FAccTs GmbH                                   : IRC, NEB, NEB-TS, Multilevel, MM, QM/MM, CI optimization
   S Lehtola, MJT Oliveira, MAL Marques          : LibXC Library


 Your calculation uses the libint2 library for the computation of 2-el integrals
 For citations please refer to: http://libint.valeyev.net

 Your ORCA version has been built with support for libXC version: 4.2.3
 For citations please refer to: https://tddft.org/programs/libxc/

 This ORCA versions uses:
   CBLAS   interface :  Fast vector & matrix operations
   LAPACKE interface :  Fast linear algebra routines
   SCALAPACK package :  Parallel linear algebra routines


Your calculation utilizes the geometrical counterpoise correction gCP
Please cite in your paper:
H.Kruse, S. Grimme J.Chem.Phys., 136, (2012), 154101 
   

Your calculation utilizes the atom-pairwise dispersion correction
based on tight binding partial charges (D4)
Cite in your paper:
E.Caldeweyher, C.Bannwarth, S.Grimme, J.Chem.Phys., (2017), 147, 034112.
E.Caldeweyher, S.Ehlert, A.Hansen, H.Neugebauer, S.Grimme, J.Chem.Phys., (2018), in progress.
   

----- Orbital basis set information -----
Your calculation utilizes the basis: def2-SVP
   F. Weigend and R. Ahlrichs, Phys. Chem. Chem. Phys. 7, 3297 (2005).

----- AuxJ basis set information -----
Your calculation utilizes the auxiliary basis: def2/J
   F. Weigend, Phys. Chem. Chem. Phys. 8, 1057 (2006).

================================================================================
                                        WARNINGS
                       Please study these warnings very carefully!
================================================================================


WARNING: Geometry Optimization
  ===> : Switching off AutoStart
         For restart on a previous wavefunction, please use MOREAD

INFO   : the flag for use of LIBINT has been found!

================================================================================
                                       INPUT FILE
================================================================================
NAME = cyclopentadienyl-.inp
|  1> ! revPBE D4 gCP(DFT/SVP) def2-SVP Opt Freq TightOpt TightSCF Grid4 FinalGrid5 LargePrint
|  2> 
|  3> %pal
|  4>  nprocs 12
|  5> end
|  6> 
|  7> *xyz -1 1
|  8> C        2.1710720143      2.2097354586     -0.5115265425                 
|  9> C        3.4135336910      2.4561556138      0.0328163133                 
| 10> C        4.2862638495      1.4576024230     -0.3375268287                 
| 11> C        2.2104329686      0.9522958650     -1.3071182938                 
| 12> C        3.6299239335      0.5405336828     -1.1306063379                 
| 13> H        3.6555717424      3.3074872373      0.6549369368                 
| 14> H        5.3285735281      1.3932655916     -0.0550145936                 
| 15> H        4.0878822522     -0.3424731259     -1.5555915952                 
| 16> H        1.3995284004      0.4554540699     -1.8782855440                 
| 17> H        1.3044237664      2.8423104741     -0.3744120055                 
| 18> *
| 19> 
| 20>                          ****END OF INPUT****
================================================================================

                       *****************************
                       * Geometry Optimization Run *
                       *****************************

Geometry optimization settings:
Update method            Update   .... BFGS
Choice of coordinates    CoordSys .... Z-matrix Internals
Initial Hessian          InHess   .... Almoef's Model

Convergence Tolerances:
Energy Change            TolE     ....  1.0000e-06 Eh
Max. Gradient            TolMAXG  ....  1.0000e-04 Eh/bohr
RMS Gradient             TolRMSG  ....  3.0000e-05 Eh/bohr
Max. Displacement        TolMAXD  ....  1.0000e-03 bohr
RMS Displacement         TolRMSD  ....  6.0000e-04 bohr
Strict Convergence                ....  False
------------------------------------------------------------------------------
                        ORCA OPTIMIZATION COORDINATE SETUP
------------------------------------------------------------------------------

The optimization will be done in new redundant internal coordinates
Making redundant internal coordinates   ...  (new redundants) done
Evaluating the initial hessian          ...  (Almloef) done
Evaluating the coordinates              ...  done
Calculating the B-matrix                .... done
Calculating the G-matrix                .... done
Diagonalizing the G-matrix              .... done
The first mode is                       ....   21
The number of degrees of freedom        ....   24

    -----------------------------------------------------------------
                    Redundant Internal Coordinates


    -----------------------------------------------------------------
         Definition                    Initial Value    Approx d2E/dq
    -----------------------------------------------------------------
      1. B(C   1,C   0)                  1.3787         0.651340   
      2. B(C   2,C   1)                  1.3769         0.655541   
      3. B(C   3,C   0)                  1.4885         0.435079   
      4. B(C   4,C   3)                  1.4885         0.435085   
      5. B(C   4,C   2)                  1.3787         0.651315   
      6. B(H   5,C   1)                  1.0818         0.371055   
      7. B(H   6,C   2)                  1.0818         0.371068   
      8. B(H   7,C   4)                  1.0817         0.371271   
      9. B(H   8,C   3)                  1.1093         0.335395   
     10. B(H   9,C   0)                  1.0817         0.371277   
     11. A(C   3,C   0,H   9)          125.6592         0.334269   
     12. A(C   1,C   0,H   9)          124.5741         0.357724   
     13. A(C   1,C   0,C   3)          109.7668         0.411057   
     14. A(C   0,C   1,H   5)          124.7033         0.357687   
     15. A(C   0,C   1,C   2)          109.5961         0.442369   
     16. A(C   2,C   1,H   5)          125.7006         0.358079   
     17. A(C   4,C   2,H   6)          124.7037         0.357687   
     18. A(C   1,C   2,H   6)          125.7013         0.358081   
     19. A(C   1,C   2,C   4)          109.5950         0.442366   
     20. A(C   4,C   3,H   8)          129.3639         0.328692   
     21. A(C   0,C   3,H   8)          129.3610         0.328691   
     22. A(C   0,C   3,C   4)          101.2751         0.382949   
     23. A(C   3,C   4,H   7)          125.6599         0.334269   
     24. A(C   2,C   4,H   7)          124.5731         0.357720   
     25. A(C   2,C   4,C   3)          109.7670         0.411056   
     26. D(H   5,C   1,C   0,H   9)     -0.0000         0.029547   
     27. D(C   2,C   1,C   0,C   3)     -0.0001         0.029547   
     28. D(C   2,C   1,C   0,H   9)   -179.9999         0.029547   
     29. D(H   5,C   1,C   0,C   3)    179.9997         0.029547   
     30. D(C   4,C   2,C   1,H   5)   -179.9998         0.029957   
     31. D(H   6,C   2,C   1,C   0)    179.9998         0.029957   
     32. D(C   4,C   2,C   1,C   0)     -0.0000         0.029957   
     33. D(H   6,C   2,C   1,H   5)     -0.0000         0.029957   
     34. D(H   8,C   3,C   0,H   9)      0.0014         0.012924   
     35. D(H   8,C   3,C   0,C   1)   -179.9983         0.012924   
     36. D(C   4,C   3,C   0,H   9)    179.9999         0.012924   
     37. D(C   4,C   3,C   0,C   1)      0.0001         0.012924   
     38. D(H   7,C   4,C   2,C   1)    179.9999         0.029545   
     39. D(C   3,C   4,C   2,H   6)   -179.9997         0.029545   
     40. D(C   3,C   4,C   2,C   1)      0.0001         0.029545   
     41. D(H   7,C   4,C   3,H   8)     -0.0014         0.012924   
     42. D(H   7,C   4,C   3,C   0)   -179.9999         0.012924   
     43. D(C   2,C   4,C   3,H   8)    179.9983         0.012924   
     44. D(C   2,C   4,C   3,C   0)     -0.0001         0.012924   
     45. D(H   7,C   4,C   2,H   6)      0.0000         0.029545   
    -----------------------------------------------------------------

Number of atoms                         .... 10
Number of degrees of freedom            .... 45

         *************************************************************
         *                GEOMETRY OPTIMIZATION CYCLE   1            *
         *************************************************************
---------------------------------
CARTESIAN COORDINATES (ANGSTROEM)
---------------------------------
  C      2.171072    2.209735   -0.511527
  C      3.413534    2.456156    0.032816
  C      4.286264    1.457602   -0.337527
  C      2.210433    0.952296   -1.307118
  C      3.629924    0.540534   -1.130606
  H      3.655572    3.307487    0.654937
  H      5.328574    1.393266   -0.055015
  H      4.087882   -0.342473   -1.555592
  H      1.399528    0.455454   -1.878286
  H      1.304424    2.842310   -0.374412

----------------------------
CARTESIAN COORDINATES (A.U.)
----------------------------
  NO LB      ZA    FRAG     MASS         X           Y           Z
   0 C     6.0000    0    12.011    4.102732    4.175795   -0.966645
   1 C     6.0000    0    12.011    6.450644    4.641461    0.062014
   2 C     6.0000    0    12.011    8.099865    2.754469   -0.637833
   3 C     6.0000    0    12.011    4.177113    1.799578   -2.470096
   4 C     6.0000    0    12.011    6.859562    1.021461   -2.136536
   5 H     1.0000    0     1.008    6.908029    6.250245    1.237651
   6 H     1.0000    0     1.008   10.069545    2.632890   -0.103963
   7 H     1.0000    0     1.008    7.724978   -0.647180   -2.939642
   8 H     1.0000    0     1.008    2.644725    0.860683   -3.549445
   9 H     1.0000    0     1.008    2.465004    5.371188   -0.707536

--------------------------------
INTERNAL COORDINATES (ANGSTROEM)
--------------------------------
 C      0   0   0     0.000000000000     0.00000000     0.00000000
 C      1   0   0     1.378674383463     0.00000000     0.00000000
 C      2   1   0     1.376924270699   109.59611210     0.00000000
 C      1   2   3     1.488512630451   109.76675205     0.00000000
 C      3   2   1     1.378684977614   109.59497293     0.00000000
 H      2   1   3     1.081841957811   124.70328691   179.99983990
 H      3   2   1     1.081832638147   125.70134700   179.99983732
 H      5   3   2     1.081683555759   124.57306563   179.99987177
 H      4   1   2     1.109346661683   129.36098721   180.00165630
 H      1   2   3     1.081679588455   124.57407225   180.00012760

---------------------------
INTERNAL COORDINATES (A.U.)
---------------------------
 C      0   0   0     0.000000000000     0.00000000     0.00000000
 C      1   0   0     2.605317012598     0.00000000     0.00000000
 C      2   1   0     2.602009778770   109.59611210     0.00000000
 C      1   2   3     2.812881218436   109.76675205     0.00000000
 C      3   2   1     2.605337032643   109.59497293     0.00000000
 H      2   1   3     2.044385020448   124.70328691   179.99983990
 H      3   2   1     2.044367408834   125.70134700   179.99983732
 H      5   3   2     2.044085683951   124.57306563   179.99987177
 H      4   1   2     2.096361378160   129.36098721   180.00165630
 H      1   2   3     2.044078186832   124.57407225   180.00012760

---------------------
BASIS SET INFORMATION
---------------------
There are 2 groups of distinct atoms

 Group   1 Type C   : 7s4p1d contracted to 3s2p1d pattern {511/31/1}
 Group   2 Type H   : 4s1p contracted to 2s1p pattern {31/1}

Atom   0C    basis set group =>   1
Atom   1C    basis set group =>   1
Atom   2C    basis set group =>   1
Atom   3C    basis set group =>   1
Atom   4C    basis set group =>   1
Atom   5H    basis set group =>   2
Atom   6H    basis set group =>   2
Atom   7H    basis set group =>   2
Atom   8H    basis set group =>   2
Atom   9H    basis set group =>   2

-------------------------
BASIS SET IN INPUT FORMAT
-------------------------

 # Basis set for element : H 
 NewGTO H 
 S 3 
   1      13.0107010000      0.0334854848
   2       1.9622572000      0.2347218709
   3       0.4445379600      0.8137702853
 S 1 
   1       0.1219496200      1.0000000000
 P 1 
   1       0.8000000000      1.0000000000
  end;

 # Basis set for element : C 
 NewGTO C 
 S 5 
   1    1238.4016938000      0.0055173650
   2     186.2900499200      0.0410888285
   3      42.2511763460      0.1822538213
   4      11.6765579320      0.4682845944
   5       3.5930506482      0.4457581734
 S 1 
   1       0.4024514736      1.0000000000
 S 1 
   1       0.1309018267      1.0000000000
 P 3 
   1       9.4680970621      0.0568883320
   2       2.0103545142      0.3129405934
   3       0.5477100471      0.7606501651
 P 1 
   1       0.1526861379      1.0000000000
 D 1 
   1       0.8000000000      1.0000000000
  end;

---------------------------------
AUXILIARY/J BASIS SET INFORMATION
---------------------------------
There are 2 groups of distinct atoms

 Group   1 Type C   : 12s5p4d2f1g contracted to 6s4p3d1f1g pattern {711111/2111/211/2/1}
 Group   2 Type H   : 5s2p1d contracted to 3s1p1d pattern {311/2/1}

Atom   0C    basis set group =>   1
Atom   1C    basis set group =>   1
Atom   2C    basis set group =>   1
Atom   3C    basis set group =>   1
Atom   4C    basis set group =>   1
Atom   5H    basis set group =>   2
Atom   6H    basis set group =>   2
Atom   7H    basis set group =>   2
Atom   8H    basis set group =>   2
Atom   9H    basis set group =>   2

-------------------------------------
AUXILIARY/J BASIS SET IN INPUT FORMAT
-------------------------------------

 # Auxiliary/J basis set for element : H 
 NewAuxJGTO H 
 S 3 
   1      15.6752927000      0.1007184237
   2       3.6063578000      0.3404257499
   3       1.2080016000      0.6491996172
 S 1 
   1       0.4726794000      1.0000000000
 S 1 
   1       0.2018100000      1.0000000000
 P 2 
   1       2.0281365000      0.5596620919
   2       0.5358730000      0.5596620919
 D 1 
   1       2.2165124000      1.0000000000
  end;

 # Auxiliary/J basis set for element : C 
 NewAuxJGTO C 
 S 7 
   1    1861.0916331000      0.0134602335
   2     642.9939764000      0.0299160374
   3     235.1105725000      0.1008649584
   4      90.7028894000      0.2370970548
   5      36.7794552000      0.3924037254
   6      15.6046273000      0.3195862154
   7       6.8907294000      0.0530104441
 S 1 
   1       3.1478850000     -1.0000000000
 S 1 
   1       1.4777287000      1.0000000000
 S 1 
   1       0.7076466000      1.0000000000
 S 1 
   1       0.3430122000      1.0000000000
 S 1 
   1       0.1669453000      1.0000000000
 P 2 
   1      13.5472892000     -0.6769313712
   2       5.4669419000     -0.3779500978
 P 1 
   1       2.1751721000      1.0000000000
 P 1 
   1       0.8582194000      1.0000000000
 P 1 
   1       0.3376720000      1.0000000000
 D 2 
   1       5.9287253000     -0.3533329857
   2       1.9809209000     -0.7456525731
 D 1 
   1       0.8055417000     -1.0000000000
 D 1 
   1       0.3531244000     -1.0000000000
 F 2 
   1       1.6755626000      0.6311076882
   2       0.5997536000      0.4968166032
 G 1 
   1       1.0024600000     -1.0000000000
  end;



           ************************************************************
           *        Program running with 12 parallel MPI-processes    *
           *              working on a common directory               *
           ************************************************************
------------------------------------------------------------------------------
                           ORCA GTO INTEGRAL CALCULATION
                           -- RI-GTO INTEGRALS CHOSEN --
------------------------------------------------------------------------------

                         BASIS SET STATISTICS AND STARTUP INFO

Gaussian basis set:
 # of primitive gaussian shells          ...   85
 # of primitive gaussian functions       ...  155
 # of contracted shells                  ...   45
 # of contracted basis functions         ...   95
 Highest angular momentum                ...    2
 Maximum contraction depth               ...    5
Auxiliary gaussian basis set:
 # of primitive gaussian shells          ...  160
 # of primitive gaussian functions       ...  430
 # of contracted shells                  ...  100
 # of contracted aux-basis functions     ...  300
 Highest angular momentum                ...    4
 Maximum contraction depth               ...    7
Ratio of auxiliary to basis functions    ...  3.16
Integral package used                  ... LIBINT
 One Electron integrals                  ... done
 Ordering auxiliary basis shells         ... done
 Integral threshhold             Thresh  ...  2.500e-11
 Primitive cut-off               TCut    ...  2.500e-12
 Pre-screening matrix                    ... done
 Shell pair data                         ... 
 Ordering of the shell pairs             ... done (   0.000 sec) 1030 of 1035 pairs
 Determination of significant pairs      ... done (   0.000 sec)
 Creation of shell pair data             ... done (   0.000 sec)
 Storage of shell pair data              ... done (   0.013 sec)
 Shell pair data done in (   0.014 sec)
 Computing two index integrals           ... done
 Cholesky decomposition of the V-matrix  ... done


Timings:
 Total evaluation time                   ...   0.224 sec (  0.004 min)
 One electron matrix time                ...   0.023 sec (  0.000 min) = 10.1%
 Schwartz matrix evaluation time         ...   0.153 sec (  0.003 min) = 68.3%
 Two index repulsion integral time       ...   0.005 sec (  0.000 min) =  2.4%
 Cholesky decomposition of V             ...   0.009 sec (  0.000 min) =  4.0%
 Three index repulsion integral time     ...   0.000 sec (  0.000 min) =  0.0%



           ************************************************************
           *        Program running with 12 parallel MPI-processes    *
           *              working on a common directory               *
           ************************************************************
-------------------------------------------------------------------------------
                                 ORCA SCF
-------------------------------------------------------------------------------

------------
SCF SETTINGS
------------
Hamiltonian:
 Density Functional     Method          .... DFT(GTOs)
 Exchange Functional    Exchange        .... PBE
   PBE kappa parameter   XKappa         ....  1.245000
   PBE mue parameter    XMuePBE         ....  0.219520
 Correlation Functional Correlation     .... PBE
   PBE beta parameter  CBetaPBE         ....  0.066725
 LDA part of GGA corr.  LDAOpt          .... PW91-LDA
 Gradients option       PostSCFGGA      .... off
   Density functional embedding theory  .... OFF
   NL short-range parameter             ....  3.700000
 RI-approximation to the Coulomb term is turned on
   Number of auxiliary basis functions  .... 300


General Settings:
 Integral files         IntName         .... cyclopentadienyl-
 Hartree-Fock type      HFTyp           .... RHF
 Total Charge           Charge          ....   -1
 Multiplicity           Mult            ....    1
 Number of Electrons    NEL             ....   36
 Basis Dimension        Dim             ....   95
 Nuclear Repulsion      ENuc            ....    148.3546748223 Eh

Convergence Acceleration:
 DIIS                   CNVDIIS         .... on
   Start iteration      DIISMaxIt       ....    12
   Startup error        DIISStart       ....  0.200000
   # of expansion vecs  DIISMaxEq       ....     5
   Bias factor          DIISBfac        ....   1.050
   Max. coefficient     DIISMaxC        ....  10.000
 Newton-Raphson         CNVNR           .... off
 SOSCF                  CNVSOSCF        .... on
   Start iteration      SOSCFMaxIt      ....   150
   Startup grad/error   SOSCFStart      ....  0.003300
 Level Shifting         CNVShift        .... on
   Level shift para.    LevelShift      ....    0.2500
   Turn off err/grad.   ShiftErr        ....    0.0010
 Zerner damping         CNVZerner       .... off
 Static damping         CNVDamp         .... on
   Fraction old density DampFac         ....    0.7000
   Max. Damping (<1)    DampMax         ....    0.9800
   Min. Damping (>=0)   DampMin         ....    0.0000
   Turn off err/grad.   DampErr         ....    0.1000
 Fernandez-Rico         CNVRico         .... off

SCF Procedure:
 Maximum # iterations   MaxIter         ....   125
 SCF integral mode      SCFMode         .... Direct
   Integral package                     .... LIBINT
 Reset frequency        DirectResetFreq ....    20
 Integral Threshold     Thresh          ....  2.500e-11 Eh
 Primitive CutOff       TCut            ....  2.500e-12 Eh

Convergence Tolerance:
 Convergence Check Mode ConvCheckMode   .... Total+1el-Energy
 Convergence forced     ConvForced      .... 0
 Energy Change          TolE            ....  1.000e-08 Eh
 1-El. energy change                    ....  1.000e-05 Eh
 Orbital Gradient       TolG            ....  1.000e-05
 Orbital Rotation angle TolX            ....  1.000e-05
 DIIS Error             TolErr          ....  5.000e-07


Diagonalization of the overlap matrix:
Smallest eigenvalue                        ... 9.006e-04
Time for diagonalization                   ...    0.002 sec
Threshold for overlap eigenvalues          ... 1.000e-08
Number of eigenvalues below threshold      ... 0
Time for construction of square roots      ...    0.007 sec
Total time needed                          ...    0.010 sec

-------------------
DFT GRID GENERATION
-------------------

General Integration Accuracy     IntAcc      ...  4.670
Radial Grid Type                 RadialGrid  ... Gauss-Chebyshev
Angular Grid (max. acc.)         AngularGrid ... Lebedev-302
Angular grid pruning method      GridPruning ... 3 (G Style)
Weight generation scheme         WeightScheme... Becke
Basis function cutoff            BFCut       ...    1.0000e-11
Integration weight cutoff        WCut        ...    1.0000e-14
Grids for H and He will be reduced by one unit

# of grid points (after initial pruning)     ...  48030 (   0.0 sec)
# of grid points (after weights+screening)   ...  45130 (   0.0 sec)
nearest neighbour list constructed           ...    0.0 sec
Grid point re-assignment to atoms done       ...    0.0 sec
Grid point division into batches done        ...    0.2 sec
Reduced shell lists constructed in    0.2 sec

Total number of grid points                  ...    45130
Total number of batches                      ...      712
Average number of points per batch           ...       63
Average number of grid points per atom       ...     4513
Average number of shells per batch           ...    40.52 (90.05%)
Average number of basis functions per batch  ...    87.28 (91.87%)
Average number of large shells per batch     ...    35.90 (88.59%)
Average number of large basis fcns per batch ...    78.36 (89.78%)
Maximum spatial batch extension              ...   6.40, 10.53, 14.28 au
Average spatial batch extension              ...   0.11,  0.13,  0.14 au

Time for grid setup =    0.428 sec

------------------------------
INITIAL GUESS: MODEL POTENTIAL
------------------------------
Loading Hartree-Fock densities                     ... done
Calculating cut-offs                               ... done
Setting up the integral package                    ... done
Initializing the effective Hamiltonian             ... done
Starting the Coulomb interaction                   ... done (   0.0 sec)
Reading the grid                                   ... done
Mapping shells                                     ... done
Starting the XC term evaluation                    ... done (   0.0 sec)
  promolecular density results
     # of electrons  =     34.997586179
     EX              =    -27.181479997
     EC              =     -1.131980256
     EX+EC           =    -28.313460254
Transforming the Hamiltonian                       ... done (   0.0 sec)
Diagonalizing the Hamiltonian                      ... done (   0.0 sec)
Back transforming the eigenvectors                 ... done (   0.0 sec)
Now organizing SCF variables                       ... done
                      ------------------
                      INITIAL GUESS DONE (   0.8 sec)
                      ------------------
----------------------
INITIAL GUESS ORBITALS
----------------------
                      0         1         2         3         4         5   
                 -10.08763 -10.08737 -10.07490 -10.07489 -10.05915  -0.93319
                   2.00000   2.00000   2.00000   2.00000   2.00000   2.00000
                  --------  --------  --------  --------  --------  --------
  0C   1s        -0.007650  0.007375 -0.763266  0.627426  0.002157 -0.121981
  0C   2s         0.002642 -0.002510 -0.037497  0.030388 -0.002784  0.243595
  0C   3s        -0.008013  0.011109  0.026092 -0.023399  0.013047  0.037506
  0C   1pz        0.000716 -0.000922 -0.000442  0.000267  0.001076  0.004448
  0C   1px        0.001527 -0.001830 -0.000354  0.000235  0.000100  0.093686
  0C   1py        0.000376 -0.000550 -0.000517  0.000302  0.001626 -0.038387
  0C   2pz        0.000818  0.001417 -0.001035  0.000570 -0.000452 -0.001889
  0C   2px       -0.001153  0.000594  0.003322 -0.001171  0.000270  0.021096
  0C   2py        0.001831  0.001918 -0.003218  0.001454 -0.000835 -0.013143
  0C   1dz2      -0.000422  0.000612  0.001154 -0.001067  0.000315 -0.007492
  0C   1dxz       0.000704 -0.000698 -0.000456  0.000273  0.000130  0.003878
  0C   1dyz       0.000325 -0.000255 -0.000938  0.000757 -0.001546  0.005758
  0C   1dx2y2     0.000738 -0.000998 -0.000798  0.000714  0.001099  0.006203
  0C   1dxy       0.000179  0.000093  0.001003 -0.001091  0.000396 -0.005612
  1C   1s        -0.699904  0.697242  0.007205 -0.006232 -0.000255 -0.151182
  1C   2s        -0.031633  0.037540  0.003592 -0.003094 -0.000360  0.301712
  1C   3s         0.016180 -0.035338 -0.012881  0.006657 -0.002901  0.037718
  1C   1pz       -0.000244 -0.000662 -0.000804  0.000611  0.000024 -0.066193
  1C   1px        0.001356  0.001227 -0.001786  0.001789 -0.000093 -0.018867
  1C   1py       -0.001036 -0.001624 -0.000388  0.000086  0.000082 -0.093912
  1C   2pz       -0.001961  0.002181 -0.000527 -0.001073 -0.000607 -0.010274
  1C   2px       -0.000938  0.001464 -0.002871 -0.001935  0.001276 -0.003032
  1C   2py       -0.002599  0.002687  0.000568 -0.000734 -0.001562 -0.014524
  1C   1dz2       0.000181 -0.001226 -0.000446  0.000345  0.000006 -0.005727
  1C   1dxz      -0.000881  0.000493  0.000910 -0.000768  0.000046  0.004031
  1C   1dyz      -0.001014  0.002531  0.000706 -0.000292  0.000191  0.011706
  1C   1dx2y2    -0.000027 -0.000469  0.000601 -0.000736 -0.000135 -0.000703
  1C   1dxy      -0.000759 -0.000893  0.000396 -0.000344  0.000076 -0.002425
  2C   1s        -0.698023 -0.699125 -0.005861 -0.007506 -0.000255 -0.151178
  2C   2s        -0.031532 -0.037625 -0.002925 -0.003731 -0.000360  0.301706
  2C   3s         0.016085  0.035382  0.011349  0.009023 -0.002901  0.037711
  2C   1pz        0.000659 -0.000484  0.000911  0.001300 -0.000043 -0.026412
  2C   1px       -0.000773  0.001475  0.000840  0.000817  0.000065 -0.112610
  2C   1py        0.001400 -0.001467  0.001012  0.001629 -0.000099  0.013351
  2C   2pz       -0.000980 -0.001319  0.001870 -0.000947  0.000525 -0.004153
  2C   2px       -0.003233 -0.003510  0.000492 -0.001351 -0.001392 -0.017441
  2C   2py        0.000038 -0.000356  0.002673 -0.000821  0.001491  0.001970
  2C   1dz2       0.000420  0.001727  0.000302  0.000150 -0.000097 -0.007569
  2C   1dxz      -0.001011 -0.000766 -0.000707 -0.000781  0.000102  0.005028
  2C   1dyz      -0.000507 -0.001504 -0.000779 -0.000988 -0.000021  0.007911
  2C   1dx2y2    -0.000826 -0.001175 -0.000220  0.000064  0.000204  0.005353
  2C   1dxy      -0.000512  0.001405 -0.000393 -0.000696 -0.000030 -0.004317
  3C   1s        -0.000302 -0.000000  0.000159 -0.001633  0.988253 -0.093431
  3C   2s         0.000179  0.000000  0.000371 -0.003799  0.047135  0.186940
  3C   3s         0.004619  0.000006 -0.001520  0.015557 -0.034510  0.024627
  3C   1pz       -0.000028  0.000074  0.000678 -0.000711 -0.000109  0.043021
  3C   1px       -0.000039 -0.000175 -0.001314 -0.001232 -0.000155  0.061078
  3C   1py       -0.000024  0.000200  0.001690 -0.000511 -0.000095  0.037427
  3C   2pz       -0.000589 -0.000352 -0.000786  0.000080 -0.002984  0.009852
  3C   2px       -0.000838  0.000826  0.001794  0.000398 -0.004236  0.013990
  3C   2py       -0.000511 -0.000947 -0.002091 -0.000068 -0.002596  0.008569
  3C   1dz2      -0.000005  0.000030  0.000439  0.000882 -0.000731 -0.003711
  3C   1dxz      -0.000247 -0.000016 -0.000231 -0.000546  0.001682  0.006775
  3C   1dyz      -0.000100  0.000061  0.001190 -0.001101  0.001584  0.007287
  3C   1dx2y2    -0.000107 -0.000097 -0.001684 -0.000437  0.000771  0.003145
  3C   1dxy      -0.000269  0.000030  0.000488  0.000525  0.000889  0.002634
  4C   1s        -0.007628 -0.007394  0.627426  0.763267  0.002158 -0.121976
  4C   2s         0.002635  0.002517  0.030908  0.037070 -0.002784  0.243587
  4C   3s        -0.007984 -0.011130 -0.021070 -0.028006  0.013047  0.037496
  4C   1pz        0.000983  0.001201  0.000254  0.000245  0.000320  0.050720
  4C   1px        0.000887  0.001182  0.000602  0.000542  0.001882 -0.015359
  4C   1py        0.001101  0.001297  0.000105  0.000119 -0.000412  0.086379
  4C   2pz       -0.000406 -0.000667 -0.001382 -0.000760  0.000031  0.010699
  4C   2px        0.001742 -0.002358  0.002356  0.001790 -0.000868 -0.008571
  4C   2py       -0.001475  0.000102 -0.003290 -0.002050  0.000468  0.020801
  4C   1dz2      -0.000148 -0.000170 -0.000643 -0.000849  0.001022 -0.004744
  4C   1dxz       0.000555  0.000460  0.000242  0.000128 -0.000252  0.002392
  4C   1dyz       0.000885  0.001167  0.001356  0.001793 -0.000091  0.011413
  4C   1dx2y2    -0.000158 -0.000454 -0.000285 -0.000531 -0.001223 -0.002823
  4C   1dxy       0.000458  0.000361 -0.000482 -0.000831  0.001121 -0.002791
  5H   1s         0.003906 -0.003846  0.000205  0.000360  0.000361  0.039928
  5H   2s        -0.003275  0.005918  0.001933 -0.000511  0.000777  0.008676
  5H   1pz       -0.001042  0.001445  0.000328 -0.000162  0.000044 -0.004183
  5H   1px       -0.000625  0.000319  0.000537 -0.000153 -0.000093 -0.001463
  5H   1py       -0.001320  0.002095  0.000251 -0.000179  0.000113 -0.005804
  6H   1s         0.003895  0.003856 -0.000271  0.000313  0.000361  0.039926
  6H   2s        -0.003259 -0.005927 -0.001798 -0.000876  0.000777  0.008672
  6H   1pz       -0.000588 -0.000529 -0.000335 -0.000190 -0.000039 -0.001813
  6H   1px       -0.001685 -0.002486 -0.000391 -0.000331  0.000101 -0.007050
  6H   1py       -0.000100  0.000379 -0.000333 -0.000135 -0.000109  0.000588
  7H   1s        -0.000344  0.000312 -0.003764 -0.004064 -0.000277  0.032089
  7H   2s         0.000453  0.001733  0.003569  0.005330 -0.001573  0.010987
  7H   1pz       -0.000248 -0.000216 -0.000742 -0.000991  0.000094  0.002367
  7H   1px       -0.000170  0.000094  0.000806  0.000983 -0.000228 -0.001519
  7H   1py       -0.000304 -0.000381 -0.001545 -0.002018  0.000256  0.004419
  8H   1s        -0.000483 -0.000001  0.000041 -0.000418 -0.005428  0.020524
  8H   2s        -0.000985 -0.000001  0.000237 -0.002424  0.005707  0.008666
  8H   1pz        0.000047  0.000039 -0.000008  0.000201 -0.001668  0.001457
  8H   1px        0.000067 -0.000092 -0.000056  0.000282 -0.002368  0.002068
  8H   1py        0.000041  0.000106  0.000015  0.000177 -0.001451  0.001268
  9H   1s        -0.000343 -0.000313  0.004480 -0.003259 -0.000277  0.032092
  9H   2s         0.000457 -0.001732 -0.004533  0.004539 -0.001573  0.010993
  9H   1pz       -0.000152  0.000003 -0.000291  0.000222 -0.000097 -0.000217
  9H   1px       -0.000399  0.000404  0.001874 -0.001669  0.000222  0.004571
  9H   1py       -0.000043 -0.000190 -0.001360  0.001153 -0.000259 -0.002549
                      6         7         8         9        10        11   
                  -0.76752  -0.75177  -0.61627  -0.59330  -0.59054  -0.47623
                   2.00000   2.00000   2.00000   2.00000   2.00000   2.00000
                  --------  --------  --------  --------  --------  --------
  0C   1s         0.167487 -0.077481  0.101380 -0.091749  0.017924 -0.029435
  0C   2s        -0.352689  0.165793 -0.222703  0.204670 -0.037385  0.086617
  0C   3s        -0.072252  0.027971 -0.103776  0.133996 -0.015795  0.101245
  0C   1pz       -0.043121 -0.075308 -0.105236 -0.091268 -0.005240  0.040800
  0C   1px       -0.064089 -0.054708  0.003030 -0.170613  0.176978  0.291373
  0C   1py       -0.036125 -0.090764 -0.165274 -0.059551 -0.093752 -0.077420
  0C   2pz       -0.006755 -0.026563 -0.020693 -0.031010 -0.010773  0.010234
  0C   2px       -0.018519 -0.014578 -0.022986  0.000021  0.066728  0.084996
  0C   2py       -0.001560 -0.034298 -0.021094 -0.048279 -0.049043 -0.025183
  0C   1dz2       0.003122 -0.000403  0.001127 -0.001400 -0.004852  0.000193
  0C   1dxz      -0.007649 -0.004178 -0.003138 -0.003864 -0.002941  0.004727
  0C   1dyz      -0.005413  0.007792  0.000112  0.002502 -0.003944 -0.002752
  0C   1dx2y2    -0.004831 -0.009642 -0.003828 -0.003756  0.006257  0.005962
  0C   1dxy      -0.004123 -0.003970 -0.001653 -0.005568 -0.010002  0.004780
  1C   1s         0.118622  0.132048 -0.028106  0.114725  0.033583  0.000724
  1C   2s        -0.250715 -0.280761  0.062423 -0.256744 -0.069544  0.014536
  1C   3s        -0.024970 -0.045288  0.024422 -0.188167 -0.065627 -0.066356
  1C   1pz        0.019794 -0.007278  0.014187 -0.060726 -0.150863 -0.166857
  1C   1px        0.136426 -0.106501  0.240749  0.035670 -0.090015 -0.195207
  1C   1py       -0.035169  0.040179 -0.094350 -0.111777 -0.191298 -0.165333
  1C   2pz        0.002197 -0.001194 -0.006346  0.028314 -0.038798 -0.008571
  1C   2px        0.041820 -0.030933  0.053058  0.017085 -0.024314  0.006165
  1C   2py       -0.016805  0.013101 -0.035540  0.035808 -0.048637 -0.016333
  1C   1dz2       0.002563  0.004915 -0.000101 -0.000945  0.003192 -0.001477
  1C   1dxz      -0.009360  0.004260 -0.004740 -0.002005  0.001270  0.007396
  1C   1dyz      -0.000004 -0.002465  0.003350 -0.003629  0.007254 -0.007089
  1C   1dx2y2    -0.010268  0.000261 -0.006588  0.002537 -0.008671  0.013642
  1C   1dxy      -0.006050  0.010747 -0.004605 -0.003711  0.006399  0.004769
  2C   1s        -0.118647  0.132030 -0.028113 -0.114760  0.033453 -0.000810
  2C   2s         0.250770 -0.280722  0.062440  0.256814 -0.069250 -0.014389
  2C   3s         0.024990 -0.045281  0.024451  0.188233 -0.065424  0.066930
  2C   1pz       -0.077154 -0.058222  0.131024 -0.003741 -0.085105  0.143705
  2C   1px       -0.001238  0.013526 -0.034577  0.116727 -0.244857  0.248239
  2C   1py       -0.119497 -0.097170  0.220674 -0.062276 -0.014051  0.103622
  2C   2pz       -0.022691 -0.016684  0.026526 -0.016049 -0.022516 -0.001575
  2C   2px        0.006487  0.005563 -0.024431 -0.045865 -0.062760  0.016664
  2C   2py       -0.038458 -0.028662  0.053107 -0.002799 -0.004692 -0.010513
  2C   1dz2       0.001480  0.004029 -0.003125 -0.001293 -0.002850 -0.005419
  2C   1dxz       0.007173  0.004741 -0.003105  0.003213  0.004541 -0.003608
  2C   1dyz       0.008331 -0.004290 -0.002876 -0.000979 -0.005185 -0.007134
  2C   1dx2y2    -0.003018  0.003175  0.003348  0.004815  0.011183  0.009086
  2C   1dxy       0.010199  0.009839 -0.007709  0.001411  0.000200 -0.011789
  3C   1s         0.000012 -0.186745 -0.136141 -0.000032  0.064301 -0.000185
  3C   2s        -0.000024  0.397948  0.302640  0.000068 -0.139566  0.000394
  3C   3s        -0.000002  0.081388  0.134583  0.000076 -0.123675  0.000990
  3C   1pz       -0.027252  0.027623 -0.028249  0.058398  0.094241  0.002304
  3C   1px        0.064212  0.039226 -0.040114 -0.137809  0.133671 -0.006604
  3C   1py       -0.073474  0.024029 -0.024568  0.157550  0.082041  0.006773
  3C   2pz       -0.008504  0.007737  0.016023  0.014146  0.019981 -0.010206
  3C   2px        0.020031  0.010986  0.022748 -0.033373  0.028339  0.024591
  3C   2py       -0.022921  0.006729  0.013940  0.038159  0.017394 -0.027782
  3C   1dz2      -0.002805 -0.005152 -0.001157  0.002228  0.001939  0.002096
  3C   1dxz       0.001517  0.002475  0.004101 -0.001209  0.005975 -0.001093
  3C   1dyz      -0.005776  0.007160  0.003121  0.004591  0.000256  0.004300
  3C   1dx2y2     0.009217  0.001352  0.001845 -0.007328  0.002491 -0.006841
  3C   1dxy      -0.002879 -0.003713  0.002935  0.002284  0.008743  0.002191
  4C   1s        -0.167478 -0.077508  0.101386  0.091724  0.018025  0.029708
  4C   2s         0.352674  0.165849 -0.222716 -0.204618 -0.037608 -0.087188
  4C   3s         0.072250  0.027976 -0.103799 -0.133975 -0.015948 -0.102856
  4C   1pz        0.044646 -0.047649 -0.024494  0.112899  0.092560 -0.163281
  4C   1px        0.060524 -0.119857 -0.187213  0.119465 -0.053048  0.000584
  4C   1py        0.040226 -0.016203  0.052417  0.117959  0.169733 -0.254452
  4C   2pz        0.011483 -0.014313 -0.017312  0.007649  0.032674 -0.047443
  4C   2px        0.007386 -0.043454 -0.030958  0.055004 -0.035571  0.003584
  4C   2py        0.014301 -0.001261 -0.011972 -0.014698  0.068066 -0.075588
  4C   1dz2      -0.002229 -0.005639 -0.000477  0.002834  0.000009 -0.002793
  4C   1dxz       0.007166 -0.001344 -0.002270  0.003095 -0.005564 -0.003242
  4C   1dyz       0.007251 -0.002989 -0.003190  0.000445  0.006055 -0.002645
  4C   1dx2y2     0.001897  0.007563  0.001441 -0.000947 -0.009701  0.002683
  4C   1dxy       0.005040 -0.009344 -0.003298  0.007046 -0.005007 -0.007374
  5H   1s        -0.072718 -0.089082  0.020867 -0.182943 -0.179554 -0.222931
  5H   2s        -0.008041 -0.009693  0.010673 -0.045597 -0.013653 -0.074134
  5H   1pz        0.005811  0.006413 -0.000581  0.008273  0.008110  0.005933
  5H   1px        0.004211  0.000926  0.004452  0.004655  0.002623 -0.001632
  5H   1py        0.007008  0.009535 -0.003058  0.010626  0.011356  0.010024
  6H   1s         0.072733 -0.089073  0.020876  0.183146 -0.179350  0.223721
  6H   2s         0.008034 -0.009696  0.010687  0.045615 -0.013606  0.074423
  6H   1pz       -0.003672  0.002080  0.002213 -0.004521  0.003396 -0.000646
  6H   1px       -0.009253  0.011133 -0.002136 -0.013519  0.013705 -0.010949
  6H   1py       -0.001240 -0.002146  0.004478 -0.000500 -0.001342  0.004290
  7H   1s         0.102253  0.046580 -0.156335 -0.146889 -0.128388  0.181429
  7H   2s         0.012652  0.009915 -0.028101 -0.036767  0.001886  0.056178
  7H   1pz        0.005982  0.001369 -0.006695 -0.002771 -0.003929  0.002098
  7H   1px       -0.004419 -0.003660  0.003122  0.007796  0.005230 -0.006315
  7H   1py        0.011449  0.003901 -0.011931 -0.008083 -0.008645  0.006319
  8H   1s        -0.000007  0.101779  0.154287  0.000086 -0.160246  0.000747
  8H   2s        -0.000003  0.014151  0.037249  0.000004 -0.011093  0.000271
  8H   1pz       -0.000278  0.006329  0.006705  0.000984 -0.006864  0.000410
  8H   1px        0.000652  0.008986  0.009519 -0.002305 -0.009747 -0.000890
  8H   1py       -0.000748  0.005506  0.005833  0.002646 -0.005969  0.001069
  9H   1s        -0.102261  0.046564 -0.156326  0.147044 -0.128228 -0.183015
  9H   2s        -0.012660  0.009913 -0.028100  0.036762  0.001932 -0.056713
  9H   1pz        0.000857 -0.001599 -0.000008 -0.003444  0.001792  0.002850
  9H   1px       -0.011698  0.003331 -0.012637  0.006853 -0.008252 -0.005329
  9H   1py        0.006991 -0.004100  0.006100 -0.008676  0.006780  0.007014
                     12        13        14        15        16        17   
                  -0.47573  -0.47129  -0.44443  -0.44174  -0.30289  -0.29141
                   2.00000   2.00000   2.00000   2.00000   2.00000   2.00000
                  --------  --------  --------  --------  --------  --------
  0C   1s        -0.035780  0.005566 -0.004489 -0.000002 -0.000000 -0.000001
  0C   2s         0.075452 -0.021178  0.024316  0.000006 -0.000001  0.000005
  0C   3s         0.213278 -0.019794 -0.091121 -0.000042 -0.000008 -0.000028
  0C   1pz       -0.088785  0.090126 -0.174439 -0.208834  0.325476 -0.132336
  0C   1px       -0.240163 -0.036515  0.040730  0.064887 -0.101129  0.041118
  0C   1py       -0.022055  0.157955 -0.291290  0.134103 -0.209093  0.085014
  0C   2pz       -0.046967 -0.001594 -0.061108 -0.092223  0.192879 -0.089404
  0C   2px        0.001004 -0.032160 -0.049835  0.028626 -0.059921  0.027756
  0C   2py       -0.073595  0.013077 -0.071049  0.059239 -0.123913  0.057448
  0C   1dz2      -0.003758 -0.002034  0.003848 -0.001197  0.007985  0.019373
  0C   1dxz      -0.008483  0.004726  0.003576 -0.013068  0.008295  0.004250
  0C   1dyz      -0.001879 -0.006631  0.005216  0.005792 -0.000490  0.006488
  0C   1dx2y2    -0.001150  0.011703 -0.005769  0.007562 -0.001435  0.006384
  0C   1dxy      -0.013939  0.001343  0.009418  0.006874 -0.007016 -0.009212
  1C   1s         0.013508 -0.018178 -0.031608 -0.000003 -0.000000 -0.000000
  1C   2s        -0.027663  0.061170  0.071429  0.000000  0.000002  0.000003
  1C   3s        -0.081341  0.046829  0.245725  0.000077  0.000025  0.000010
  1C   1pz       -0.015229 -0.144204  0.060438 -0.257731  0.214247  0.251027
  1C   1px        0.276260  0.016890  0.080444  0.080087 -0.066566 -0.077994
  1C   1py       -0.157319 -0.232628  0.055093  0.165584 -0.137634 -0.161265
  1C   2pz        0.022438 -0.031273 -0.035660 -0.109498  0.129941  0.153515
  1C   2px        0.101602 -0.021567  0.025994  0.034008 -0.040364 -0.047710
  1C   2py       -0.014215 -0.038249 -0.068113  0.070313 -0.083508 -0.098629
  1C   1dz2      -0.002447 -0.002351  0.005070  0.015987 -0.006618 -0.002114
  1C   1dxz      -0.005454 -0.005928  0.002196 -0.000353 -0.017315  0.012131
  1C   1dyz      -0.002155 -0.001972  0.007099  0.007222  0.005456 -0.006799
  1C   1dx2y2     0.000110 -0.000530 -0.009817  0.007667  0.007676 -0.008522
  1C   1dxy      -0.009105 -0.009437  0.009879 -0.005700  0.010954 -0.005193
  2C   1s         0.013501 -0.018174  0.031613  0.000005  0.000000  0.000000
  2C   2s        -0.027771  0.061142 -0.071446 -0.000016  0.000002  0.000001
  2C   3s        -0.080807  0.046855 -0.245732 -0.000036 -0.000031 -0.000016
  2C   1pz        0.143658 -0.026693 -0.057548 -0.257733 -0.214266  0.251020
  2C   1px       -0.093598 -0.259470 -0.087049  0.080074  0.066572 -0.077989
  2C   1py        0.268878  0.083945 -0.047559  0.165571  0.137647 -0.161261
  2C   2pz        0.059364 -0.019190 -0.004900 -0.109478 -0.129964  0.153511
  2C   2px        0.014667 -0.050027  0.069671  0.034039  0.040407 -0.047707
  2C   2py        0.085311 -0.005672 -0.041354  0.070324  0.083479 -0.098611
  2C   1dz2      -0.000920 -0.001073  0.001934  0.006271  0.018614  0.010256
  2C   1dxz      -0.006332 -0.006626 -0.005987  0.014606 -0.001158 -0.006918
  2C   1dyz       0.001022  0.000664  0.007327 -0.004297  0.008769  0.007869
  2C   1dx2y2    -0.004977 -0.004739 -0.013207 -0.006156  0.009392  0.009077
  2C   1dxy      -0.007585 -0.008132 -0.002683 -0.009494 -0.006271 -0.000365
  3C   1s         0.045867  0.017206  0.000002  0.000001  0.000001  0.000001
  3C   2s        -0.094583 -0.062820 -0.000003 -0.000002 -0.000003  0.000000
  3C   3s        -0.253626 -0.047964 -0.000014 -0.000009 -0.000011  0.000003
  3C   1pz        0.104965 -0.191939  0.104515 -0.164031  0.000003 -0.368338
  3C   1px        0.148986 -0.272524 -0.246186  0.050944 -0.000003  0.114451
  3C   1py        0.091319 -0.166951  0.281700  0.105433 -0.000004  0.236639
  3C   2pz       -0.029625 -0.054677  0.036045 -0.072105  0.000011 -0.229684
  3C   2px       -0.041909 -0.077618 -0.084924  0.022390  0.000005  0.071369
  3C   2py       -0.025849 -0.047563  0.097161  0.046349  0.000006  0.147569
  3C   1dz2      -0.002543  0.001175  0.003958 -0.010999  0.008111 -0.007645
  3C   1dxz      -0.009437  0.001883 -0.002139 -0.007044 -0.012490 -0.004896
  3C   1dyz      -0.000985 -0.000584  0.008147 -0.001444  0.009618 -0.001004
  3C   1dx2y2    -0.003993  0.000753 -0.013001 -0.000750  0.011540 -0.000520
  3C   1dxy      -0.013163  0.003450  0.004060  0.007510  0.003166  0.005219
  4C   1s        -0.035550  0.005596  0.004488  0.000001 -0.000000 -0.000001
  4C   2s         0.074776 -0.021267 -0.024317 -0.000005  0.000004  0.000001
  4C   3s         0.212471 -0.019882  0.091158  0.000022 -0.000003  0.000007
  4C   1pz       -0.150489  0.002853  0.021720 -0.208802 -0.325475 -0.132353
  4C   1px       -0.097759  0.168801  0.319214  0.064914  0.101130  0.041119
  4C   1py       -0.186974 -0.077189 -0.120638  0.134117  0.209096  0.085027
  4C   2pz       -0.011491 -0.017470  0.041575 -0.092203 -0.192876 -0.089405
  4C   2px       -0.083456  0.005152  0.095928  0.028645  0.059916  0.027781
  4C   2py        0.022474 -0.029683  0.018287  0.059248  0.123911  0.057444
  4C   1dz2      -0.002219  0.004328  0.000902 -0.012482 -0.010905  0.011892
  4C   1dxz      -0.009353  0.001279 -0.006144  0.004307 -0.003800  0.015769
  4C   1dyz       0.001315  0.006472  0.004562 -0.007588 -0.002972 -0.002381
  4C   1dx2y2    -0.006258 -0.009211 -0.009835 -0.008493 -0.002719 -0.004258
  4C   1dxy      -0.012393  0.007868 -0.004545  0.002465  0.005878 -0.012132
  5H   1s        -0.078072 -0.191663  0.137743  0.000015  0.000004  0.000002
  5H   2s        -0.029394 -0.064906  0.052017  0.000007  0.000008  0.000002
  5H   1pz        0.002693  0.005579 -0.003329 -0.006706  0.007373  0.008928
  5H   1px        0.007255  0.004349 -0.000205  0.002084 -0.002291 -0.002774
  5H   1py        0.000683  0.006581 -0.005085  0.004307 -0.004737 -0.005735
  6H   1s        -0.076336 -0.191458 -0.137718 -0.000013 -0.000002  0.000003
  6H   2s        -0.028806 -0.064844 -0.052015 -0.000013 -0.000008  0.000016
  6H   1pz        0.004506  0.003687  0.000935 -0.006706 -0.007374  0.008928
  6H   1px        0.002886  0.008798  0.005849  0.002084  0.002291 -0.002774
  6H   1py        0.005618  0.001485 -0.001375  0.004308  0.004738 -0.005736
  7H   1s         0.193083  0.101217  0.194239  0.000032  0.000002  0.000000
  7H   2s         0.066643  0.029209  0.067683  0.000017  0.000004  0.000005
  7H   1pz        0.001848  0.003867  0.005929 -0.005461 -0.011534 -0.004702
  7H   1px       -0.007581  0.000889  0.001048  0.001697  0.003584  0.001461
  7H   1py        0.006543  0.005590  0.008720  0.003511  0.007410  0.003021
  8H   1s        -0.227303  0.271584 -0.000023 -0.000006  0.000002 -0.000001
  8H   2s        -0.078135  0.077209 -0.000007 -0.000001  0.000014  0.000004
  8H   1pz       -0.006259  0.007899  0.002256 -0.004182  0.000000 -0.012982
  8H   1px       -0.008892  0.011214 -0.005318  0.001299  0.000000  0.004034
  8H   1py       -0.005441  0.006871  0.006083  0.002687  0.000000  0.008340
  9H   1s         0.191683  0.101009 -0.194237 -0.000030  0.000002 -0.000001
  9H   2s         0.066205  0.029131 -0.067685 -0.000018  0.000009 -0.000011
  9H   1pz       -0.003535  0.001432 -0.002026 -0.005463  0.011534 -0.004701
  9H   1px        0.005114  0.006626 -0.010245  0.001696 -0.003583  0.001460
  9H   1py       -0.007976 -0.000975  0.001800  0.003510 -0.007410  0.003020
                     18        19        20        21        22        23   
                  -0.09064  -0.06924  -0.00671   0.04501   0.04804   0.05527
                   0.00000   0.00000   0.00000   0.00000   0.00000   0.00000
                  --------  --------  --------  --------  --------  --------
  0C   1s         0.000002 -0.000000  0.038699  0.053495 -0.041661 -0.096156
  0C   2s        -0.000007  0.000001 -0.106668 -0.139292  0.113618  0.248911
  0C   3s         0.000038 -0.000031 -0.441015 -0.457749  0.785494  1.146722
  0C   1pz       -0.312223  0.235058 -0.035518  0.039313  0.035236 -0.029937
  0C   1px        0.097007 -0.073032  0.090829  0.008750 -0.203944 -0.134692
  0C   1py        0.200583 -0.151010 -0.099187  0.056938  0.153475  0.018541
  0C   2pz       -0.351129  0.292790 -0.059321  0.124699  0.065956 -0.063495
  0C   2px        0.109128 -0.090982  0.197552  0.127470 -0.452765 -0.407750
  0C   2py        0.225542 -0.188070 -0.187874  0.132456  0.321652  0.098377
  0C   1dz2      -0.015130 -0.016572 -0.013275 -0.001415  0.006117  0.003817
  0C   1dxz       0.004284 -0.014339 -0.009334  0.003439  0.003937  0.005824
  0C   1dyz      -0.008744 -0.000374 -0.004973  0.006043  0.004502 -0.012362
  0C   1dx2y2    -0.009711  0.001190  0.011068 -0.000928 -0.007301  0.011236
  0C   1dxy       0.003452  0.013147 -0.028057  0.002223  0.012794  0.009795
  1C   1s        -0.000001  0.000003  0.052919  0.011506 -0.032697  0.043941
  1C   2s         0.000004 -0.000010 -0.145699 -0.028602  0.088511 -0.117125
  1C   3s        -0.000075 -0.000026 -0.569807 -0.377296  0.517102 -0.619490
  1C   1pz        0.128236 -0.370646 -0.089758 -0.087606  0.097552 -0.085420
  1C   1px       -0.039843  0.115158 -0.040948 -0.039573  0.029920 -0.034710
  1C   1py       -0.082383  0.238108 -0.119934 -0.117222  0.137379 -0.116184
  1C   2pz        0.146716 -0.458081 -0.181072 -0.162241  0.236442 -0.212620
  1C   2px       -0.045591  0.142322 -0.076379 -0.094318  0.140405  0.032418
  1C   2py       -0.094190  0.294302 -0.244928 -0.206923  0.300134 -0.346642
  1C   1dz2       0.007659 -0.012922  0.006033  0.000654 -0.002765  0.002172
  1C   1dxz       0.021893  0.006074  0.005441 -0.005767 -0.006659  0.004868
  1C   1dyz      -0.007211 -0.008637  0.025262  0.006474 -0.006066  0.006775
  1C   1dx2y2    -0.010036 -0.009795 -0.023910 -0.010919  0.002860 -0.004270
  1C   1dxy      -0.013590  0.001760  0.016420 -0.004292 -0.011180  0.008625
  2C   1s        -0.000002 -0.000000  0.052917  0.011461  0.032763  0.043993
  2C   2s         0.000011  0.000003 -0.145682 -0.028471 -0.088656 -0.117236
  2C   3s         0.000082  0.000006 -0.569581 -0.376507 -0.518847 -0.620033
  2C   1pz        0.128243  0.370642 -0.043964 -0.042617 -0.040185 -0.039499
  2C   1px       -0.039847 -0.115159 -0.148911 -0.145107 -0.165865 -0.142702
  2C   1py       -0.082390 -0.238110  0.003605  0.003843  0.017673  0.007540
  2C   2pz        0.146681  0.458073 -0.085252 -0.089817 -0.133125 -0.035235
  2C   2px       -0.045617 -0.142365 -0.302066 -0.263408 -0.384978 -0.384844
  2C   2py       -0.094223 -0.294271  0.013389 -0.012417 -0.021038  0.131271
  2C   1dz2       0.023243 -0.000240 -0.011287 -0.004933 -0.000988 -0.002014
  2C   1dxz      -0.002106  0.014195  0.014809 -0.002760  0.008685  0.007134
  2C   1dyz       0.011270 -0.006971 -0.010396 -0.005030 -0.001650 -0.001840
  2C   1dx2y2     0.012137 -0.008933  0.032999  0.007427  0.009460  0.009482
  2C   1dxy      -0.007506 -0.006898 -0.001358 -0.010045  0.007324  0.004331
  3C   1s        -0.000003  0.000001  0.065553 -0.138160 -0.000101  0.081149
  3C   2s         0.000008 -0.000003 -0.172847  0.352985  0.000285 -0.203945
  3C   3s        -0.000015  0.000023 -0.640160  1.672334  0.000979 -0.712520
  3C   1pz        0.382798 -0.000003  0.050517 -0.122065  0.005903 -0.079692
  3C   1px       -0.118946 -0.000000  0.071696 -0.173272 -0.014530 -0.113292
  3C   1py       -0.245928  0.000003  0.043939 -0.106167  0.016198 -0.069261
  3C   2pz        0.431594  0.000024  0.107379 -0.300061 -0.008500 -0.118378
  3C   2px       -0.134120  0.000044  0.152418 -0.426034  0.018292 -0.168557
  3C   2py       -0.277294  0.000028  0.093411 -0.261001 -0.022070 -0.102746
  3C   1dz2      -0.012429  0.010131 -0.000092  0.004636 -0.001918 -0.006850
  3C   1dxz      -0.007959 -0.015601  0.018564 -0.010686  0.001023 -0.006378
  3C   1dyz      -0.001633  0.012014  0.008028 -0.010046 -0.003963  0.005381
  3C   1dx2y2    -0.000845  0.014414  0.008080 -0.004901  0.006303 -0.002397
  3C   1dxy       0.008484  0.003955  0.019627 -0.005653 -0.001985 -0.015221
  4C   1s         0.000000  0.000001  0.038691  0.053396  0.041661 -0.096337
  4C   2s         0.000002 -0.000006 -0.106638 -0.139041 -0.113629  0.249401
  4C   3s        -0.000017 -0.000040 -0.440891 -0.455690 -0.784542  1.149481
  4C   1pz       -0.312230 -0.235056  0.039308  0.014181  0.099236 -0.078912
  4C   1px        0.097015  0.073033 -0.085450  0.067718 -0.112884 -0.019601
  4C   1py        0.200586  0.151008  0.102500 -0.010672  0.209062 -0.113359
  4C   2pz       -0.351141 -0.292764  0.089918  0.098040  0.223455 -0.231930
  4C   2px        0.109085  0.090977 -0.154092  0.189942 -0.228972 -0.011086
  4C   2py        0.225547  0.188069  0.214495  0.060728  0.458566 -0.355651
  4C   1dz2      -0.002313  0.019991 -0.003652 -0.003083 -0.000319  0.009766
  4C   1dxz      -0.015452  0.009073 -0.014540  0.004355 -0.007059  0.002600
  4C   1dyz       0.006453  0.004429  0.014841  0.002593  0.007439 -0.000139
  4C   1dx2y2     0.008525  0.003675 -0.020552  0.004574 -0.011742 -0.008294
  4C   1dxy       0.008455 -0.011812 -0.018177  0.000522 -0.006826  0.015892
  5H   1s        -0.000003 -0.000002  0.166591  0.036169 -0.075130  0.092856
  5H   2s        -0.000021  0.000014  0.851386  0.606873 -0.857049  0.885806
  5H   1pz        0.006876 -0.020782  0.008656  0.004099 -0.006381  0.007429
  5H   1px       -0.002136  0.006457  0.003402 -0.002911 -0.001607  0.010310
  5H   1py       -0.004417  0.013351  0.011828  0.007790 -0.009157  0.006577
  6H   1s         0.000000  0.000006  0.166583  0.036030  0.075274  0.092916
  6H   2s         0.000016  0.000034  0.851507  0.605444  0.859235  0.886147
  6H   1pz        0.006876  0.020782  0.003946 -0.000531  0.002439  0.007306
  6H   1px       -0.002137 -0.006458  0.014494  0.007968  0.010935  0.010606
  6H   1py       -0.004418 -0.013351 -0.000866 -0.004681 -0.001491  0.006244
  7H   1s        -0.000001  0.000002  0.134749  0.047048  0.103266 -0.127202
  7H   2s        -0.000019  0.000006  0.706288  0.261780  1.236001 -1.152256
  7H   1pz       -0.016906 -0.013419 -0.005553  0.001546 -0.005810  0.002433
  7H   1px        0.005253  0.004169  0.004361  0.008197  0.007320 -0.014795
  7H   1py        0.010861  0.008621 -0.010754 -0.001558 -0.012584  0.010943
  8H   1s        -0.000006  0.000006  0.150283 -0.203800 -0.000206  0.040177
  8H   2s        -0.000026  0.000049  0.720411 -1.753412 -0.001790  0.041047
  8H   1pz        0.020920  0.000000 -0.006267  0.012409  0.000057 -0.000347
  8H   1px       -0.006500  0.000001 -0.008899  0.017617 -0.000082 -0.000511
  8H   1py       -0.013440  0.000000 -0.005452  0.010797  0.000127 -0.000294
  9H   1s         0.000001 -0.000001  0.134749  0.047260 -0.103308 -0.127056
  9H   2s         0.000023 -0.000008  0.706294  0.264573 -1.236704 -1.149996
  9H   1pz       -0.016905  0.013420  0.000932  0.004732 -0.002432 -0.007228
  9H   1px        0.005253 -0.004170 -0.010921  0.000684  0.012119  0.007959
  9H   1py        0.010860 -0.008621  0.006734  0.007034 -0.009647 -0.015100
                     24        25        26        27        28        29   
                   0.06242   0.07741   0.10260   0.20094   0.22751   0.24269
                   0.00000   0.00000   0.00000   0.00000   0.00000   0.00000
                  --------  --------  --------  --------  --------  --------
  0C   1s        -0.115061 -0.022340 -0.031385  0.086254 -0.046086  0.066534
  0C   2s         0.308168  0.078645  0.105325 -0.237015  0.075049 -0.513991
  0C   3s         1.566062  0.586163  0.622597 -3.386787  2.538445  0.485474
  0C   1pz       -0.065638 -0.106368  0.183516 -0.007034 -0.126707  0.015107
  0C   1px       -0.033779  0.046978  0.172945 -0.232286 -0.002278 -0.017951
  0C   1py       -0.085812 -0.188275  0.202046  0.101381 -0.196147  0.032157
  0C   2pz       -0.096763 -0.318139  0.770947  0.356673  0.069286 -0.004198
  0C   2px       -0.091101  0.139445  0.671084 -1.348964  1.429495 -0.132764
  0C   2py       -0.106571 -0.562663  0.875461  1.207597 -0.583466  0.057696
  0C   1dz2      -0.000231 -0.007807  0.002820  0.000444  0.010664  0.037269
  0C   1dxz      -0.014620 -0.007464 -0.025137 -0.002484 -0.011614 -0.001903
  0C   1dyz      -0.016181 -0.020927  0.012433  0.017118  0.015497 -0.029110
  0C   1dx2y2     0.002467  0.020454 -0.033942 -0.017239 -0.034160 -0.016495
  0C   1dxy      -0.016920 -0.020426 -0.020436 -0.000104  0.004305  0.045561
  1C   1s         0.062644 -0.106843  0.070649 -0.041907  0.098772  0.074472
  1C   2s        -0.154222  0.295593 -0.219890  0.131440 -0.297335 -0.592836
  1C   3s        -0.549424  1.551599 -1.530158  1.596421 -5.155252  0.655890
  1C   1pz       -0.050267  0.028022  0.062803 -0.065837  0.141425  0.033090
  1C   1px        0.098182  0.185419  0.206598  0.040920 -0.000236 -0.002220
  1C   1py       -0.125738 -0.046025 -0.002172 -0.122303  0.220242  0.052491
  1C   2pz       -0.181395  0.171100  0.175555 -0.551076  1.350798 -0.005157
  1C   2px        0.326624  0.742856  0.811676 -1.112520 -0.416845  0.010277
  1C   2py       -0.440323 -0.092961 -0.119273 -0.319697  2.304255 -0.012904
  1C   1dz2       0.003446  0.015278 -0.014581 -0.001790 -0.006894  0.016002
  1C   1dxz       0.011420  0.013349  0.016530 -0.031834 -0.014753 -0.019667
  1C   1dyz       0.007851 -0.002372 -0.014042  0.004337  0.007436 -0.063250
  1C   1dx2y2    -0.001309 -0.003666  0.041069 -0.027377 -0.010845  0.021558
  1C   1dxy       0.017140  0.034080 -0.004469 -0.034372 -0.023586 -0.005026
  2C   1s        -0.062598  0.106855  0.070604 -0.041854 -0.098842  0.074428
  2C   2s         0.154086 -0.295662 -0.219772  0.131224  0.297728 -0.592703
  2C   3s         0.549106 -1.551732 -1.529069  1.594644  5.155582  0.657587
  2C   1pz       -0.039611 -0.105126  0.125011  0.005318 -0.035002  0.007037
  2C   1px        0.113192 -0.003635  0.060055 -0.126795 -0.250686  0.059017
  2C   1py       -0.116411 -0.161881  0.165559  0.069632  0.066784 -0.017640
  2C   2pz       -0.128218 -0.435756  0.473450 -0.725903 -0.114589  0.003910
  2C   2px        0.401893 -0.118717  0.109504 -0.699383 -2.497271 -0.012392
  2C   2py       -0.393936 -0.620872  0.683994 -0.791738  1.029350  0.012126
  2C   1dz2       0.000612 -0.009499  0.007508 -0.010885  0.010081  0.036673
  2C   1dxz      -0.013610 -0.016473  0.004582 -0.026915  0.013014 -0.030840
  2C   1dyz       0.000507  0.014268  0.031432 -0.014386 -0.000845 -0.020708
  2C   1dx2y2    -0.012024 -0.015322 -0.031509  0.002506  0.000336 -0.046335
  2C   1dxy      -0.012969 -0.028147  0.018207 -0.043713  0.026847  0.016196
  3C   1s         0.000044 -0.000003 -0.080643 -0.091804 -0.000028  0.069776
  3C   2s        -0.000107  0.000009  0.242335  0.192423  0.000099 -0.499755
  3C   3s        -0.000519  0.000046  1.569185  3.405697  0.000663  0.450804
  3C   1pz       -0.084133 -0.083370  0.107245  0.147533  0.014325 -0.025259
  3C   1px        0.197964  0.196511  0.152274  0.209442 -0.033714 -0.035884
  3C   1py       -0.226701 -0.224795  0.093282  0.128332  0.038674 -0.021961
  3C   2pz       -0.261068 -0.241058  0.380805  1.169568 -0.278683 -0.057001
  3C   2px        0.614780  0.568317  0.540763  1.660219  0.657975 -0.080879
  3C   2py       -0.703705 -0.650092  0.331217  1.017589 -0.752108 -0.049609
  3C   1dz2       0.009681  0.006749  0.011776  0.002555  0.012685  0.017311
  3C   1dxz      -0.005245 -0.003646  0.021333 -0.013069 -0.006865 -0.036623
  3C   1dyz       0.019945  0.013891 -0.004847 -0.008612  0.026127 -0.036130
  3C   1dx2y2    -0.031829 -0.022168  0.008648 -0.005813 -0.041692 -0.016858
  3C   1dxy       0.009930  0.006932  0.037189 -0.010753  0.013018 -0.017621
  4C   1s         0.114973  0.022351 -0.031355  0.086242  0.046093  0.066548
  4C   2s        -0.307965 -0.078691  0.105246 -0.237007 -0.074920 -0.514003
  4C   3s        -1.565041 -0.586111  0.621947 -3.385875 -2.540239  0.484429
  4C   1pz        0.034036  0.001530  0.137133 -0.124786  0.032581 -0.005784
  4C   1px        0.107829  0.200156  0.282305  0.045019  0.223972  0.031229
  4C   1py        0.000843 -0.094411  0.076934 -0.216016 -0.057628 -0.024093
  4C   2pz        0.071838  0.005223  0.546587 -0.625755 -0.774567 -0.071705
  4C   2px        0.148557  0.598491  1.199609  0.966411  0.232165  0.025308
  4C   2py        0.039960 -0.281327  0.270638 -1.441423 -1.317912 -0.123892
  4C   1dz2      -0.005636 -0.007733 -0.012434 -0.010327  0.008372  0.028145
  4C   1dxz       0.017807  0.015863 -0.016886  0.003334  0.001327  0.003036
  4C   1dyz       0.004076 -0.011066 -0.018969 -0.005055  0.023729 -0.047895
  4C   1dx2y2     0.016843  0.030600  0.016175  0.018143 -0.028409  0.013487
  4C   1dxy       0.010908  0.004469 -0.036090 -0.011164  0.015244  0.036202
  5H   1s         0.141573 -0.026624 -0.101184  0.001766 -0.008464 -0.342767
  5H   2s         0.880943 -0.947207  0.310512  0.321641 -0.764937  0.052809
  5H   1pz        0.008695 -0.004029 -0.000540 -0.000650 -0.006715 -0.010290
  5H   1px        0.010832  0.013986  0.015013 -0.033264 -0.023115 -0.001089
  5H   1py        0.008296 -0.013034 -0.008102  0.015073  0.000727 -0.015491
  6H   1s        -0.141391  0.026568 -0.101239  0.001756  0.008517 -0.342791
  6H   2s        -0.879846  0.947047  0.310233  0.321276  0.765116  0.053062
  6H   1pz       -0.007885 -0.006409  0.007816 -0.017785  0.013897 -0.003122
  6H   1px       -0.012700  0.010604 -0.004691  0.007107  0.006164 -0.017966
  6H   1py       -0.006132 -0.015105  0.014436 -0.031119  0.018654  0.003826
  7H   1s         0.015244 -0.129296  0.039816 -0.008746  0.074258 -0.312419
  7H   2s         0.745770 -0.468288 -0.296069 -0.695392 -0.580431 -0.010677
  7H   1pz       -0.002529  0.010785  0.012114  0.010299 -0.011552  0.007091
  7H   1px        0.003335  0.009066  0.024612  0.011943 -0.023754 -0.005130
  7H   1py       -0.005549  0.012403  0.006955  0.010255 -0.006496  0.013518
  8H   1s        -0.000002  0.000033  0.134790 -0.109852 -0.000002 -0.301701
  8H   2s        -0.000086  0.000151  0.222346  1.064970  0.000344  0.029439
  8H   1pz       -0.008404 -0.005401 -0.005298 -0.001073 -0.011039  0.006015
  8H   1px        0.019813  0.012722 -0.007518 -0.001530  0.026011  0.008546
  8H   1py       -0.022665 -0.014559 -0.004611 -0.000929 -0.029760  0.005230
  9H   1s        -0.015386  0.129335  0.039782 -0.008737 -0.074206 -0.312444
  9H   2s        -0.746999  0.468424 -0.296225 -0.695624  0.580276 -0.010568
  9H   1pz       -0.001149 -0.007475  0.016042  0.008874  0.015448 -0.000951
  9H   1px        0.005317 -0.016862  0.015369  0.015286  0.014586  0.013842
  9H   1py       -0.004358 -0.003480  0.017540  0.006422  0.016990 -0.008175
                     30        31        32        33        34        35   
                   0.28364   0.31062   0.32131   0.33598   0.36068   0.36871
                   0.00000   0.00000   0.00000   0.00000   0.00000   0.00000
                  --------  --------  --------  --------  --------  --------
  0C   1s         0.025548  0.000717 -0.053062 -0.008554  0.108183 -0.000025
  0C   2s        -0.103911 -0.055777  0.660319 -0.303807 -0.541120  0.000201
  0C   3s        -1.881537  0.016777 -1.066126  2.301876 -0.424406 -0.000536
  0C   1pz       -0.167291 -0.194198  0.022687 -0.017869  0.110929  0.325365
  0C   1px       -0.220992 -0.181828  0.155022 -0.030924  0.016684 -0.101128
  0C   1py       -0.153553 -0.214450 -0.039628 -0.012826  0.164435 -0.209187
  0C   2pz       -1.132586 -0.075462 -0.092499  0.203397  0.094543 -0.230912
  0C   2px       -1.627360  0.098475 -0.319447  1.149136 -0.379397  0.071551
  0C   2py       -0.975892 -0.165002  0.010489 -0.239140  0.330760  0.148410
  0C   1dz2      -0.000867 -0.005372 -0.039966  0.019913 -0.025810  0.003740
  0C   1dxz       0.021194 -0.028266  0.011792 -0.025885 -0.022583  0.016571
  0C   1dyz      -0.014762 -0.005651  0.034147 -0.041108 -0.024999 -0.006344
  0C   1dx2y2     0.030683 -0.012053  0.022990 -0.006737  0.031182 -0.008561
  0C   1dxy       0.018825 -0.036675 -0.038621 -0.003691 -0.060705 -0.009524
  1C   1s        -0.019385  0.063866 -0.014045  0.024113  0.045147 -0.000039
  1C   2s         0.031552 -0.620720  0.391707  0.127880 -0.361379  0.000213
  1C   3s         1.531517  1.101281 -2.116801 -1.592642  0.615799  0.000742
  1C   1pz       -0.047357  0.077617 -0.064556  0.017850 -0.008493  0.402185
  1C   1px       -0.369621  0.083980 -0.256221  0.363117 -0.182809 -0.124846
  1C   1py        0.105033  0.080068  0.023492 -0.147772  0.074918 -0.258478
  1C   2pz       -0.623802 -0.175035  0.441150  0.408638 -0.148774 -0.341000
  1C   2px       -2.309730 -0.412448 -0.533522  0.272691  0.117029  0.105602
  1C   2py        0.146074 -0.072851  0.944661  0.504166 -0.287949  0.218726
  1C   1dz2      -0.004448  0.025209 -0.014819 -0.008434  0.029893 -0.026964
  1C   1dxz      -0.021463 -0.021465  0.023437  0.001562  0.006684 -0.000634
  1C   1dyz      -0.001118 -0.023958  0.041441  0.052138  0.030941 -0.011586
  1C   1dx2y2    -0.011486 -0.023686 -0.000988 -0.034650 -0.053489 -0.012155
  1C   1dxy      -0.028006  0.009836  0.008149 -0.004308  0.050701  0.010209
  2C   1s         0.019374  0.063856  0.014047  0.024140  0.045150  0.000018
  2C   2s        -0.031517 -0.620627 -0.391738  0.127748 -0.361410  0.000089
  2C   3s        -1.531157  1.101238  2.116978 -1.592518  0.615567 -0.001389
  2C   1pz        0.207496  0.063753  0.151715  0.196704 -0.098752  0.402232
  2C   1px       -0.007741  0.116487  0.050782 -0.058469  0.030047 -0.124987
  2C   1py        0.326749  0.042823  0.211669  0.334586 -0.168567 -0.258319
  2C   2pz        1.377935 -0.261783  0.173106  0.245997  0.025083 -0.340516
  2C   2px        0.532219 -0.207612 -0.913848  0.656666 -0.292421  0.106654
  2C   2py        1.887449 -0.307025  0.711374  0.065214  0.180763  0.218978
  2C   1dz2       0.006048  0.016538  0.022817 -0.032308 -0.006661 -0.011714
  2C   1dxz       0.020594 -0.016758 -0.027766  0.014492  0.026451 -0.024118
  2C   1dyz       0.004401 -0.041821 -0.024988  0.002984 -0.044340  0.006535
  2C   1dx2y2     0.006236  0.004841 -0.025277  0.043809  0.066658  0.009526
  2C   1dxy       0.029643  0.000943  0.000049 -0.028807  0.013178  0.016161
  3C   1s        -0.000007  0.015994  0.000003  0.121918  0.019187 -0.000004
  3C   2s         0.000017  0.293579  0.000055 -0.707154 -0.447403  0.000093
  3C   3s         0.000119 -1.206734 -0.000300 -0.237503  1.745409 -0.000641
  3C   1pz       -0.113286  0.011086  0.058041 -0.092350 -0.037048  0.281752
  3C   1px        0.267010  0.015711 -0.136747 -0.131048 -0.052773 -0.087637
  3C   1py       -0.305510  0.009603  0.156483 -0.080250 -0.032276 -0.180881
  3C   2pz       -0.292032 -0.317878 -0.014217 -0.358127  0.478574 -0.172387
  3C   2px        0.688343 -0.451118  0.033146 -0.508452  0.679569  0.053316
  3C   2py       -0.787442 -0.276607 -0.038128 -0.311650  0.416324  0.110483
  3C   1dz2       0.001676 -0.018670  0.005338  0.012779  0.036921  0.008460
  3C   1dxz      -0.000910  0.060385 -0.002886 -0.000485  0.007796  0.005409
  3C   1dyz       0.003443  0.047884  0.011015 -0.015344 -0.040412  0.001127
  3C   1dx2y2    -0.005502  0.027264 -0.017560 -0.000895  0.001417  0.000557
  3C   1dxy       0.001714  0.041214  0.005485  0.015227  0.053759 -0.005789
  4C   1s        -0.025535  0.000714  0.053032 -0.008559  0.108178 -0.000050
  4C   2s         0.103870 -0.055665 -0.660168 -0.303801 -0.541225  0.000131
  4C   3s         1.881036  0.016468  1.066133  2.302033 -0.423926  0.001190
  4C   1pz        0.158556 -0.144421 -0.087808 -0.020816  0.036445  0.325440
  4C   1px        0.241660 -0.299083 -0.001871 -0.023862  0.192324 -0.100993
  4C   1py        0.129935 -0.080172 -0.135695 -0.020721 -0.036509 -0.209025
  4C   2pz        1.142684  0.033400  0.192241  0.659156 -0.177397 -0.230527
  4C   2px        1.603151 -0.157800  0.084514  0.075322  0.261733  0.071412
  4C   2py        1.003336  0.128298  0.258279  0.989495 -0.402555  0.148929
  4C   1dz2      -0.013426 -0.005403  0.029466  0.023639  0.000654  0.016752
  4C   1dxz      -0.013458 -0.028261 -0.006114 -0.027904 -0.036891 -0.003443
  4C   1dyz      -0.014671 -0.005690 -0.055763 -0.033442  0.029435  0.009032
  4C   1dx2y2     0.016287 -0.011974  0.011504 -0.018989 -0.055709  0.009958
  4C   1dxy      -0.033491 -0.036710  0.027848  0.000133 -0.033540 -0.004429
  5H   1s        -0.042993 -0.081808  0.301452  0.392583  0.344474 -0.000101
  5H   2s         0.226815 -0.163709 -0.254088 -0.412342 -0.366262  0.000170
  5H   1pz       -0.004275 -0.008919  0.015578  0.016031  0.013408 -0.002109
  5H   1px       -0.030194 -0.017715  0.009521 -0.015945  0.019427  0.000648
  5H   1py        0.007948 -0.005315  0.019644  0.032665  0.011475  0.001350
  6H   1s         0.042913 -0.081738 -0.301569  0.392655  0.344453  0.000061
  6H   2s        -0.226723 -0.163802  0.254033 -0.412585 -0.366198 -0.000198
  6H   1pz        0.017051 -0.011586 -0.008911 -0.004459  0.013620 -0.002102
  6H   1px        0.000076 -0.011396 -0.025247  0.032383  0.018936  0.000667
  6H   1py        0.026504 -0.012524 -0.001660 -0.022601  0.012044  0.001349
  7H   1s         0.086239  0.159823 -0.405878 -0.182187  0.464142 -0.000273
  7H   2s        -0.008163 -0.078734  0.120933  0.186469 -0.727066  0.000477
  7H   1pz        0.014672  0.002247  0.015673  0.012573 -0.017824  0.003022
  7H   1px        0.040007  0.013685 -0.011891  0.001757  0.002815 -0.000948
  7H   1py        0.003489 -0.003121  0.030149  0.018722 -0.029109 -0.001912
  8H   1s        -0.000053  0.666935  0.000071  0.071027 -0.032388 -0.000044
  8H   2s         0.000103 -0.650417 -0.000079 -0.549002  0.112709  0.000011
  8H   1pz       -0.004619 -0.021661 -0.001123 -0.002180  0.007462  0.007320
  8H   1px        0.010889 -0.030754  0.002633 -0.003087  0.010596 -0.002267
  8H   1py       -0.012458 -0.018847 -0.003021 -0.001899  0.006487 -0.004710
  9H   1s        -0.086272  0.159704  0.405813 -0.182181  0.464298 -0.000031
  9H   2s         0.008114 -0.078529 -0.120707  0.186461 -0.727232  0.000056
  9H   1pz       -0.024830  0.007806  0.002411  0.004049 -0.002925  0.003019
  9H   1px       -0.016074  0.000603 -0.030718  0.021844 -0.032298 -0.000931
  9H   1py       -0.030877  0.011860  0.018610 -0.004260  0.011066 -0.001924
                     36        37        38        39        40        41   
                   0.37626   0.42435   0.43244   0.49625   0.49850   0.51289
                   0.00000   0.00000   0.00000   0.00000   0.00000   0.00000
                  --------  --------  --------  --------  --------  --------
  0C   1s         0.050051  0.000004  0.000009 -0.000016  0.000020 -0.050605
  0C   2s        -0.028669  0.000003 -0.000067  0.000074 -0.000123  0.288206
  0C   3s        -2.216366  0.000040 -0.000011 -0.000109  0.000072 -0.389967
  0C   1pz       -0.199495  0.460156  0.209516 -0.408949 -0.309889  0.103736
  0C   1px       -0.190455 -0.142922 -0.065075  0.127063  0.096360 -0.031231
  0C   1py       -0.218124 -0.295623 -0.134635  0.262715  0.198959  0.176354
  0C   2pz        0.005951 -0.538180 -0.242333  0.905782  0.707799 -0.581297
  0C   2px       -1.014681  0.167116  0.075180 -0.281418 -0.220228  0.027021
  0C   2py        0.499750  0.345760  0.155816 -0.581882 -0.454332 -0.917361
  0C   1dz2      -0.019542  0.002371 -0.019949  0.002158 -0.001906  0.010418
  0C   1dxz       0.001144  0.037827  0.002742 -0.003015 -0.000587 -0.000172
  0C   1dyz       0.036694 -0.017243 -0.010132  0.002408 -0.000569  0.006494
  0C   1dx2y2    -0.009710 -0.022394 -0.011006  0.002871 -0.000510 -0.016946
  0C   1dxy      -0.021453 -0.019499  0.005971  0.000702  0.000974  0.014662
  1C   1s        -0.088414 -0.000002  0.000005  0.000017  0.000034  0.117519
  1C   2s         0.138520 -0.000002 -0.000052 -0.000079 -0.000217 -0.714926
  1C   3s         3.406812  0.000005  0.000174  0.000316  0.000628  2.118704
  1C   1pz       -0.014072  0.294756 -0.334442  0.158632  0.474605 -0.173300
  1C   1px        0.080011 -0.091583  0.103961 -0.049291 -0.147519  0.028524
  1C   1py       -0.060352 -0.189405  0.214875 -0.101901 -0.305040 -0.283343
  1C   2pz       -1.092212 -0.387515  0.434154 -0.373814 -1.131285  0.451859
  1C   2px       -0.742147  0.120418 -0.134977  0.116208  0.351720 -0.254441
  1C   2py       -1.341356  0.249096 -0.279068  0.240090  0.727183  0.825991
  1C   1dz2       0.021260 -0.029670  0.030885 -0.002951 -0.001067  0.005379
  1C   1dxz      -0.021580 -0.020615 -0.013124  0.002296  0.000549  0.011683
  1C   1dyz      -0.036868 -0.003113  0.019964 -0.002403 -0.000724  0.035364
  1C   1dx2y2    -0.008374 -0.001007  0.022542 -0.002807 -0.000848 -0.026904
  1C   1dxy       0.002957  0.021063 -0.004884 -0.000049  0.000142  0.022960
  2C   1s         0.088407 -0.000004  0.000002  0.000022 -0.000023  0.117792
  2C   2s        -0.138514  0.000042  0.000001 -0.000151  0.000160 -0.716628
  2C   3s        -3.406417 -0.000013 -0.000266  0.000245 -0.000377  2.123289
  2C   1pz       -0.039014 -0.295031 -0.334225  0.154693 -0.475960 -0.028241
  2C   1px        0.044665  0.091682  0.103882 -0.048218  0.148001 -0.314884
  2C   1py       -0.082038  0.189471  0.214693 -0.099370  0.305791  0.108379
  2C   2pz        0.663986  0.387900  0.433860 -0.364477  1.134433 -0.021538
  2C   2px        1.751116 -0.120666 -0.134820  0.113654 -0.352884  0.865381
  2C   2py        0.186380 -0.249095 -0.278666  0.234057 -0.728913 -0.452072
  2C   1dz2      -0.022668  0.031157  0.000687  0.000889 -0.000057 -0.015818
  2C   1dxz       0.022350  0.018351  0.033337 -0.003594  0.001226  0.023191
  2C   1dyz       0.033935  0.004873 -0.015821  0.002130 -0.000619 -0.008249
  2C   1dx2y2     0.013046  0.003114 -0.020398  0.002674 -0.000799  0.042747
  2C   1dxy      -0.004427 -0.020485 -0.016660  0.001450 -0.000583  0.001246
  3C   1s        -0.000010 -0.000004 -0.000001 -0.000029 -0.000011 -0.146794
  3C   2s         0.000078  0.000021  0.000007  0.000189  0.000071  0.954725
  3C   3s        -0.000003 -0.000003 -0.000085 -0.000468  0.000241 -3.354656
  3C   1pz        0.130616  0.000124  0.555518  0.499193 -0.002074 -0.140445
  3C   1px       -0.307969 -0.000003 -0.172633 -0.155193  0.000493 -0.199197
  3C   1py        0.352541 -0.000060 -0.356907 -0.320785  0.001190 -0.122018
  3C   2pz       -0.095272 -0.000114 -0.606717 -1.084770  0.004655  0.109147
  3C   2px        0.224743 -0.000028  0.188489  0.337195 -0.000889  0.154063
  3C   2py       -0.257202  0.000042  0.389834  0.697083 -0.002574  0.094857
  3C   1dz2       0.010265  0.005690  0.035082  0.007774  0.004071 -0.003828
  3C   1dxz      -0.005558 -0.008741  0.022462  0.004931 -0.006347 -0.034818
  3C   1dyz       0.021154  0.006738  0.004604  0.001038  0.004861 -0.010318
  3C   1dx2y2    -0.033754  0.008083  0.002376  0.000541  0.005834 -0.014947
  3C   1dxy       0.010544  0.002213 -0.023941 -0.005301  0.001608 -0.041728
  4C   1s        -0.050072  0.000003  0.000006 -0.000001 -0.000034 -0.050159
  4C   2s         0.028837 -0.000002 -0.000067  0.000004  0.000177  0.285423
  4C   3s         2.215626  0.000062  0.000285  0.000067 -0.000758 -0.382891
  4C   1pz        0.150244 -0.459999  0.209722 -0.406474  0.313175  0.009719
  4C   1px        0.306063  0.142937 -0.065125  0.126291 -0.097330  0.190748
[...]
     12       0.000000   0.000000   0.000000   0.000000   0.000000   0.000000
     13       0.000000   0.000000   0.000000   0.000000   0.000000   0.000000
     14       0.000000   0.000000   0.000000   0.000000   0.000000   0.000000
     15       0.000000   0.000000   0.000000   0.000000   0.000000   0.000000
     16       0.000000   0.000000   0.000000   0.000000   0.000000   0.000000
     17       0.000000   0.000000   0.000000   0.000000   0.000000   0.000000
     18       0.000000   0.000000   0.000000   0.000000   0.000000   0.000000
     19       0.000000   0.000000   0.000000   0.000000   0.000000   0.000000
     20       0.000000   0.000000   0.000000   0.000000   0.000000   0.000000
     21       0.000000   0.000000   0.000000   0.000000   0.000000   0.000000
     22       0.000000   0.000000   0.000000   0.000000   0.000000   0.000000
     23       0.000000   0.000000   0.000000   0.000000   0.000000   0.000000
     24       0.000000   0.000000   0.000000   0.000000   0.000000   0.000000
     25       0.000000   0.000000   0.000000   0.000000   0.000000   0.000000
     26       0.000000   0.000000   0.000000   0.000000   0.000000   0.000000
     27       0.000000   0.000000   0.000000   0.000000   0.000000   0.000000
     28       0.000000   0.000000   0.000000   0.000000   0.000000   0.000000
     29       0.000000   0.000000   0.000000   0.000000   0.000000   0.000000
                  6          7          8          9         10         11    
      0       0.023799   0.008471  -0.000077  -0.106298  -0.009388   0.013217
      1       0.049183   0.017501  -0.000183  -0.219665  -0.019385   0.027209
      2      -0.076592  -0.027252   0.000298   0.341982   0.030184  -0.042362
      3       0.015616  -0.019933  -0.062221   0.085964  -0.009498  -0.006352
      4       0.032274  -0.041222  -0.128638   0.177719  -0.019632  -0.013053
      5      -0.050276   0.064173   0.200298  -0.276681   0.030555   0.020438
      6      -0.014275  -0.020936   0.100862  -0.032748  -0.009498  -0.002980
      7      -0.029574  -0.043285   0.208632  -0.067762  -0.019647  -0.005997
      8       0.046037   0.067379  -0.324766   0.105475   0.030572   0.009315
      9      -0.000823   0.025472   0.062381   0.085633  -0.009527  -0.014940
     10      -0.001656   0.052678   0.128928   0.177014  -0.019717  -0.030941
     11       0.002583  -0.082010  -0.200710  -0.275545   0.030692   0.048170
     12      -0.024303   0.006948  -0.101080  -0.032722  -0.009386   0.011061
     13      -0.050212   0.014386  -0.209007  -0.067659  -0.019408   0.022770
     14       0.078217  -0.022385   0.325305   0.105321   0.030212  -0.035567
     15      -0.096816   0.124775  -0.070532   0.096830   0.112785   0.067041
     16      -0.200091   0.258005  -0.145874   0.200085   0.233134   0.138595
     17       0.311403  -0.401549   0.227107  -0.311495  -0.362872  -0.215613
     18       0.088605   0.130652   0.113925  -0.037630   0.112764   0.030625
     19       0.183124   0.270076   0.235589  -0.077807   0.233113   0.063493
     20      -0.284994  -0.420375  -0.366773   0.121182  -0.362814  -0.098793
     21       0.151685  -0.044166  -0.112982  -0.036578   0.112774  -0.116577
     22       0.313773  -0.091324  -0.233666  -0.075525   0.233250  -0.241300
     23      -0.488379   0.142163   0.363704   0.117513  -0.363092   0.375533
     24       0.005030  -0.157727   0.071242   0.098104   0.112528   0.158004
     25       0.010364  -0.326216   0.147235   0.202752   0.232677   0.327051
     26      -0.016177   0.507675  -0.229196  -0.315614  -0.362140  -0.508775
     27      -0.148675  -0.053807  -0.000041  -0.118689   0.112729  -0.139150
     28      -0.307343  -0.111237  -0.000092  -0.245290   0.233043  -0.287692
     29       0.478513   0.173219   0.000095   0.381842  -0.362827   0.447719
                 12         13         14         15         16         17    
      0      -0.007415  -0.025310   0.274842   0.084383   0.009889  -0.041181
      1      -0.015106   0.104393  -0.159667  -0.033339  -0.054812  -0.037784
      2       0.023588   0.059210  -0.017070   0.004820  -0.032140  -0.037071
      3       0.013650  -0.055144   0.098393  -0.051908  -0.019474   0.035195
      4       0.028196   0.121191   0.230887  -0.039729   0.067715  -0.041543
      5      -0.044069   0.060673   0.178744  -0.041644   0.037456  -0.015742
      6      -0.014739  -0.261787  -0.178257   0.041087   0.084232   0.043278
      7      -0.030614  -0.024935   0.077115   0.037418  -0.027537   0.002934
      8       0.047620  -0.097303  -0.005727   0.036789   0.008485   0.015322
      9      -0.001786   0.223103  -0.106207  -0.043069   0.066112  -0.052966
     10      -0.003681   0.071967  -0.144646   0.033535   0.048179   0.036794
     11       0.005848   0.115491  -0.125960   0.008142   0.051485   0.007171
     12       0.010278   0.119135  -0.088733   0.027011  -0.054361   0.015652
     13       0.021189  -0.272638  -0.003711  -0.081112   0.004290   0.039524
     14      -0.032967  -0.138099  -0.029970  -0.043706  -0.014143   0.030259
     15      -0.144454   0.400895  -0.081037  -0.437258  -0.379876   0.385656
     16      -0.298781  -0.038928   0.282787   0.089105   0.194825  -0.160961
     17       0.464840   0.099982   0.157470  -0.078653   0.007155   0.016385
     18       0.156384  -0.276038  -0.136035   0.003074   0.111247   0.037493
     19       0.323293   0.214465  -0.293961   0.454051  -0.256353   0.051126
     20      -0.502951   0.051980  -0.231945   0.292703  -0.130136   0.044518
     21      -0.108397   0.140502   0.374035  -0.063642  -0.544807   0.266291
     22      -0.224012  -0.257282   0.100595  -0.106688  -0.105979   0.095453
     23       0.348612  -0.122267   0.180989  -0.088387  -0.237301   0.144047
     24       0.019175   0.008549  -0.356758  -0.395512   0.025158  -0.376188
     25       0.039475   0.305758   0.150963   0.435801   0.102194   0.407155
     26      -0.061458   0.199763  -0.013623   0.157189   0.073483   0.144743
     27       0.077425  -0.273878   0.199334   0.208140  -0.241212  -0.312983
     28       0.160228  -0.223740  -0.240102   0.119433  -0.385513  -0.391890
     29      -0.249285  -0.229115  -0.093094   0.141321  -0.322609  -0.348970
                 18         19         20         21         22         23    
      0      -0.029841   0.245329   0.035355  -0.086017  -0.234197   0.158529
      1       0.033927  -0.163101   0.046043  -0.269449  -0.111672  -0.021713
      2       0.012531  -0.028541   0.040567  -0.199785  -0.144526   0.035321
      3      -0.054373  -0.064923   0.066794   0.136037   0.382543  -0.172574
      4      -0.007653  -0.233308  -0.022926   0.081135  -0.164701  -0.028344
      5      -0.021810  -0.170060   0.006028   0.094393   0.013058  -0.071830
      6       0.010022  -0.285132   0.005886  -0.125004  -0.086493   0.059017
      7      -0.057756   0.018752  -0.060216  -0.122848   0.343124   0.152217
      8      -0.033989  -0.076529  -0.036858  -0.117782   0.193567   0.116123
      9       0.013303   0.216174  -0.044941  -0.277796   0.097424  -0.145966
     10       0.038641   0.132422   0.051398   0.306747   0.085977   0.148015
     11       0.028949   0.152214   0.019057   0.110739   0.085516   0.049731
     12       0.060913  -0.111559  -0.063092   0.353037  -0.159583   0.015330
     13      -0.007088   0.245175  -0.014308   0.004355  -0.153234  -0.132945
     14       0.014379   0.122845  -0.028797   0.112484  -0.148023  -0.080641
     15      -0.446061  -0.071873  -0.416214  -0.067862  -0.382466   0.356406
     16       0.127327  -0.264964   0.142709   0.149776   0.098007  -0.228518
     17      -0.056823  -0.192590  -0.037662   0.075065  -0.055924  -0.036081
     18       0.055883  -0.323296  -0.036548  -0.148869  -0.021351   0.129214
     19      -0.529664   0.022661   0.375365   0.135591  -0.320407  -0.405383
     20      -0.322930  -0.085858   0.229814   0.040926  -0.212500  -0.220316
     21       0.489837  -0.126212   0.393407  -0.278198   0.248163   0.172545
     22       0.090728   0.277867   0.089210  -0.137999  -0.059489  -0.126555
     23       0.210415   0.139322   0.179524  -0.175129   0.038867  -0.027713
     24      -0.129780   0.244867   0.279866   0.253452   0.125245   0.330455
     25       0.200993   0.150205  -0.320224  -0.301016   0.052497  -0.401198
     26       0.088837   0.172611  -0.118805  -0.114644   0.072521  -0.155100
     27       0.029829   0.277839  -0.220523   0.238415   0.034063   0.032118
     28       0.109767  -0.185054  -0.286944   0.154360   0.235428  -0.235217
     29       0.079776  -0.032642  -0.252842   0.173197   0.161897  -0.141135
                 24         25         26         27         28         29    
      0      -0.046918  -0.022192  -0.036158   0.028835   0.037058   0.035132
      1      -0.161181   0.015052   0.023893  -0.022340  -0.021975  -0.023392
      2      -0.118119   0.002771   0.004111  -0.005388  -0.002599  -0.004108
      3      -0.109535  -0.010510  -0.003929   0.003086  -0.012604  -0.009235
      4       0.136454  -0.037436  -0.015374   0.024558  -0.037322  -0.033334
      5       0.053628  -0.027318  -0.011098   0.016737  -0.027895  -0.024287
      6       0.136162   0.048066  -0.011910   0.053163   0.012235  -0.040698
      7      -0.101155  -0.003131   0.001076  -0.004373   0.002649   0.002713
      8      -0.022679   0.012926  -0.003011   0.013712   0.005504  -0.010905
      9       0.097548  -0.002475   0.037371   0.037137  -0.018341   0.031026
     10       0.083283  -0.001885   0.022872   0.024560  -0.006900   0.019014
     11       0.083805  -0.001980   0.026306   0.027316  -0.010132   0.021855
     12      -0.198174  -0.012652   0.014593  -0.001987   0.021585  -0.015988
     13      -0.014834   0.027219  -0.032506  -0.004706  -0.046671   0.035087
     14      -0.071103   0.013556  -0.016349  -0.003640  -0.023277   0.017575
     15       0.371591   0.127928   0.051368  -0.067513   0.120035   0.097094
     16      -0.007315   0.460766   0.187918  -0.261885   0.422213   0.350445
     17       0.110783   0.335793   0.136696  -0.189240   0.308570   0.255331
     18       0.131582  -0.590999   0.146086  -0.590689  -0.139449   0.427792
     19       0.224395   0.039236  -0.010325   0.040488   0.004601  -0.028503
     20       0.185077  -0.158469   0.038765  -0.157569  -0.040385   0.114643
     21       0.458219   0.153247  -0.181363  -0.014490  -0.237295   0.168039
     22       0.140446  -0.335331   0.399253   0.044110   0.520112  -0.368985
     23       0.232586  -0.167819   0.200149   0.023837   0.260419  -0.184847
     24       0.168611   0.032578  -0.459404  -0.423397   0.179996  -0.326261
     25       0.043902   0.020742  -0.281435  -0.261874   0.104416  -0.199919
     26       0.080581   0.023449  -0.323560  -0.299805   0.123011  -0.229815
     27       0.310812   0.274419   0.443715  -0.336578  -0.399115  -0.369483
     28       0.282923  -0.183238  -0.294947   0.228275   0.261982   0.245922
     29       0.278299  -0.032426  -0.051569   0.042037   0.044252   0.043145


-----------
IR SPECTRUM
-----------

 Mode    freq (cm**-1)   T**2         TX         TY         TZ
-------------------------------------------------------------------
   6:       589.06    0.000010  (  0.000258  -0.002928   0.001251)
   7:       589.29    0.000063  ( -0.003303  -0.004818   0.005336)
   8:       603.69    0.000145  (  0.001760   0.006362  -0.010081)
   9:       603.72    0.000273  (  0.004380   0.007540  -0.014025)
  10:       643.24   94.233658  (  2.455444   5.074596  -7.902716)
  11:       761.57    0.000013  (  0.000201   0.003471   0.001142)
  12:       761.61    0.000012  ( -0.000432   0.002852   0.001809)
  13:       803.09    0.000011  (  0.001800   0.002131   0.001773)
  14:       803.15    0.000009  ( -0.002966   0.000127  -0.000193)
  15:       985.06   20.776735  ( -2.445627   3.536677   1.512467)
  16:       985.12   20.788984  ( -3.671107  -1.609753  -2.172707)
  17:      1022.63    0.000027  (  0.002432   0.002706   0.003773)
  18:      1022.70    0.000038  ( -0.002754  -0.003529  -0.004220)
  19:      1124.34    0.000005  (  0.001877   0.000751   0.000915)
  20:      1220.38    0.000010  (  0.002129  -0.002106   0.001086)
  21:      1377.87    0.000004  (  0.001487   0.001066   0.001008)
  22:      1378.06    0.000051  ( -0.002714  -0.004672  -0.004668)
  23:      1431.23   12.013907  ( -1.938282   2.653842   1.101858)
  24:      1431.40   12.014378  ( -2.737236  -1.298840  -1.683726)
  25:      3023.22    0.001351  (  0.029573  -0.021494  -0.003844)
  26:      3023.30    0.000123  ( -0.007337  -0.007489  -0.003680)
  27:      3048.97  215.709458  ( 13.487098   1.986240   5.464658)
  28:      3048.98  215.771116  (  4.478468 -12.362563  -6.548395)
  29:      3074.00    0.000800  (  0.023538   0.008823   0.012953)

The first frequency considered to be a vibration is 6
The total number of vibrations considered is 24


--------------------------
THERMOCHEMISTRY AT 298.15K
--------------------------

Temperature         ... 298.15 K
Pressure            ... 1.00 atm
Total Mass          ... 65.09 AMU

Throughout the following assumptions are being made:
  (1) The electronic state is orbitally nondegenerate
  (2) There are no thermally accessible electronically excited states
  (3) Hindered rotations indicated by low frequency modes are not
      treated as such but are treated as vibrations and this may
      cause some error
  (4) All equations used are the standard statistical mechanics
      equations for an ideal gas
  (5) All vibrations are strictly harmonic

freq.     589.06  E(vib)   ...       0.10 
freq.     589.29  E(vib)   ...       0.10 
freq.     603.69  E(vib)   ...       0.10 
freq.     603.72  E(vib)   ...       0.10 
freq.     643.24  E(vib)   ...       0.09 
freq.     761.57  E(vib)   ...       0.06 
freq.     761.61  E(vib)   ...       0.06 
freq.     803.09  E(vib)   ...       0.05 
freq.     803.15  E(vib)   ...       0.05 
freq.     985.06  E(vib)   ...       0.02 
freq.     985.12  E(vib)   ...       0.02 
freq.    1022.63  E(vib)   ...       0.02 
freq.    1022.70  E(vib)   ...       0.02 
freq.    1124.34  E(vib)   ...       0.01 
freq.    1220.38  E(vib)   ...       0.01 
freq.    1377.87  E(vib)   ...       0.01 
freq.    1378.06  E(vib)   ...       0.01 
freq.    1431.23  E(vib)   ...       0.00 
freq.    1431.40  E(vib)   ...       0.00 
freq.    3023.22  E(vib)   ...       0.00 
freq.    3023.30  E(vib)   ...       0.00 
freq.    3048.97  E(vib)   ...       0.00 
freq.    3048.98  E(vib)   ...       0.00 
freq.    3074.00  E(vib)   ...       0.00 

------------
INNER ENERGY
------------

The inner energy is: U= E(el) + E(ZPE) + E(vib) + E(rot) + E(trans)
    E(el)   - is the total energy from the electronic structure calculation
              = E(kin-el) + E(nuc-el) + E(el-el) + E(nuc-nuc)
    E(ZPE)  - the the zero temperature vibrational energy from the frequency calculation
    E(vib)  - the the finite temperature correction to E(ZPE) due to population
              of excited vibrational states
    E(rot)  - is the rotational thermal energy
    E(trans)- is the translational thermal energy

Summary of contributions to the inner energy U:
Electronic energy                ...   -193.33143214 Eh
Zero point energy                ...      0.07598987 Eh      47.68 kcal/mol
Thermal vibrational correction   ...      0.00133417 Eh       0.84 kcal/mol
Thermal rotational correction    ...      0.00141627 Eh       0.89 kcal/mol
Thermal translational correction ...      0.00141627 Eh       0.89 kcal/mol
-----------------------------------------------------------------------
Total thermal energy                   -193.25127555 Eh


Summary of corrections to the electronic energy:
(perhaps to be used in another calculation)
Total thermal correction                  0.00416671 Eh       2.61 kcal/mol
Non-thermal (ZPE) correction              0.07598987 Eh      47.68 kcal/mol
-----------------------------------------------------------------------
Total correction                          0.08015658 Eh      50.30 kcal/mol


--------
ENTHALPY
--------

The enthalpy is H = U + kB*T
                kB is Boltzmann's constant
Total free energy                 ...   -193.25127555 Eh 
Thermal Enthalpy correction       ...      0.00094421 Eh       0.59 kcal/mol
-----------------------------------------------------------------------
Total Enthalpy                    ...   -193.25033135 Eh


Note: Only C1 symmetry has been detected, increase convergence thresholds 
      if your molecule has a higher symmetry. Symmetry factor of 1.0 is   
      used for the rotational entropy correction. 
 

Note: Rotational entropy computed according to Herzberg 
Infrared and Raman Spectra, Chapter V,1, Van Nostrand Reinhold, 1945 
Point Group:  C1, Symmetry Number:   1  
Rotational constants in cm-1:     0.291014     0.291010     0.145506 

Vibrational entropy computed according to the QRRHO of S. Grimme
Chem.Eur.J. 2012 18 9955


-------
ENTROPY
-------

The entropy contributions are T*S = T*(S(el)+S(vib)+S(rot)+S(trans))
     S(el)   - electronic entropy
     S(vib)  - vibrational entropy
     S(rot)  - rotational entropy
     S(trans)- translational entropy
The entropies will be listed as mutliplied by the temperature to get
units of energy

Electronic entropy                ...      0.00000000 Eh      0.00 kcal/mol
Vibrational entropy               ...      0.00172692 Eh      1.08 kcal/mol
Rotational entropy                ...      0.01158627 Eh      7.27 kcal/mol
Translational entropy             ...      0.01826321 Eh     11.46 kcal/mol
-----------------------------------------------------------------------
Final entropy term                ...      0.03157640 Eh     19.81 kcal/mol

In case the symmetry of your molecule has not been determined correctly
or in case you have a reason to use a different symmetry number we print 
out the resulting rotational entropy values for sn=1,12 :
 --------------------------------------------------------
|  sn= 1 | S(rot)=       0.01158627 Eh      7.27 kcal/mol|
|  sn= 2 | S(rot)=       0.01093181 Eh      6.86 kcal/mol|
|  sn= 3 | S(rot)=       0.01054898 Eh      6.62 kcal/mol|
|  sn= 4 | S(rot)=       0.01027736 Eh      6.45 kcal/mol|
|  sn= 5 | S(rot)=       0.01006667 Eh      6.32 kcal/mol|
|  sn= 6 | S(rot)=       0.00989453 Eh      6.21 kcal/mol|
|  sn= 7 | S(rot)=       0.00974898 Eh      6.12 kcal/mol|
|  sn= 8 | S(rot)=       0.00962290 Eh      6.04 kcal/mol|
|  sn= 9 | S(rot)=       0.00951169 Eh      5.97 kcal/mol|
|  sn=10 | S(rot)=       0.00941221 Eh      5.91 kcal/mol|
|  sn=11 | S(rot)=       0.00932222 Eh      5.85 kcal/mol|
|  sn=12 | S(rot)=       0.00924007 Eh      5.80 kcal/mol|
 --------------------------------------------------------


-------------------
GIBBS FREE ENERGY
-------------------

The Gibbs free energy is G = H - T*S

Total enthalpy                    ...   -193.25033135 Eh 
Total entropy correction          ...     -0.03157640 Eh    -19.81 kcal/mol
-----------------------------------------------------------------------
Final Gibbs free energy         ...   -193.28190774 Eh

For completeness - the Gibbs free energy minus the electronic energy
G-E(el)                           ...      0.04952439 Eh     31.08 kcal/mol


Timings for individual modules:

Sum of individual times         ...       94.267 sec (=   1.571 min)
GTO integral calculation        ...        4.896 sec (=   0.082 min)   5.2 %
SCF iterations                  ...       50.105 sec (=   0.835 min)  53.2 %
SCF Gradient evaluation         ...       13.629 sec (=   0.227 min)  14.5 %
Geometry relaxation             ...        0.298 sec (=   0.005 min)   0.3 %
Analytical frequency calculation...       25.338 sec (=   0.422 min)  26.9 %
                             ****ORCA TERMINATED NORMALLY****
TOTAL RUN TIME: 0 days 0 hours 1 minutes 35 seconds 365 msec
