
                                 *****************
                                 * O   R   C   A *
                                 *****************

           --- An Ab Initio, DFT and Semiempirical electronic structure package ---

                  #######################################################
                  #                        -***-                        #
                  #          Department of theory and spectroscopy      #
                  #               Directorship: Frank Neese             #
                  #        Max Planck Institute fuer Kohlenforschung    #
                  #                Kaiser Wilhelm Platz 1               #
                  #                 D-45470 Muelheim/Ruhr               #
                  #                      Germany                        #
                  #                                                     #
                  #                  All rights reserved                #
                  #                        -***-                        #
                  #######################################################


                         Program Version 4.2.1 -  RELEASE  -


 With contributions from (in alphabetic order):
   Daniel Aravena         : Magnetic Suceptibility
   Michael Atanasov       : Ab Initio Ligand Field Theory (pilot matlab implementation)
   Alexander A. Auer      : GIAO ZORA, VPT2
   Ute Becker             : Parallelization
   Giovanni Bistoni       : ED, misc. LED, open-shell LED, HFLD
   Martin Brehm           : Molecular dynamics
   Dmytro Bykov           : SCF Hessian
   Vijay G. Chilkuri      : MRCI spin determinant printing, contributions to CSF-ICE
   Dipayan Datta          : RHF DLPNO-CCSD density
   Achintya Kumar Dutta   : EOM-CC, STEOM-CC
   Dmitry Ganyushin       : Spin-Orbit,Spin-Spin,Magnetic field MRCI
   Miquel Garcia          : C-PCM Hessian, Gaussian charge scheme
   Yang Guo               : DLPNO-NEVPT2, CIM, IAO-localization
   Andreas Hansen         : Spin unrestricted coupled pair/coupled cluster methods
   Benjamin Helmich-Paris : CASSCF linear response (MC-RPA)
   Lee Huntington         : MR-EOM, pCC
   Robert Izsak           : Overlap fitted RIJCOSX, COSX-SCS-MP3, EOM
   Christian Kollmar      : KDIIS, OOCD, Brueckner-CCSD(T), CCSD density
   Simone Kossmann        : Meta GGA functionals, TD-DFT gradient, OOMP2, MP2 Hessian
   Martin Krupicka        : AUTO-CI
   Lucas Lang             : DCDCAS
   Dagmar Lenk            : GEPOL surface, SMD
   Dimitrios Liakos       : Extrapolation schemes; Compound Job, initial MDCI parallelization
   Dimitrios Manganas     : Further ROCIS development; embedding schemes
   Dimitrios Pantazis     : SARC Basis sets
   Taras Petrenko         : DFT Hessian,TD-DFT gradient, ASA, ECA, R-Raman, ABS, FL, XAS/XES, NRVS
   Peter Pinski           : DLPNO-MP2, DLPNO-MP2 Gradient
   Christoph Reimann      : Effective Core Potentials
   Marius Retegan         : Local ZFS, SOC
   Christoph Riplinger    : Optimizer, TS searches, QM/MM, DLPNO-CCSD(T), (RO)-DLPNO pert. Triples
   Tobias Risthaus        : Range-separated hybrids, TD-DFT gradient, RPA, STAB
   Michael Roemelt        : Original ROCIS implementation
   Masaaki Saitow         : Open-shell DLPNO-CCSD energy and density
   Barbara Sandhoefer     : DKH picture change effects
   Avijit Sen             : IP-ROCIS
   Kantharuban Sivalingam : CASSCF convergence, NEVPT2, FIC-MRCI
   Bernardo de Souza      : ESD, SOC TD-DFT
   Georgi Stoychev        : AutoAux, RI-MP2 NMR
   Willem Van den Heuvel  : Paramagnetic NMR
   Boris Wezisla          : Elementary symmetry handling
   Frank Wennmohs         : Technical directorship


 We gratefully acknowledge several colleagues who have allowed us to
 interface, adapt or use parts of their codes:
   Stefan Grimme, W. Hujo, H. Kruse,             : VdW corrections, initial TS optimization,
                  C. Bannwarth                     DFT functionals, gCP, sTDA/sTD-DF
   Ed Valeev, F. Pavosevic, A. Kumar             : LibInt (2-el integral package), F12 methods
   Garnet Chan, S. Sharma, J. Yang, R. Olivares  : DMRG
   Ulf Ekstrom                                   : XCFun DFT Library
   Mihaly Kallay                                 : mrcc  (arbitrary order and MRCC methods)
   Andreas Klamt, Michael Diedenhofen            : otool_cosmo (COSMO solvation model)
   Jiri Pittner, Ondrej Demel                    : Mk-CCSD
   Frank Weinhold                                : gennbo (NPA and NBO analysis)
   Christopher J. Cramer and Donald G. Truhlar   : smd solvation model
   Lars Goerigk                                  : TD-DFT with DH, B97 family of functionals
   V. Asgeirsson, H. Jonsson                     : NEB implementation
   FAccTs GmbH                                   : IRC, NEB, NEB-TS, Multilevel, MM, QM/MM, CI optimization
   S Lehtola, MJT Oliveira, MAL Marques          : LibXC Library


 Your calculation uses the libint2 library for the computation of 2-el integrals
 For citations please refer to: http://libint.valeyev.net

 Your ORCA version has been built with support for libXC version: 4.2.3
 For citations please refer to: https://tddft.org/programs/libxc/

 This ORCA versions uses:
   CBLAS   interface :  Fast vector & matrix operations
   LAPACKE interface :  Fast linear algebra routines
   SCALAPACK package :  Parallel linear algebra routines


Your calculation utilizes the atom-pairwise dispersion correction
with the Becke-Johnson damping scheme (D3BJ)
Cite in your paper:
S.Grimme, S.Ehrlich, L.Goerigk, J Comput Chem, (2011), 32, 1456–1465 
S.Grimme, J.Antony, S.Ehrlich and H.Krieg, J.Chem.Phys., 132, (2010), 154104 
   

Your calculation employs the composite approach B97-3c by Grimme and coworkers.
For the correct reference, please check the publication list of the Grimme group:
http://www.thch.uni-bonn.de/tc/index.php?section=publikationen&subsection=grimme#2017
   

XCFun DFT library Copyright 2009-2010 Ulf Ekstrom and contributors.
See http://admol.org/xcfun for more information. This is free soft-
ware; see the source code for copying conditions. There is ABSOLUTELY
NO WARRANTY; not even for MERCHANTABILITY or FITNESS FOR A PARTICULAR
PURPOSE. For details see the documentation. Scientific users of this 
library should cite U. Ekstrom, L. Visscher, R. Bast, A. J. Thorvald-
sen and K. Ruud; J.Chem.Theor.Comp. 2010, DOI: 10.1021/ct100117s
XCFun Version 0.99 
----- Orbital basis set information -----
Your calculation utilizes the basis: def2-mTZVP
----- AuxJ basis set information -----
Your calculation utilizes the basis: def2-mTZVP/J
================================================================================
                                        WARNINGS
                       Please study these warnings very carefully!
================================================================================


WARNING: Geometry Optimization
  ===> : Switching off AutoStart
         For restart on a previous wavefunction, please use MOREAD

INFO   : the flag for use of LIBINT has been found!

================================================================================
                                       INPUT FILE
================================================================================
NAME = diborane.inp
|  1> ! B97-3c Opt Freq TightOpt TightSCF
|  2> 
|  3> %pal
|  4>  nprocs 4
|  5> end
|  6> 
|  7> *xyz 0 1
|  8> B       -2.8929579330      0.0312918323      0.0389223902                 
|  9> H       -3.4399707802      0.0166878064      1.1111251110                 
| 10> H       -3.7349894195      0.1615403304     -0.8114151476                 
| 11> B       -1.1711297258     -0.1120580466     -0.2361035221                 
| 12> H       -0.3290924695     -0.2423066853      0.6142275141                 
| 13> H       -0.6241250323     -0.0974530100     -1.3083103595                 
| 14> H       -1.9405626056      0.9431837658     -0.0385194380                 
| 15> H       -2.1235245737     -1.0239503794     -0.1586558855                 
| 16> *
| 17> 
| 18>                          ****END OF INPUT****
================================================================================

                       *****************************
                       * Geometry Optimization Run *
                       *****************************

Geometry optimization settings:
Update method            Update   .... BFGS
Choice of coordinates    CoordSys .... Z-matrix Internals
Initial Hessian          InHess   .... Almoef's Model

Convergence Tolerances:
Energy Change            TolE     ....  1.0000e-06 Eh
Max. Gradient            TolMAXG  ....  1.0000e-04 Eh/bohr
RMS Gradient             TolRMSG  ....  3.0000e-05 Eh/bohr
Max. Displacement        TolMAXD  ....  1.0000e-03 bohr
RMS Displacement         TolRMSD  ....  6.0000e-04 bohr
Strict Convergence                ....  False
------------------------------------------------------------------------------
                        ORCA OPTIMIZATION COORDINATE SETUP
------------------------------------------------------------------------------

The optimization will be done in new redundant internal coordinates
Making redundant internal coordinates   ...  (new redundants) done
Evaluating the initial hessian          ...  (Almloef) done
Evaluating the coordinates              ...  done
Calculating the B-matrix                .... done
Calculating the G-matrix                .... done
Diagonalizing the G-matrix              .... done
The first mode is                       ....   39
The number of degrees of freedom        ....   18

    -----------------------------------------------------------------
                    Redundant Internal Coordinates


    -----------------------------------------------------------------
         Definition                    Initial Value    Approx d2E/dq
    -----------------------------------------------------------------
      1. B(H   1,B   0)                  1.2038         0.274620   
      2. B(H   2,B   0)                  1.2038         0.274620   
      3. B(B   3,B   0)                  1.7495         0.223746   
      4. B(H   4,B   3)                  1.2038         0.274621   
      5. B(H   5,B   3)                  1.2038         0.274620   
      6. B(H   6,B   3)                  1.3208         0.178632   
      7. B(H   6,B   0)                  1.3208         0.178633   
      8. B(H   7,B   3)                  1.3208         0.178632   
      9. B(H   7,B   0)                  1.3208         0.178633   
     10. A(H   2,B   0,H   7)          112.8462         0.255957   
     11. A(H   2,B   0,B   3)          125.8906         0.293382   
     12. A(H   1,B   0,H   2)          108.2185         0.273025   
     13. A(B   3,B   0,H   7)           48.5256         0.274425   
     14. A(H   1,B   0,H   7)          112.8462         0.255957   
     15. A(H   1,B   0,H   6)          112.8462         0.255957   
     16. A(H   2,B   0,H   6)          112.8462         0.255957   
     17. A(H   1,B   0,B   3)          125.8910         0.293382   
     18. A(B   3,B   0,H   6)           48.5256         0.274425   
     19. A(H   6,B   0,H   7)           97.0512         0.240472   
     20. A(H   4,B   3,H   5)          108.2185         0.273026   
     21. A(H   5,B   3,H   6)          112.8462         0.255957   
     22. A(H   4,B   3,H   6)          112.8462         0.255957   
     23. A(B   0,B   3,H   5)          125.8905         0.293382   
     24. A(H   5,B   3,H   7)          112.8462         0.255957   
     25. A(B   0,B   3,H   6)           48.5256         0.274425   
     26. A(H   4,B   3,H   7)          112.8462         0.255957   
     27. A(B   0,B   3,H   7)           48.5256         0.274425   
     28. A(B   0,B   3,H   4)          125.8910         0.293382   
     29. A(H   6,B   3,H   7)           97.0512         0.240471   
     30. A(B   0,H   6,B   3)           82.9488         0.240472   
     31. A(B   0,H   7,B   3)           82.9488         0.240472   
     32. D(H   4,B   3,B   0,H   7)    -89.9998         0.003967   
     33. D(H   5,B   3,B   0,H   7)     90.0002         0.003967   
     34. D(H   6,B   3,B   0,H   2)     90.0002         0.003967   
     35. D(H   6,B   3,B   0,H   1)    -89.9998         0.003967   
     36. D(H   4,B   3,B   0,H   2)   -180.0000         0.003967   
     37. D(H   6,B   3,B   0,H   7)   -179.9997         0.003967   
     38. D(H   5,B   3,B   0,H   2)      0.0000         0.003967   
     39. D(H   5,B   3,B   0,H   1)   -180.0000         0.003967   
     40. D(H   7,B   3,B   0,H   2)    -90.0002         0.003967   
     41. D(H   4,B   3,B   0,H   1)      0.0000         0.003967   
     42. D(H   4,B   3,B   0,H   6)     89.9998         0.003967   
     43. D(H   7,B   3,B   0,H   1)     89.9998         0.003967   
     44. D(H   7,B   3,B   0,H   6)    179.9997         0.003967   
     45. D(H   5,B   3,B   0,H   6)    -90.0002         0.003967   
     46. D(B   3,H   6,B   0,H   1)    118.4661         0.020318   
     47. D(B   0,H   6,B   3,H   7)     -0.0003         0.020318   
     48. D(B   0,H   6,B   3,H   5)    118.4655         0.020318   
     49. D(B   0,H   6,B   3,H   4)   -118.4661         0.020318   
     50. D(B   3,H   6,B   0,H   7)      0.0003         0.020318   
     51. D(B   3,H   6,B   0,H   2)   -118.4656         0.020318   
     52. D(B   0,H   7,B   3,H   6)      0.0003         0.020318   
     53. D(B   0,H   7,B   3,H   5)   -118.4655         0.020318   
     54. D(B   0,H   7,B   3,H   4)    118.4661         0.020318   
     55. D(B   3,H   7,B   0,H   6)     -0.0003         0.020318   
     56. D(B   3,H   7,B   0,H   2)    118.4656         0.020318   
     57. D(B   3,H   7,B   0,H   1)   -118.4661         0.020318   
    -----------------------------------------------------------------

Number of atoms                         .... 8
Number of degrees of freedom            .... 57

         *************************************************************
         *                GEOMETRY OPTIMIZATION CYCLE   1            *
         *************************************************************
---------------------------------
CARTESIAN COORDINATES (ANGSTROEM)
---------------------------------
  B     -2.892958    0.031292    0.038922
  H     -3.439971    0.016688    1.111125
  H     -3.734989    0.161540   -0.811415
  B     -1.171130   -0.112058   -0.236104
  H     -0.329092   -0.242307    0.614228
  H     -0.624125   -0.097453   -1.308310
  H     -1.940563    0.943184   -0.038519
  H     -2.123525   -1.023950   -0.158656

----------------------------
CARTESIAN COORDINATES (A.U.)
----------------------------
  NO LB      ZA    FRAG     MASS         X           Y           Z
   0 B     5.0000    0    10.810   -5.466898    0.059133    0.073553
   1 H     1.0000    0     1.008   -6.500603    0.031535    2.099722
   2 H     1.0000    0     1.008   -7.058107    0.305267   -1.533352
   3 B     5.0000    0    10.810   -2.213114   -0.211759   -0.446171
   4 H     1.0000    0     1.008   -0.621895   -0.457893    1.160722
   5 H     1.0000    0     1.008   -1.179425   -0.184159   -2.472348
   6 H     1.0000    0     1.008   -3.667132    1.782359   -0.072791
   7 H     1.0000    0     1.008   -4.012880   -1.934986   -0.299816

--------------------------------
INTERNAL COORDINATES (ANGSTROEM)
--------------------------------
 B      0   0   0     0.000000000000     0.00000000     0.00000000
 H      1   0   0     1.203767006968     0.00000000     0.00000000
 H      1   2   0     1.203767263098   108.21847130     0.00000000
 B      1   2   3     1.749537314643   125.89097666   180.00000121
 H      4   1   2     1.203766721589   125.89096503     0.00000000
 H      4   1   2     1.203766980762   125.89053926   180.00000085
 H      1   2   3     1.320833447029   112.84624102   125.60654243
 H      1   2   3     1.320833447027   112.84624105   234.39345760

---------------------------
INTERNAL COORDINATES (A.U.)
---------------------------
 B      0   0   0     0.000000000000     0.00000000     0.00000000
 H      1   0   0     2.274789972220     0.00000000     0.00000000
 H      1   2   0     2.274790456235   108.21847130     0.00000000
 B      1   2   3     3.306146385750   125.89097666   180.00000121
 H      4   1   2     2.274789432932   125.89096503     0.00000000
 H      4   1   2     2.274789922697   125.89053926   180.00000085
 H      1   2   3     2.496013483408   112.84624102   125.60654243
 H      1   2   3     2.496013483405   112.84624105   234.39345760

---------------------
BASIS SET INFORMATION
---------------------
There are 2 groups of distinct atoms

 Group   1 Type B   : 11s6p1d contracted to 5s3p1d pattern {62111/411/1}
 Group   2 Type H   : 5s contracted to 3s pattern {311}

Atom   0B    basis set group =>   1
Atom   1H    basis set group =>   2
Atom   2H    basis set group =>   2
Atom   3B    basis set group =>   1
Atom   4H    basis set group =>   2
Atom   5H    basis set group =>   2
Atom   6H    basis set group =>   2
Atom   7H    basis set group =>   2
---------------------------------
AUXILIARY/J BASIS SET INFORMATION
---------------------------------
There are 2 groups of distinct atoms

 Group   1 Type B   : 8s3p3d contracted to 6s3p3d pattern {311111/111/111}
 Group   2 Type H   : 5s2p contracted to 3s1p pattern {311/2}

Atom   0B    basis set group =>   1
Atom   1H    basis set group =>   2
Atom   2H    basis set group =>   2
Atom   3B    basis set group =>   1
Atom   4H    basis set group =>   2
Atom   5H    basis set group =>   2
Atom   6H    basis set group =>   2
Atom   7H    basis set group =>   2


           ************************************************************
           *        Program running with 4 parallel MPI-processes     *
           *              working on a common directory               *
           ************************************************************
------------------------------------------------------------------------------
                           ORCA GTO INTEGRAL CALCULATION
                           -- RI-GTO INTEGRALS CHOSEN --
------------------------------------------------------------------------------

                         BASIS SET STATISTICS AND STARTUP INFO

Gaussian basis set:
 # of primitive gaussian shells          ...   66
 # of primitive gaussian functions       ...   98
 # of contracted shells                  ...   36
 # of contracted basis functions         ...   56
 Highest angular momentum                ...    2
 Maximum contraction depth               ...    6
Auxiliary gaussian basis set:
 # of primitive gaussian shells          ...   70
 # of primitive gaussian functions       ...  130
 # of contracted shells                  ...   48
 # of contracted aux-basis functions     ...   96
 Highest angular momentum                ...    2
 Maximum contraction depth               ...    3
Ratio of auxiliary to basis functions    ...  1.71
Integral package used                  ... LIBINT
 One Electron integrals                  ... done
 Ordering auxiliary basis shells         ... done
 Integral threshhold             Thresh  ...  2.500e-11
 Primitive cut-off               TCut    ...  2.500e-12
 Pre-screening matrix                    ... done
 Shell pair data                         ... 
 Ordering of the shell pairs             ... done (   0.000 sec) 663 of 666 pairs
 Determination of significant pairs      ... done (   0.000 sec)
 Creation of shell pair data             ... done (   0.000 sec)
 Storage of shell pair data              ... done (   0.019 sec)
 Shell pair data done in (   0.020 sec)
 Computing two index integrals           ... done
 Cholesky decomposition of the V-matrix  ... done


Timings:
 Total evaluation time                   ...   0.156 sec (  0.003 min)
 One electron matrix time                ...   0.016 sec (  0.000 min) = 10.4%
 Schwartz matrix evaluation time         ...   0.091 sec (  0.002 min) = 58.2%
 Two index repulsion integral time       ...   0.000 sec (  0.000 min) =  0.3%
 Cholesky decomposition of V             ...   0.013 sec (  0.000 min) =  8.3%
 Three index repulsion integral time     ...   0.000 sec (  0.000 min) =  0.0%



           ************************************************************
           *        Program running with 4 parallel MPI-processes     *
           *              working on a common directory               *
           ************************************************************
-------------------------------------------------------------------------------
                                 ORCA SCF
-------------------------------------------------------------------------------

------------
SCF SETTINGS
------------
Hamiltonian:
 Density Functional     Method          .... DFT(GTOs)
 Exchange Functional    Exchange        .... B973C
 Correlation Functional Correlation     .... B973C
 Gradients option       PostSCFGGA      .... off
   Density functional embedding theory  .... OFF
 RI-approximation to the Coulomb term is turned on
   Number of auxiliary basis functions  .... 96


General Settings:
 Integral files         IntName         .... diborane
 Hartree-Fock type      HFTyp           .... RHF
 Total Charge           Charge          ....    0
 Multiplicity           Mult            ....    1
 Number of Electrons    NEL             ....   16
 Basis Dimension        Dim             ....   56
 Nuclear Repulsion      ENuc            ....     31.8141186408 Eh

Convergence Acceleration:
 DIIS                   CNVDIIS         .... on
   Start iteration      DIISMaxIt       ....    12
   Startup error        DIISStart       ....  0.200000
   # of expansion vecs  DIISMaxEq       ....     5
   Bias factor          DIISBfac        ....   1.050
   Max. coefficient     DIISMaxC        ....  10.000
 Newton-Raphson         CNVNR           .... off
 SOSCF                  CNVSOSCF        .... on
   Start iteration      SOSCFMaxIt      ....   150
   Startup grad/error   SOSCFStart      ....  0.003300
 Level Shifting         CNVShift        .... on
   Level shift para.    LevelShift      ....    0.2500
   Turn off err/grad.   ShiftErr        ....    0.0010
 Zerner damping         CNVZerner       .... off
 Static damping         CNVDamp         .... on
   Fraction old density DampFac         ....    0.7000
   Max. Damping (<1)    DampMax         ....    0.9800
   Min. Damping (>=0)   DampMin         ....    0.0000
   Turn off err/grad.   DampErr         ....    0.1000
 Fernandez-Rico         CNVRico         .... off

SCF Procedure:
 Maximum # iterations   MaxIter         ....   125
 SCF integral mode      SCFMode         .... Direct
   Integral package                     .... LIBINT
 Reset frequency        DirectResetFreq ....    20
 Integral Threshold     Thresh          ....  2.500e-11 Eh
 Primitive CutOff       TCut            ....  2.500e-12 Eh

Convergence Tolerance:
 Convergence Check Mode ConvCheckMode   .... Total+1el-Energy
 Convergence forced     ConvForced      .... 0
 Energy Change          TolE            ....  1.000e-08 Eh
 1-El. energy change                    ....  1.000e-05 Eh
 Orbital Gradient       TolG            ....  1.000e-05
 Orbital Rotation angle TolX            ....  1.000e-05
 DIIS Error             TolErr          ....  5.000e-07


Diagonalization of the overlap matrix:
Smallest eigenvalue                        ... 1.375e-03
Time for diagonalization                   ...    0.073 sec
Threshold for overlap eigenvalues          ... 1.000e-08
Number of eigenvalues below threshold      ... 0
Time for construction of square roots      ...    0.005 sec
Total time needed                          ...    0.078 sec

--------------------------------
INITIAL GUESS: MINIMAL BASIS EHT
--------------------------------
The minimal basis has 16 functions
EHT matrix was diagonalized
Basis set overlap was calculated now projecting the orbitals
Using GuessMode=FMatrix for the initial guess
C*T matrix was formed
Effective Fockian was calculated
Effective Fockian was diagonalized
Initial density was built
                      ------------------
                      INITIAL GUESS DONE
                      ------------------
-------------------
DFT GRID GENERATION
-------------------

General Integration Accuracy     IntAcc      ...  4.340
Radial Grid Type                 RadialGrid  ... Gauss-Chebyshev
Angular Grid (max. acc.)         AngularGrid ... Lebedev-194
Angular grid pruning method      GridPruning ... 3 (G Style)
Weight generation scheme         WeightScheme... Becke
Basis function cutoff            BFCut       ...    1.0000e-11
Integration weight cutoff        WCut        ...    1.0000e-14
Grids for H and He will be reduced by one unit

# of grid points (after initial pruning)     ...  15728 (   0.0 sec)
# of grid points (after weights+screening)   ...  15016 (   0.0 sec)
nearest neighbour list constructed           ...    0.0 sec
Grid point re-assignment to atoms done       ...    0.0 sec
Grid point division into batches done        ...    0.0 sec
Reduced shell lists constructed in    0.1 sec

Total number of grid points                  ...    15016
Total number of batches                      ...      240
Average number of points per batch           ...       62
Average number of grid points per atom       ...     1877
Average number of shells per batch           ...    28.16 (78.23%)
Average number of basis functions per batch  ...    45.11 (80.56%)
Average number of large shells per batch     ...    25.15 (89.29%)
Average number of large basis fcns per batch ...    40.98 (90.84%)
Maximum spatial batch extension              ...  21.52, 25.34, 21.86 au
Average spatial batch extension              ...   1.11,  1.28,  1.12 au

Time for grid setup =    0.079 sec

--------------
SCF ITERATIONS
--------------
ITER       Energy         Delta-E        Max-DP      RMS-DP      [F,P]     Damp
               ***  Starting incremental Fock matrix formation  ***
  0    -52.9404817889   0.000000000000 0.04582711  0.00413608  0.3589763 0.7000
  1    -53.0403404475  -0.099858658605 0.03526403  0.00310096  0.2574994 0.7000
                               ***Turning on DIIS***
  2    -53.0989540913  -0.058613643837 0.02133383  0.00193409  0.1836521 0.7000
  3    -53.1361160276  -0.037161936313 0.01226740  0.00110782  0.1298835 0.7000
  4    -53.1618928923  -0.025776864699 0.02770512  0.00242813  0.0900244 0.0000
  5    -53.2212165008  -0.059323608486 0.00610602  0.00035154  0.0056127 0.0000
                      *** Initiating the SOSCF procedure ***
                           *** Shutting down DIIS ***
                      *** Re-Reading the Fockian *** 
                      *** Removing any level shift *** 
ITER      Energy       Delta-E        Grad      Rot      Max-DP    RMS-DP
  6    -53.22137760  -0.0001610981  0.000513  0.000513  0.001203  0.000065
               *** Restarting incremental Fock matrix formation ***
  7    -53.22138831  -0.0000107078  0.000285  0.000700  0.000477  0.000046
  8    -53.22138824   0.0000000651  0.000252  0.000292  0.000234  0.000020
  9    -53.22138898  -0.0000007420  0.000007  0.000009  0.000014  0.000001
 10    -53.22138898   0.0000000003  0.000003  0.000003  0.000005  0.000000
                 **** Energy Check signals convergence ****
              ***Rediagonalizing the Fockian in SOSCF/NRSCF***

               *****************************************************
               *                     SUCCESS                       *
               *           SCF CONVERGED AFTER  11 CYCLES          *
               *****************************************************

Setting up the final grid:

General Integration Accuracy     IntAcc      ...  4.670
Radial Grid Type                 RadialGrid  ... Gauss-Chebyshev
Angular Grid (max. acc.)         AngularGrid ... Lebedev-302
Angular grid pruning method      GridPruning ... 3 (G Style)
Weight generation scheme         WeightScheme... Becke
Basis function cutoff            BFCut       ...    1.0000e-11
Integration weight cutoff        WCut        ...    1.0000e-14
Grids for H and He will be reduced by one unit

# of grid points (after initial pruning)     ...  32620 (   0.0 sec)
# of grid points (after weights+screening)   ...  30954 (   0.0 sec)
nearest neighbour list constructed           ...    0.0 sec
Grid point re-assignment to atoms done       ...    0.0 sec
Grid point division into batches done        ...    0.1 sec
Reduced shell lists constructed in    0.2 sec

Total number of grid points                  ...    30954
Total number of batches                      ...      486
Average number of points per batch           ...       63
Average number of grid points per atom       ...     3869
Average number of shells per batch           ...    27.07 (75.20%)
Average number of basis functions per batch  ...    43.48 (77.64%)
Average number of large shells per batch     ...    23.89 (88.23%)
Average number of large basis fcns per batch ...    39.01 (89.72%)
Maximum spatial batch extension              ...  21.83, 24.39, 20.19 au
Average spatial batch extension              ...   0.99,  1.06,  0.98 au

Final grid set up in    0.3 sec
Final integration                            ... done (   0.1 sec)
Change in XC energy                          ...     0.000023494
Integrated number of electrons               ...    15.999998245
Previous integrated no of electrons          ...    15.999641165

----------------
TOTAL SCF ENERGY
----------------

Total Energy       :          -53.22136549 Eh           -1448.22698 eV

Components:
Nuclear Repulsion  :           31.81411864 Eh             865.70618 eV
Electronic Energy  :          -85.03548413 Eh           -2313.93316 eV
One Electron Energy:         -131.77342332 Eh           -3585.73714 eV
Two Electron Energy:           46.73793919 Eh            1271.80398 eV

Virial components:
Potential Energy   :         -106.08085580 Eh           -2886.60684 eV
Kinetic Energy     :           52.85949031 Eh            1438.37986 eV
Virial Ratio       :            2.00684598


DFT components:
N(Alpha)           :        7.999999122452 electrons
N(Beta)            :        7.999999122452 electrons
N(Total)           :       15.999998244904 electrons
E(XC)              :      -10.261717031786 Eh       
DFET-embed. en.    :        0.000000000000 Eh       

---------------
SCF CONVERGENCE
---------------

  Last Energy change         ...   -9.6109e-10  Tolerance :   1.0000e-08
  Last MAX-Density change    ...    2.5158e-07  Tolerance :   1.0000e-07
  Last RMS-Density change    ...    1.7329e-08  Tolerance :   5.0000e-09
  Last Orbital Gradient      ...    2.0206e-07  Tolerance :   1.0000e-05
  Last Orbital Rotation      ...    8.7459e-08  Tolerance :   1.0000e-05

             **** THE GBW FILE WAS UPDATED (diborane.gbw) ****
             **** DENSITY FILE WAS UPDATED (diborane.scfp) ****
             **** ENERGY FILE WAS UPDATED (diborane.en.tmp) ****
             **** THE GBW FILE WAS UPDATED (diborane.gbw) ****
             **** DENSITY FILE WAS UPDATED (diborane.scfp) ****
----------------
ORBITAL ENERGIES
----------------

  NO   OCC          E(Eh)            E(eV) 
   0   2.0000      -6.538652      -177.9258 
   1   2.0000      -6.538456      -177.9204 
   2   2.0000      -0.613439       -16.6925 
   3   2.0000      -0.420838       -11.4516 
   4   2.0000      -0.397802       -10.8247 
   5   2.0000      -0.354587        -9.6488 
   6   2.0000      -0.328656        -8.9432 
   7   2.0000      -0.275886        -7.5072 
   8   0.0000      -0.066245        -1.8026 
   9   0.0000       0.018372         0.4999 
  10   0.0000       0.059739         1.6256 
  11   0.0000       0.063751         1.7348 
  12   0.0000       0.066681         1.8145 
  13   0.0000       0.078171         2.1271 
  14   0.0000       0.101649         2.7660 
  15   0.0000       0.102859         2.7989 
  16   0.0000       0.130347         3.5469 
  17   0.0000       0.130700         3.5565 
  18   0.0000       0.165244         4.4965 
  19   0.0000       0.166079         4.5192 
  20   0.0000       0.201828         5.4920 
  21   0.0000       0.241171         6.5626 
  22   0.0000       0.273210         7.4344 
  23   0.0000       0.283088         7.7032 
  24   0.0000       0.398946        10.8559 
  25   0.0000       0.399661        10.8753 
  26   0.0000       0.404809        11.0154 
  27   0.0000       0.507337        13.8053 
  28   0.0000       0.542586        14.7645 
  29   0.0000       0.601169        16.3586 
  30   0.0000       0.746029        20.3005 
  31   0.0000       0.749469        20.3941 
  32   0.0000       0.817758        22.2523 
  33   0.0000       0.834573        22.7099 
  34   0.0000       0.857039        23.3212 
  35   0.0000       0.873679        23.7740 
  36   0.0000       0.878527        23.9059 
  37   0.0000       0.943525        25.6746 
  38   0.0000       1.341230        36.4967 
  39   0.0000       1.429256        38.8920 
  40   0.0000       1.449140        39.4331 
  41   0.0000       1.580207        42.9996 
  42   0.0000       1.633631        44.4534 
  43   0.0000       1.674306        45.5602 
  44   0.0000       1.709759        46.5249 
  45   0.0000       1.786158        48.6038 
  46   0.0000       1.881030        51.1854 
  47   0.0000       2.264094        61.6091 
  48   0.0000       2.435868        66.2833 
  49   0.0000       2.454432        66.7885 
  50   0.0000       2.456840        66.8540 
  51   0.0000       2.461574        66.9828 
  52   0.0000       2.534920        68.9787 
  53   0.0000       2.716693        73.9250 
  54   0.0000      13.254217       360.6656 
  55   0.0000      13.402210       364.6927 

                    ********************************
                    * MULLIKEN POPULATION ANALYSIS *
                    ********************************

-----------------------
MULLIKEN ATOMIC CHARGES
-----------------------
   0 B :   -0.328050
   1 H :    0.081159
   2 H :    0.081077
   3 B :   -0.328049
   4 H :    0.081077
   5 H :    0.081159
   6 H :    0.165813
   7 H :    0.165813
Sum of atomic charges:   -0.0000000

--------------------------------
MULLIKEN REDUCED ORBITAL CHARGES
--------------------------------
  0 B s       :     3.151887  s :     3.151887
      pz      :     1.004320  p :     2.137952
      px      :     0.696017
      py      :     0.437615
      dz2     :     0.010108  d :     0.038211
      dxz     :     0.010460
      dyz     :     0.000606
      dx2y2   :     0.002329
      dxy     :     0.014709
  1 H s       :     0.918841  s :     0.918841
  2 H s       :     0.918923  s :     0.918923
  3 B s       :     3.151887  s :     3.151887
      pz      :     1.004319  p :     2.137952
      px      :     0.696018
      py      :     0.437615
      dz2     :     0.010108  d :     0.038211
      dxz     :     0.010460
      dyz     :     0.000606
      dx2y2   :     0.002329
      dxy     :     0.014709
  4 H s       :     0.918923  s :     0.918923
  5 H s       :     0.918841  s :     0.918841
  6 H s       :     0.834187  s :     0.834187
  7 H s       :     0.834187  s :     0.834187


                     *******************************
                     * LOEWDIN POPULATION ANALYSIS *
                     *******************************

----------------------
LOEWDIN ATOMIC CHARGES
----------------------
   0 B :   -0.303131
   1 H :    0.058824
   2 H :    0.058862
   3 B :   -0.303131
   4 H :    0.058862
   5 H :    0.058824
   6 H :    0.185445
   7 H :    0.185445

-------------------------------
LOEWDIN REDUCED ORBITAL CHARGES
-------------------------------
  0 B s       :     2.820879  s :     2.820879
      pz      :     1.055515  p :     2.418497
      px      :     0.839723
      py      :     0.523260
      dz2     :     0.016015  d :     0.063755
      dxz     :     0.018159
      dyz     :     0.000996
      dx2y2   :     0.003836
      dxy     :     0.024749
  1 H s       :     0.941176  s :     0.941176
  2 H s       :     0.941138  s :     0.941138
  3 B s       :     2.820879  s :     2.820879
      pz      :     1.055514  p :     2.418497
      px      :     0.839723
      py      :     0.523260
      dz2     :     0.016015  d :     0.063755
      dxz     :     0.018159
      dyz     :     0.000996
      dx2y2   :     0.003836
      dxy     :     0.024749
  4 H s       :     0.941138  s :     0.941138
  5 H s       :     0.941176  s :     0.941176
  6 H s       :     0.814555  s :     0.814555
  7 H s       :     0.814555  s :     0.814555


                      *****************************
                      * MAYER POPULATION ANALYSIS *
                      *****************************

  NA   - Mulliken gross atomic population
  ZA   - Total nuclear charge
  QA   - Mulliken gross atomic charge
  VA   - Mayer's total valence
  BVA  - Mayer's bonded valence
  FA   - Mayer's free valence

  ATOM       NA         ZA         QA         VA         BVA        FA
  0 B      5.3280     5.0000    -0.3280     3.5538     3.5538    -0.0000
  1 H      0.9188     1.0000     0.0812     0.9522     0.9522    -0.0000
  2 H      0.9189     1.0000     0.0811     0.9526     0.9526    -0.0000
  3 B      5.3280     5.0000    -0.3280     3.5538     3.5538    -0.0000
  4 H      0.9189     1.0000     0.0811     0.9526     0.9526    -0.0000
  5 H      0.9188     1.0000     0.0812     0.9522     0.9522    -0.0000
  6 H      0.8342     1.0000     0.1658     0.8952     0.8952    -0.0000
  7 H      0.8342     1.0000     0.1658     0.8952     0.8952    -0.0000

  Mayer bond orders larger than 0.100000
B(  0-B ,  1-H ) :   0.9688 B(  0-B ,  2-H ) :   0.9679 B(  0-B ,  3-B ) :   0.7059 
B(  0-B ,  6-H ) :   0.4479 B(  0-B ,  7-H ) :   0.4470 B(  3-B ,  4-H ) :   0.9679 
B(  3-B ,  5-H ) :   0.9688 B(  3-B ,  6-H ) :   0.4470 B(  3-B ,  7-H ) :   0.4479 


-------
TIMINGS
-------

Total SCF time: 0 days 0 hours 0 min 3 sec 

Total time                  ....       3.823 sec
Sum of individual times     ....       3.521 sec  ( 92.1%)

Fock matrix formation       ....       2.908 sec  ( 76.1%)
  Split-RI-J                ....       1.655 sec  ( 56.9% of F)
  XC integration            ....       1.037 sec  ( 35.7% of F)
    Basis function eval.    ....       0.244 sec  ( 23.5% of XC)
    Density eval.           ....       0.185 sec  ( 17.9% of XC)
    XC-Functional eval.     ....       0.232 sec  ( 22.4% of XC)
    XC-Potential eval.      ....       0.124 sec  ( 12.0% of XC)
Diagonalization             ....       0.036 sec  (  1.0%)
Density matrix formation    ....       0.103 sec  (  2.7%)
Population analysis         ....       0.015 sec  (  0.4%)
Initial guess               ....       0.009 sec  (  0.2%)
Orbital Transformation      ....       0.000 sec  (  0.0%)
Orbital Orthonormalization  ....       0.000 sec  (  0.0%)
DIIS solution               ....       0.006 sec  (  0.2%)
SOSCF solution              ....       0.064 sec  (  1.7%)
Grid generation             ....       0.380 sec  (  9.9%)


-------------------------------------------------------------------------------
                          DFT DISPERSION CORRECTION                            
                                                                               
                              DFTD3 V3.1  Rev 1                                
                          USING Becke-Johnson damping                          
-------------------------------------------------------------------------------
The B97-3c composite method is recognized
Using three-body term ABC
Active option DFTDOPT                   ...         4   

molecular C6(AA) [au] = 446.055554 


            DFT-D V3
 parameters
 s6 scaling factor         :     1.0000 
 a1 scaling factor         :     0.3700 
 s8 scaling factor         :     1.5000 
 a2 scaling factor         :     4.1000 
 Damping factor alpha9(ATM):    16.0000 
 ad hoc parameters k1-k3   :    16.0000     1.3333    -4.0000 

 Edisp/kcal,au: -5.173990838026  -0.008245278358 
 E6   /kcal   :  -2.685921954 
 E8   /kcal   :  -2.488642402 
 E6(ABC)      :   0.000573518 
 % E8         :  48.099087909 
 % E6(ABC)    :  -0.011084630 

-------------------------   ----------------
Dispersion correction           -0.008245278
-------------------------   ----------------

------------------   -----------------
SRB correction            -0.011527386
------------------   -----------------

-------------------------   --------------------
FINAL SINGLE POINT ENERGY       -53.241138154551
-------------------------   --------------------



           ************************************************************
           *        Program running with 4 parallel MPI-processes     *
           *              working on a common directory               *
           ************************************************************
------------------------------------------------------------------------------
                         ORCA SCF GRADIENT CALCULATION
------------------------------------------------------------------------------

Gradient of the Kohn-Sham DFT energy:
Kohn-Sham wavefunction type      ... RKS
Hartree-Fock exchange scaling    ...    0.000
Number of operators              ...    1
Number of atoms                  ...    8
Basis set dimensions             ...   56
Integral neglect threshold       ... 2.5e-11
Integral primitive cutoff        ... 2.5e-12

Nuclear repulsion gradient       ... done
One Electron Gradient            ... done
Pre-screening matrix             ... done
RI-J gradient                    ... done
Exchange-correlation gradient    ... done
Dispersion correction            ... done
SRB correction                   ... done

------------------
CARTESIAN GRADIENT
------------------

   1   B   :    0.016160854   -0.001335066   -0.002676000
   2   H   :   -0.014635575    0.001404374   -0.000783322
   3   H   :   -0.013630786    0.000939433    0.005410683
   4   B   :   -0.016160550    0.001335005    0.002676531
   5   H   :    0.013630686   -0.000939403   -0.005411009
   6   H   :    0.014635444   -0.001404352    0.000783166
   7   H   :    0.000254013    0.002568228    0.000183741
   8   H   :   -0.000254085   -0.002568220   -0.000183789

Difference to translation invariance:
           :   -0.0000000000    0.0000000000    0.0000000000

Norm of the cartesian gradient     ...    0.0376708816
RMS gradient                       ...    0.0076895365
MAX gradient                       ...    0.0161608535

-------
TIMINGS
-------

Total SCF gradient time            ...        0.844 sec

One electron gradient       ....       0.028 sec  (  3.3%)
Prescreening matrices       ....       0.091 sec  ( 10.8%)
RI-J Coulomb gradient       ....       0.164 sec  ( 19.5%)
XC gradient                 ....       0.328 sec  ( 38.9%)
------------------------------------------------------------------------------
                         ORCA GEOMETRY RELAXATION STEP
------------------------------------------------------------------------------

Reading the OPT-File                    .... done
Getting information on internals        .... done
Copying old internal coords+grads       .... done
Making the new internal coordinates     .... (new redundants).... done
Validating the new internal coordinates .... (new redundants).... done
Calculating the B-matrix                .... done
Calculating the G,G- and P matrices     .... done
Transforming gradient to internals      .... done
Projecting the internal gradient        .... done
Number of atoms                         ....   8
Number of internal coordinates          ....  57
Current Energy                          ....   -53.241138155 Eh
Current gradient norm                   ....     0.037670882 Eh/bohr
Maximum allowed component of the step   ....  0.300
Current trust radius                    ....  0.300
Evaluating the initial hessian          ....  (Almloef) done
Projecting the Hessian                  .... done
Forming the augmented Hessian           .... done
Diagonalizing the augmented Hessian     .... done
Last element of RFO vector              ....  0.989746206
Lowest eigenvalues of augmented Hessian:
 -0.004381173  0.027897347  0.034706754  0.043157915  0.044518605
Length of the computed step             ....  0.144316930
The final length of the internal step   ....  0.144316930
Converting the step to cartesian space:
 Initial RMS(Int)=    0.0191152444
Transforming coordinates:
 Iter   0:  RMS(Cart)=    0.0331650577 RMS(Int)=    0.8324489510
 Iter   1:  RMS(Cart)=    0.0004378526 RMS(Int)=    0.0002863467
 Iter   2:  RMS(Cart)=    0.0000112800 RMS(Int)=    0.0000075535
 Iter   3:  RMS(Cart)=    0.0000003722 RMS(Int)=    0.0000002423
 Iter   4:  RMS(Cart)=    0.0000000092 RMS(Int)=    0.0000000062
done
Storing new coordinates                 .... done

                                .--------------------.
          ----------------------|Geometry convergence|-------------------------
          Item                value                   Tolerance       Converged
          ---------------------------------------------------------------------
          RMS gradient        0.0040679459            0.0000300000      NO
          MAX gradient        0.0117461708            0.0001000000      NO
          RMS step            0.0191152444            0.0006000000      NO
          MAX step            0.0573891990            0.0010000000      NO
          ........................................................
          Max(Bonds)      0.0129      Max(Angles)    3.29
          Max(Dihed)        1.45      Max(Improp)    0.00
          ---------------------------------------------------------------------

The optimization has not yet converged - more geometry cycles are needed


    ---------------------------------------------------------------------------
                         Redundant Internal Coordinates
                            (Angstroem and degrees)

        Definition                    Value    dE/dq     Step     New-Value
    ----------------------------------------------------------------------------
     1. B(H   1,B   0)                1.2038  0.005932 -0.0113    1.1925   
     2. B(H   2,B   0)                1.2038  0.005818 -0.0110    1.1927   
     3. B(B   3,B   0)                1.7495  0.006429 -0.0129    1.7366   
     4. B(H   4,B   3)                1.2038  0.005818 -0.0110    1.1927   
     5. B(H   5,B   3)                1.2038  0.005932 -0.0113    1.1925   
     6. B(H   6,B   3)                1.3208  0.002910 -0.0092    1.3116   
     7. B(H   6,B   0)                1.3208  0.002919 -0.0093    1.3116   
     8. B(H   7,B   3)                1.3208  0.002919 -0.0093    1.3116   
     9. B(H   7,B   0)                1.3208  0.002910 -0.0092    1.3116   
    10. A(H   2,B   0,H   7)          112.85  0.003743   -0.96    111.88   
    11. A(H   2,B   0,B   3)          125.89  0.005874   -1.64    124.25   
    12. A(H   1,B   0,H   2)          108.22 -0.011746    3.29    111.51   
    13. A(B   3,B   0,H   7)           48.53 -0.000684    0.02     48.54   
    14. A(H   1,B   0,H   7)          112.85  0.003747   -0.97    111.88   
    15. A(H   1,B   0,H   6)          112.85  0.003745   -0.96    111.88   
    16. A(H   2,B   0,H   6)          112.85  0.003752   -0.97    111.88   
    17. A(H   1,B   0,B   3)          125.89  0.005872   -1.64    124.25   
    18. A(B   3,B   0,H   6)           48.53 -0.000689    0.02     48.55   
    19. A(H   6,B   0,H   7)           97.05 -0.001373    0.04     97.09   
    20. A(H   4,B   3,H   5)          108.22 -0.011746    3.29    111.51   
    21. A(H   5,B   3,H   6)          112.85  0.003747   -0.97    111.88   
    22. A(H   4,B   3,H   6)          112.85  0.003743   -0.96    111.88   
    23. A(B   0,B   3,H   5)          125.89  0.005872   -1.64    124.25   
    24. A(H   5,B   3,H   7)          112.85  0.003744   -0.96    111.88   
    25. A(B   0,B   3,H   6)           48.53 -0.000684    0.02     48.54   
    26. A(H   4,B   3,H   7)          112.85  0.003752   -0.97    111.88   
    27. A(B   0,B   3,H   7)           48.53 -0.000689    0.02     48.55   
    28. A(B   0,B   3,H   4)          125.89  0.005874   -1.64    124.25   
    29. A(H   6,B   3,H   7)           97.05 -0.001373    0.04     97.09   
    30. A(B   0,H   6,B   3)           82.95  0.001373   -0.04     82.91   
    31. A(B   0,H   7,B   3)           82.95  0.001373   -0.04     82.91   
    32. D(H   4,B   3,B   0,H   7)    -90.00 -0.000006    0.00    -90.00   
    33. D(H   5,B   3,B   0,H   7)     90.00 -0.000004    0.00     90.00   
    34. D(H   6,B   3,B   0,H   2)     90.00  0.000005   -0.00     90.00   
    35. D(H   6,B   3,B   0,H   1)    -90.00  0.000004   -0.00    -90.00   
    36. D(H   4,B   3,B   0,H   2)   -180.00 -0.000000    0.00   -180.00   
    37. D(H   6,B   3,B   0,H   7)   -180.00 -0.000000   -0.00   -180.00   
    38. D(H   5,B   3,B   0,H   2)      0.00  0.000002   -0.00     -0.00   
    39. D(H   5,B   3,B   0,H   1)   -180.00  0.000000   -0.00   -180.00   
    40. D(H   7,B   3,B   0,H   2)    -90.00  0.000006   -0.00    -90.00   
    41. D(H   4,B   3,B   0,H   1)      0.00 -0.000002    0.00      0.00   
    42. D(H   4,B   3,B   0,H   6)     90.00 -0.000005    0.00     90.00   
    43. D(H   7,B   3,B   0,H   1)     90.00  0.000004   -0.00     90.00   
    44. D(H   7,B   3,B   0,H   6)    180.00  0.000000    0.00    180.00   
    45. D(H   5,B   3,B   0,H   6)    -90.00 -0.000004    0.00    -90.00   
    46. D(B   3,H   6,B   0,H   1)    118.47  0.004927   -1.44    117.02   
    47. D(B   0,H   6,B   3,H   7)     -0.00  0.000000    0.00     -0.00   
    48. D(B   0,H   6,B   3,H   5)    118.47  0.004925   -1.44    117.02   
    49. D(B   0,H   6,B   3,H   4)   -118.47 -0.004932    1.45   -117.02   
    50. D(B   3,H   6,B   0,H   7)      0.00 -0.000000   -0.00      0.00   
    51. D(B   3,H   6,B   0,H   2)   -118.47 -0.004925    1.44   -117.02   
    52. D(B   0,H   7,B   3,H   6)      0.00 -0.000000   -0.00      0.00   
    53. D(B   0,H   7,B   3,H   5)   -118.47 -0.004927    1.44   -117.02   
    54. D(B   0,H   7,B   3,H   4)    118.47  0.004925   -1.44    117.03   
    55. D(B   3,H   7,B   0,H   6)     -0.00  0.000000    0.00     -0.00   
    56. D(B   3,H   7,B   0,H   2)    118.47  0.004932   -1.45    117.02   
    57. D(B   3,H   7,B   0,H   1)   -118.47 -0.004925    1.44   -117.02   
    ----------------------------------------------------------------------------

         *************************************************************
         *                GEOMETRY OPTIMIZATION CYCLE   2            *
         *************************************************************
---------------------------------
CARTESIAN COORDINATES (ANGSTROEM)
---------------------------------
  B     -2.886615    0.030756    0.037931
  H     -3.397923    0.012522    1.115115
  H     -3.696317    0.159010   -0.828407
  B     -1.177473   -0.111523   -0.235113
  H     -0.367765   -0.239777    0.631220
  H     -0.666172   -0.093287   -1.312300
  H     -1.941207    0.936564   -0.038960
  H     -2.122880   -1.017331   -0.158216

----------------------------
CARTESIAN COORDINATES (A.U.)
----------------------------
  NO LB      ZA    FRAG     MASS         X           Y           Z
   0 B     5.0000    0    10.810   -5.454911    0.058121    0.071680
   1 H     1.0000    0     1.008   -6.421144    0.023663    2.107262
   2 H     1.0000    0     1.008   -6.985027    0.300486   -1.565463
   3 B     5.0000    0    10.810   -2.225102   -0.210747   -0.444299
   4 H     1.0000    0     1.008   -0.694975   -0.453112    1.192833
   5 H     1.0000    0     1.008   -1.258883   -0.176287   -2.479888
   6 H     1.0000    0     1.008   -3.668350    1.769850   -0.073623
   7 H     1.0000    0     1.008   -4.011662   -1.922477   -0.298985

--------------------------------
INTERNAL COORDINATES (ANGSTROEM)
--------------------------------
 B      0   0   0     0.000000000000     0.00000000     0.00000000
 H      1   0   0     1.192515856937     0.00000000     0.00000000
 H      1   2   0     1.192732068363   111.51051616     0.00000000
 B      1   2   3     1.736651907282   124.24538270   179.99800149
 H      4   1   2     1.192731939077   124.24448436     0.00000000
 H      4   1   2     1.192515875130   124.24498104   179.99999915
 H      1   2   3     1.311562208581   111.87484121   126.13446354
 H      4   1   2     1.311562398162    48.54417248    89.99746646

---------------------------
INTERNAL COORDINATES (A.U.)
---------------------------
 B      0   0   0     0.000000000000     0.00000000     0.00000000
 H      1   0   0     2.253528379970     0.00000000     0.00000000
 H      1   2   0     2.253936960352   111.51051616     0.00000000
 B      1   2   3     3.281796494716   124.24538270   179.99800149
 H      4   1   2     2.253936716036   124.24448436     0.00000000
 H      4   1   2     2.253528414350   124.24498104   179.99999915
 H      1   2   3     2.478493381819   111.87484121   126.13446354
 H      4   1   2     2.478493740076    48.54417248    89.99746646



           ************************************************************
           *        Program running with 4 parallel MPI-processes     *
           *              working on a common directory               *
           ************************************************************
 One Electron integrals                  ... done
 Pre-screening matrix                    ... done


           ************************************************************
           *        Program running with 4 parallel MPI-processes     *
           *              working on a common directory               *
           ************************************************************

Diagonalization of the overlap matrix:
Smallest eigenvalue                        ... 1.286e-03
Time for diagonalization                   ...    0.001 sec
Threshold for overlap eigenvalues          ... 1.000e-08
Number of eigenvalues below threshold      ... 0
Time for construction of square roots      ...    0.001 sec
Total time needed                          ...    0.002 sec

-------------------
DFT GRID GENERATION
-------------------

General Integration Accuracy     IntAcc      ...  4.340
Radial Grid Type                 RadialGrid  ... Gauss-Chebyshev
Angular Grid (max. acc.)         AngularGrid ... Lebedev-194
Angular grid pruning method      GridPruning ... 3 (G Style)
Weight generation scheme         WeightScheme... Becke
Basis function cutoff            BFCut       ...    1.0000e-11
Integration weight cutoff        WCut        ...    1.0000e-14
Grids for H and He will be reduced by one unit

# of grid points (after initial pruning)     ...  15728 (   0.0 sec)
# of grid points (after weights+screening)   ...  15002 (   0.0 sec)
nearest neighbour list constructed           ...    0.0 sec
Grid point re-assignment to atoms done       ...    0.0 sec
Grid point division into batches done        ...    0.0 sec
Reduced shell lists constructed in    0.0 sec

Total number of grid points                  ...    15002
Total number of batches                      ...      240
Average number of points per batch           ...       62
Average number of grid points per atom       ...     1875
Average number of shells per batch           ...    28.16 (78.23%)
Average number of basis functions per batch  ...    45.18 (80.68%)
Average number of large shells per batch     ...    25.30 (89.81%)
Average number of large basis fcns per batch ...    41.23 (91.26%)
Maximum spatial batch extension              ...  21.50, 25.34, 21.86 au
Average spatial batch extension              ...   1.13,  1.26,  1.13 au

Time for grid setup =    0.065 sec

--------------
SCF ITERATIONS
--------------
ITER       Energy         Delta-E        Max-DP      RMS-DP      [F,P]     Damp
               ***  Starting incremental Fock matrix formation  ***
  0    -53.2242655695   0.000000000000 0.00149605  0.00009955  0.0058711 0.7000
                      *** Initiating the SOSCF procedure ***
                      *** Re-Reading the Fockian *** 
                      *** Removing any level shift *** 
ITER      Energy       Delta-E        Grad      Rot      Max-DP    RMS-DP
  1    -53.22433030  -0.0000647267  0.000618  0.000618  0.004005  0.000286
               *** Restarting incremental Fock matrix formation ***
  2    -53.22443470  -0.0001044012  0.001148  0.002597  0.002633  0.000202
  3    -53.22443255   0.0000021506  0.001274  0.001448  0.001286  0.000102
  4    -53.22445222  -0.0000196773  0.000016  0.000018  0.000024  0.000002
                 **** Energy Check signals convergence ****
              ***Rediagonalizing the Fockian in SOSCF/NRSCF***

               *****************************************************
               *                     SUCCESS                       *
               *           SCF CONVERGED AFTER   5 CYCLES          *
               *****************************************************

Setting up the final grid:

General Integration Accuracy     IntAcc      ...  4.670
Radial Grid Type                 RadialGrid  ... Gauss-Chebyshev
Angular Grid (max. acc.)         AngularGrid ... Lebedev-302
Angular grid pruning method      GridPruning ... 3 (G Style)
Weight generation scheme         WeightScheme... Becke
Basis function cutoff            BFCut       ...    1.0000e-11
Integration weight cutoff        WCut        ...    1.0000e-14
Grids for H and He will be reduced by one unit

# of grid points (after initial pruning)     ...  32620 (   0.0 sec)
# of grid points (after weights+screening)   ...  30930 (   0.0 sec)
nearest neighbour list constructed           ...    0.0 sec
Grid point re-assignment to atoms done       ...    0.0 sec
Grid point division into batches done        ...    0.1 sec
Reduced shell lists constructed in    0.2 sec

Total number of grid points                  ...    30930
Total number of batches                      ...      488
Average number of points per batch           ...       63
Average number of grid points per atom       ...     3866
Average number of shells per batch           ...    27.15 (75.41%)
Average number of basis functions per batch  ...    43.62 (77.89%)
Average number of large shells per batch     ...    24.05 (88.59%)
Average number of large basis fcns per batch ...    39.40 (90.33%)
Maximum spatial batch extension              ...  21.80, 24.39, 20.19 au
Average spatial batch extension              ...   0.98,  1.05,  0.99 au

Final grid set up in    0.3 sec
Final integration                            ... done (   0.1 sec)
Change in XC energy                          ...     0.000008291
Integrated number of electrons               ...    16.000002416
Previous integrated no of electrons          ...    15.999744561
Total Energy       :          -53.22444394 Eh           -1448.31075 eV
  Last Energy change         ...   -3.1191e-09  Tolerance :   1.0000e-08
  Last MAX-Density change    ...    5.3127e-06  Tolerance :   1.0000e-07
             **** THE GBW FILE WAS UPDATED (diborane.gbw) ****
             **** DENSITY FILE WAS UPDATED (diborane.scfp) ****
             **** ENERGY FILE WAS UPDATED (diborane.en.tmp) ****
             **** THE GBW FILE WAS UPDATED (diborane.gbw) ****
             **** DENSITY FILE WAS UPDATED (diborane.scfp) ****
Total SCF time: 0 days 0 hours 0 min 1 sec 


-------------------------------------------------------------------------------
                          DFT DISPERSION CORRECTION                            
                                                                               
                              DFTD3 V3.1  Rev 1                                
                          USING Becke-Johnson damping                          
-------------------------------------------------------------------------------
-------------------------   ----------------
Dispersion correction           -0.008314418
-------------------------   ----------------

------------------   -----------------
SRB correction            -0.012016668
------------------   -----------------

-------------------------   --------------------
FINAL SINGLE POINT ENERGY       -53.244775023099
-------------------------   --------------------



           ************************************************************
           *        Program running with 4 parallel MPI-processes     *
           *              working on a common directory               *
           ************************************************************
------------------------------------------------------------------------------
                         ORCA SCF GRADIENT CALCULATION
------------------------------------------------------------------------------

Gradient of the Kohn-Sham DFT energy:
Kohn-Sham wavefunction type      ... RKS
Hartree-Fock exchange scaling    ...    0.000
Number of operators              ...    1
Number of atoms                  ...    8
Basis set dimensions             ...   56
Integral neglect threshold       ... 2.5e-11
Integral primitive cutoff        ... 2.5e-12

Nuclear repulsion gradient       ... done
One Electron Gradient            ... done
Pre-screening matrix             ... done
RI-J gradient                    ... done
Exchange-correlation gradient    ... done
Dispersion correction            ... done
SRB correction                   ... done

------------------
CARTESIAN GRADIENT
------------------

   1   B   :    0.012824140   -0.001063317   -0.002066706
   2   H   :   -0.009676265    0.001083073   -0.003080505
   3   H   :   -0.008297452    0.000412591    0.005981231
   4   B   :   -0.012823990    0.001063283    0.002067048
   5   H   :    0.008297459   -0.000412582   -0.005981390
   6   H   :    0.009676167   -0.001083056    0.003080377
   7   H   :    0.000061244    0.000527718    0.000059608
   8   H   :   -0.000061302   -0.000527710   -0.000059663

Difference to translation invariance:
           :   -0.0000000000    0.0000000000   -0.0000000000

Norm of the cartesian gradient     ...    0.0275401672
RMS gradient                       ...    0.0056216131
MAX gradient                       ...    0.0128241404

-------
TIMINGS
-------

Total SCF gradient time            ...        0.745 sec

One electron gradient       ....       0.013 sec  (  1.7%)
Prescreening matrices       ....       0.010 sec  (  1.4%)
RI-J Coulomb gradient       ....       0.131 sec  ( 17.5%)
XC gradient                 ....       0.301 sec  ( 40.4%)
------------------------------------------------------------------------------
                         ORCA GEOMETRY RELAXATION STEP
------------------------------------------------------------------------------

Reading the OPT-File                    .... done
Getting information on internals        .... done
Copying old internal coords+grads       .... done
Making the new internal coordinates     .... (new redundants).... done
Validating the new internal coordinates .... (new redundants).... done
Calculating the B-matrix                .... done
Calculating the G,G- and P matrices     .... done
Transforming gradient to internals      .... done
Projecting the internal gradient        .... done
Number of atoms                         ....   8
Number of internal coordinates          ....  57
Current Energy                          ....   -53.244775023 Eh
Current gradient norm                   ....     0.027540167 Eh/bohr
Maximum allowed component of the step   ....  0.300
Current trust radius                    ....  0.300
Updating the Hessian (BFGS)             .... done
Forming the augmented Hessian           .... done
Diagonalizing the augmented Hessian     .... done
Last element of RFO vector              ....  0.957072330
Lowest eigenvalues of augmented Hessian:
 -0.006189223  0.027897347  0.034706754  0.043157906  0.044518605
Length of the computed step             ....  0.302849833
Warning: the length of the step is outside the trust region - taking restricted step instead
The input lambda is                     ....    -0.006189
   iter:   1  x=   -0.006819  g=    2.728895 f(x)=     0.001718
   iter:   2  x=   -0.006828  g=    2.653551 f(x)=     0.000024
   iter:   3  x=   -0.006828  g=    2.652494 f(x)=     0.000000
   iter:   4  x=   -0.006828  g=    2.652494 f(x)=     0.000000
The output lambda is                    ....    -0.006828 (4 iterations)
The final length of the internal step   ....  0.300000000
Converting the step to cartesian space:
 Initial RMS(Int)=    0.0397359707
Transforming coordinates:
 Iter   0:  RMS(Cart)=    0.0651485421 RMS(Int)=    0.8331776798
 Iter   1:  RMS(Cart)=    0.0018965391 RMS(Int)=    0.0012524781
 Iter   2:  RMS(Cart)=    0.0001239463 RMS(Int)=    0.0000818123
 Iter   3:  RMS(Cart)=    0.0000079068 RMS(Int)=    0.0000052234
 Iter   4:  RMS(Cart)=    0.0000005154 RMS(Int)=    0.0000003400
 Iter   5:  RMS(Cart)=    0.0000000328 RMS(Int)=    0.0000000217
done
Storing new coordinates                 .... done

                                .--------------------.
          ----------------------|Geometry convergence|-------------------------
          Item                value                   Tolerance       Converged
          ---------------------------------------------------------------------
          Energy change      -0.0036368685            0.0000010000      NO
          RMS gradient        0.0027246531            0.0000300000      NO
          MAX gradient        0.0087820098            0.0001000000      NO
          RMS step            0.0397359707            0.0006000000      NO
          MAX step            0.1282229942            0.0010000000      NO
          ........................................................
          Max(Bonds)      0.0154      Max(Angles)    7.35
          Max(Dihed)        3.23      Max(Improp)    0.00
          ---------------------------------------------------------------------

The optimization has not yet converged - more geometry cycles are needed


    ---------------------------------------------------------------------------
                         Redundant Internal Coordinates
                            (Angstroem and degrees)

        Definition                    Value    dE/dq     Step     New-Value
    ----------------------------------------------------------------------------
     1. B(H   1,B   0)                1.1925  0.001345 -0.0095    1.1830   
     2. B(H   2,B   0)                1.1927  0.001337 -0.0094    1.1834   
     3. B(B   3,B   0)                1.7367  0.002788 -0.0154    1.7212   
     4. B(H   4,B   3)                1.1927  0.001337 -0.0094    1.1834   
     5. B(H   5,B   3)                1.1925  0.001345 -0.0095    1.1830   
     6. B(H   6,B   3)                1.3116  0.001007 -0.0118    1.2998   
     7. B(H   6,B   0)                1.3116  0.001013 -0.0118    1.2997   
     8. B(H   7,B   3)                1.3116  0.001013 -0.0118    1.2997   
     9. B(H   7,B   0)                1.3116  0.001007 -0.0118    1.2998   
    10. A(H   2,B   0,H   7)          111.88  0.002765   -2.14    109.73   
    11. A(H   2,B   0,B   3)          124.24  0.004394   -3.68    120.57   
    12. A(H   1,B   0,H   2)          111.51 -0.008782    7.35    118.86   
    13. A(B   3,B   0,H   7)           48.54 -0.000389   -0.01     48.54   
    14. A(H   1,B   0,H   7)          111.87  0.002767   -2.15    109.72   
    15. A(H   1,B   0,H   6)          111.87  0.002763   -2.14    109.73   
    16. A(H   2,B   0,H   6)          111.87  0.002773   -2.16    109.71   
    17. A(H   1,B   0,B   3)          124.25  0.004388   -3.67    120.58   
    18. A(B   3,B   0,H   6)           48.54 -0.000392   -0.00     48.54   
    19. A(H   6,B   0,H   7)           97.09 -0.000781   -0.01     97.08   
    20. A(H   4,B   3,H   5)          111.51 -0.008782    7.35    118.86   
    21. A(H   5,B   3,H   6)          111.87  0.002767   -2.15    109.72   
    22. A(H   4,B   3,H   6)          111.88  0.002765   -2.14    109.73   
    23. A(B   0,B   3,H   5)          124.24  0.004388   -3.67    120.57   
    24. A(H   5,B   3,H   7)          111.87  0.002763   -2.14    109.73   
    25. A(B   0,B   3,H   6)           48.54 -0.000389   -0.01     48.54   
    26. A(H   4,B   3,H   7)          111.87  0.002773   -2.16    109.71   
    27. A(B   0,B   3,H   7)           48.54 -0.000392   -0.00     48.54   
    28. A(B   0,B   3,H   4)          124.24  0.004394   -3.68    120.57   
    29. A(H   6,B   3,H   7)           97.09 -0.000781   -0.01     97.08   
    30. A(B   0,H   6,B   3)           82.91  0.000781    0.01     82.92   
    31. A(B   0,H   7,B   3)           82.91  0.000781    0.01     82.92   
    32. D(H   4,B   3,B   0,H   7)    -90.00 -0.000005    0.01    -89.98   
    33. D(H   5,B   3,B   0,H   7)     90.00 -0.000004    0.01     90.01   
    34. D(H   6,B   3,B   0,H   2)     90.00  0.000005   -0.01     89.98   
    35. D(H   6,B   3,B   0,H   1)    -90.00  0.000004   -0.01    -90.01   
    36. D(H   4,B   3,B   0,H   2)   -180.00  0.000000    0.00   -180.00   
    37. D(H   6,B   3,B   0,H   7)   -180.00 -0.000000   -0.00   -180.00   
    38. D(H   5,B   3,B   0,H   2)     -0.00  0.000001   -0.00     -0.01   
    39. D(H   5,B   3,B   0,H   1)    180.00 -0.000000    0.00    180.00   
    40. D(H   7,B   3,B   0,H   2)    -90.00  0.000005   -0.01    -90.02   
    41. D(H   4,B   3,B   0,H   1)      0.00 -0.000001    0.00      0.01   
    42. D(H   4,B   3,B   0,H   6)     90.00 -0.000005    0.01     90.02   
    43. D(H   7,B   3,B   0,H   1)     90.00  0.000004   -0.01     89.99   
    44. D(H   7,B   3,B   0,H   6)    180.00  0.000000    0.00    180.00   
    45. D(H   5,B   3,B   0,H   6)    -90.00 -0.000004    0.01    -89.99   
    46. D(B   3,H   6,B   0,H   1)    117.03  0.003680   -3.22    113.81   
    47. D(B   0,H   6,B   3,H   7)     -0.00  0.000000    0.00     -0.00   
    48. D(B   0,H   6,B   3,H   5)    117.03  0.003677   -3.22    113.81   
    49. D(B   0,H   6,B   3,H   4)   -117.03 -0.003687    3.23   -113.80   
    50. D(B   3,H   6,B   0,H   7)      0.00 -0.000000   -0.00      0.00   
    51. D(B   3,H   6,B   0,H   2)   -117.03 -0.003681    3.22   -113.81   
    52. D(B   0,H   7,B   3,H   6)      0.00 -0.000000   -0.00      0.00   
    53. D(B   0,H   7,B   3,H   5)   -117.03 -0.003680    3.22   -113.81   
    54. D(B   0,H   7,B   3,H   4)    117.03  0.003681   -3.22    113.81   
    55. D(B   3,H   7,B   0,H   6)     -0.00  0.000000    0.00     -0.00   
    56. D(B   3,H   7,B   0,H   2)    117.03  0.003687   -3.23    113.79   
    57. D(B   3,H   7,B   0,H   1)   -117.03 -0.003677    3.22   -113.81   
    ----------------------------------------------------------------------------

         *************************************************************
         *                GEOMETRY OPTIMIZATION CYCLE   3            *
         *************************************************************
---------------------------------
CARTESIAN COORDINATES (ANGSTROEM)
---------------------------------
  B     -2.879146    0.030123    0.036777
  H     -3.316993    0.003715    1.135500
  H     -3.625378    0.155208   -0.873070
  B     -1.184942   -0.110889   -0.233959
  H     -0.438705   -0.235974    0.675884
  H     -0.747101   -0.084480   -1.332684
  H     -1.942114    0.927447   -0.039610
  H     -2.121973   -1.008213   -0.157566

----------------------------
CARTESIAN COORDINATES (A.U.)
----------------------------
  NO LB      ZA    FRAG     MASS         X           Y           Z
   0 B     5.0000    0    10.810   -5.440797    0.056923    0.069498
   1 H     1.0000    0     1.008   -6.268209    0.007019    2.145783
   2 H     1.0000    0     1.008   -6.850972    0.293300   -1.649864
   3 B     5.0000    0    10.810   -2.239216   -0.209549   -0.442118
   4 H     1.0000    0     1.008   -0.829032   -0.445926    1.277236
   5 H     1.0000    0     1.008   -1.411816   -0.159644   -2.518408
   6 H     1.0000    0     1.008   -3.670064    1.752620   -0.074853
   7 H     1.0000    0     1.008   -4.009948   -1.905247   -0.297757

--------------------------------
INTERNAL COORDINATES (ANGSTROEM)
--------------------------------
 B      0   0   0     0.000000000000     0.00000000     0.00000000
 H      1   0   0     1.183046779254     0.00000000     0.00000000
 H      1   2   0     1.183355701089   118.88404987     0.00000000
 B      1   2   3     1.721484167390   120.56177481   179.99431682
 H      4   1   2     1.183355903930   120.55447521     0.00000000
 H      4   1   2     1.183046798014   120.56147137   180.00000000
 H      1   2   3     1.299636092877   109.68445947   127.26529722
 H      4   1   2     1.299636100371    48.52774056    89.99044557

---------------------------
INTERNAL COORDINATES (A.U.)
---------------------------
 B      0   0   0     0.000000000000     0.00000000     0.00000000
 H      1   0   0     2.235634416408     0.00000000     0.00000000
 H      1   2   0     2.236218194073   118.88404987     0.00000000
 B      1   2   3     3.253133620249   120.56177481   179.99431682
 H      4   1   2     2.236218577386   120.55447521     0.00000000
 H      4   1   2     2.235634451859   120.56147137   180.00000000
 H      1   2   3     2.455956289297   109.68445947   127.26529722
 H      4   1   2     2.455956303458    48.52774056    89.99044557



           ************************************************************
           *        Program running with 4 parallel MPI-processes     *
           *              working on a common directory               *
           ************************************************************
 One Electron integrals                  ... done
 Pre-screening matrix                    ... done


           ************************************************************
           *        Program running with 4 parallel MPI-processes     *
           *              working on a common directory               *
           ************************************************************

Diagonalization of the overlap matrix:
Smallest eigenvalue                        ... 1.148e-03
Time for diagonalization                   ...    0.001 sec
Threshold for overlap eigenvalues          ... 1.000e-08
Number of eigenvalues below threshold      ... 0
Time for construction of square roots      ...    0.001 sec
Total time needed                          ...    0.002 sec

-------------------
DFT GRID GENERATION
-------------------

General Integration Accuracy     IntAcc      ...  4.340
Radial Grid Type                 RadialGrid  ... Gauss-Chebyshev
Angular Grid (max. acc.)         AngularGrid ... Lebedev-194
Angular grid pruning method      GridPruning ... 3 (G Style)
Weight generation scheme         WeightScheme... Becke
Basis function cutoff            BFCut       ...    1.0000e-11
Integration weight cutoff        WCut        ...    1.0000e-14
Grids for H and He will be reduced by one unit

# of grid points (after initial pruning)     ...  15728 (   0.0 sec)
# of grid points (after weights+screening)   ...  15002 (   0.0 sec)
nearest neighbour list constructed           ...    0.0 sec
Grid point re-assignment to atoms done       ...    0.0 sec
Grid point division into batches done        ...    0.0 sec
Reduced shell lists constructed in    0.1 sec

Total number of grid points                  ...    15002
Total number of batches                      ...      240
Average number of points per batch           ...       62
Average number of grid points per atom       ...     1875
Average number of shells per batch           ...    28.28 (78.55%)
Average number of basis functions per batch  ...    45.23 (80.77%)
Average number of large shells per batch     ...    25.26 (89.33%)
Average number of large basis fcns per batch ...    41.23 (91.16%)
Maximum spatial batch extension              ...  21.47, 25.34, 20.51 au
Average spatial batch extension              ...   1.14,  1.26,  1.09 au

Time for grid setup =    0.083 sec

--------------
SCF ITERATIONS
--------------
ITER       Energy         Delta-E        Max-DP      RMS-DP      [F,P]     Damp
               ***  Starting incremental Fock matrix formation  ***
  0    -53.2267661141   0.000000000000 0.00243044  0.00017370  0.0099927 0.7000
                      *** Initiating the SOSCF procedure ***
                      *** Re-Reading the Fockian *** 
                      *** Removing any level shift *** 
ITER      Energy       Delta-E        Grad      Rot      Max-DP    RMS-DP
  1    -53.22696600  -0.0001998822  0.001096  0.001096  0.008168  0.000545
               *** Restarting incremental Fock matrix formation ***
  2    -53.22735602  -0.0003900256  0.001583  0.002878  0.003056  0.000290
  3    -53.22735874  -0.0000027134  0.001380  0.001499  0.001497  0.000131
  4    -53.22738801  -0.0000292759  0.000080  0.000122  0.000157  0.000012
  5    -53.22738807  -0.0000000618  0.000037  0.000040  0.000067  0.000004
                  ***Gradient check signals convergence***
              ***Rediagonalizing the Fockian in SOSCF/NRSCF***

               *****************************************************
               *                     SUCCESS                       *
               *           SCF CONVERGED AFTER   6 CYCLES          *
               *****************************************************

Setting up the final grid:

General Integration Accuracy     IntAcc      ...  4.670
Radial Grid Type                 RadialGrid  ... Gauss-Chebyshev
Angular Grid (max. acc.)         AngularGrid ... Lebedev-302
Angular grid pruning method      GridPruning ... 3 (G Style)
Weight generation scheme         WeightScheme... Becke
Basis function cutoff            BFCut       ...    1.0000e-11
Integration weight cutoff        WCut        ...    1.0000e-14
Grids for H and He will be reduced by one unit

# of grid points (after initial pruning)     ...  32620 (   0.0 sec)
# of grid points (after weights+screening)   ...  30932 (   0.0 sec)
nearest neighbour list constructed           ...    0.0 sec
Grid point re-assignment to atoms done       ...    0.0 sec
Grid point division into batches done        ...    0.1 sec
Reduced shell lists constructed in    0.2 sec

Total number of grid points                  ...    30932
Total number of batches                      ...      488
Average number of points per batch           ...       63
Average number of grid points per atom       ...     3866
Average number of shells per batch           ...    27.20 (75.56%)
Average number of basis functions per batch  ...    43.63 (77.90%)
Average number of large shells per batch     ...    24.23 (89.06%)
Average number of large basis fcns per batch ...    39.63 (90.83%)
Maximum spatial batch extension              ...  21.78, 24.39, 20.19 au
Average spatial batch extension              ...   0.98,  1.04,  0.96 au

Final grid set up in    0.3 sec
Final integration                            ... done (   0.1 sec)
Change in XC energy                          ...    -0.000000224
Integrated number of electrons               ...    16.000033467
Previous integrated no of electrons          ...    16.000016474
Total Energy       :          -53.22738832 Eh           -1448.39087 eV
  Last Energy change         ...   -1.8334e-08  Tolerance :   1.0000e-08
  Last MAX-Density change    ...    4.1640e-06  Tolerance :   1.0000e-07
             **** THE GBW FILE WAS UPDATED (diborane.gbw) ****
             **** DENSITY FILE WAS UPDATED (diborane.scfp) ****
             **** ENERGY FILE WAS UPDATED (diborane.en.tmp) ****
             **** THE GBW FILE WAS UPDATED (diborane.gbw) ****
             **** DENSITY FILE WAS UPDATED (diborane.scfp) ****
[...]
Basis set dimensions                             ...   56
Integral neglect threshold                       ... 2.5e-11
Integral primitive cutoff                        ... 2.5e-12

Setting up DFT Hessian calculations              ... 
Electron density on the grid                     ... found on disk
Electron density on the final grid               ... found on disk
Building xc-kernel on the grid                   ... done   (      0.1 sec)
Building xc-kernel on the final grid             ... done   (      0.0 sec)
                                                     done   (      0.1 sec)

Nuclear repulsion Hessian                        ... done   (      0.0 sec)

----------------------------------------------
Forming right-hand sides of CP-SCF equations     ...
----------------------------------------------
One electron integral derivatives                ... done   (      0.1 sec)
Transforming the overlap derivative matrices     ... done   (      0.0 sec)
Making the Q(x) pseudodensities                  ... done   (      0.0 sec)
Adding the E*S(x)*S(y) terms to the Hessian      ... done   (      0.0 sec)
Calculating energy weighted overlap derivatives  ... done   (      0.0 sec)
Two electron integral derivatives (RI)           ... done   (      0.2 sec)
Exchange-correlation integral derivatives        ... done   (      0.9 sec)
tr(F(y)Q(x)) contribution to the Hessian         ... done   (      0.0 sec)
Response fock operator R(S(x)) (RI)              ... done   (      0.2 sec)
XC Response fock operator R(S(x))                ... done   (      0.3 sec)
tr(F(y)S(x)) contribution to the Hessian         ... done   (      0.0 sec)
Transforming and finalizing RHSs                 ... done   (      0.0 sec)

----------------------------------------------
Solving the CP-SCF equations (RI)                ...
----------------------------------------------
     CP-SCF ITERATION   0: 
     CP-SCF ITERATION   1:      0.000191249191
     CP-SCF ITERATION   2:      0.000023203350
     CP-SCF ITERATION   3:      0.000000660594
     CP-SCF ITERATION   4:      0.000000010033
     CP-SCF ITERATION   5:      0.000000009820

                                                 ... done   (      2.4 sec)
Forming perturbed density Hessian contributions  ... done   (      0.0 sec)
Making the perturbed densities                   ... done   (      0.0 sec)
2nd integral derivative contribs (RI)            ... done   (      0.2 sec)
Exchange-correlation Hessian                     ... done   (      1.2 sec)
Dispersion correction in the Hessian             ... done   (      0.4 sec)
SRB correction in the Hessian                    ... done   (      0.0 sec)
Dipol derivatives                                ... done   (      0.1 sec)

Total SCF Hessian time: 0 days 0 hours 0 min 6 sec 

Writing the Hessian file to the disk             ... done


Maximum memory used throughout the entire calculation: 133.9 MB

-----------------------
VIBRATIONAL FREQUENCIES
-----------------------

Scaling factor for frequencies =  1.000000000  (already applied!)

   0:         0.00 cm**-1
   1:         0.00 cm**-1
   2:         0.00 cm**-1
   3:         0.00 cm**-1
   4:         0.00 cm**-1
   5:         0.00 cm**-1
   6:       323.07 cm**-1
   7:       792.08 cm**-1
   8:       844.12 cm**-1
   9:       906.31 cm**-1
  10:       918.63 cm**-1
  11:       929.66 cm**-1
  12:       978.30 cm**-1
  13:      1004.63 cm**-1
  14:      1176.90 cm**-1
  15:      1179.77 cm**-1
  16:      1708.13 cm**-1
  17:      1877.93 cm**-1
  18:      2012.67 cm**-1
  19:      2152.41 cm**-1
  20:      2563.73 cm**-1
  21:      2577.13 cm**-1
  22:      2652.31 cm**-1
  23:      2668.57 cm**-1


------------
NORMAL MODES
------------

These modes are the Cartesian displacements weighted by the diagonal matrix
M(i,i)=1/sqrt(m[i]) where m[i] is the mass of the displaced atom
Thus, these vectors are normalized but *not* orthogonal

                  0          1          2          3          4          5    
      0       0.000000   0.000000   0.000000   0.000000   0.000000   0.000000
      1       0.000000   0.000000   0.000000   0.000000   0.000000   0.000000
      2       0.000000   0.000000   0.000000   0.000000   0.000000   0.000000
      3       0.000000   0.000000   0.000000   0.000000   0.000000   0.000000
      4       0.000000   0.000000   0.000000   0.000000   0.000000   0.000000
      5       0.000000   0.000000   0.000000   0.000000   0.000000   0.000000
      6       0.000000   0.000000   0.000000   0.000000   0.000000   0.000000
      7       0.000000   0.000000   0.000000   0.000000   0.000000   0.000000
      8       0.000000   0.000000   0.000000   0.000000   0.000000   0.000000
      9       0.000000   0.000000   0.000000   0.000000   0.000000   0.000000
     10       0.000000   0.000000   0.000000   0.000000   0.000000   0.000000
     11       0.000000   0.000000   0.000000   0.000000   0.000000   0.000000
     12       0.000000   0.000000   0.000000   0.000000   0.000000   0.000000
     13       0.000000   0.000000   0.000000   0.000000   0.000000   0.000000
     14       0.000000   0.000000   0.000000   0.000000   0.000000   0.000000
     15       0.000000   0.000000   0.000000   0.000000   0.000000   0.000000
     16       0.000000   0.000000   0.000000   0.000000   0.000000   0.000000
     17       0.000000   0.000000   0.000000   0.000000   0.000000   0.000000
     18       0.000000   0.000000   0.000000   0.000000   0.000000   0.000000
     19       0.000000   0.000000   0.000000   0.000000   0.000000   0.000000
     20       0.000000   0.000000   0.000000   0.000000   0.000000   0.000000
     21       0.000000   0.000000   0.000000   0.000000   0.000000   0.000000
     22       0.000000   0.000000   0.000000   0.000000   0.000000   0.000000
     23       0.000000   0.000000   0.000000   0.000000   0.000000   0.000000
                  6          7          8          9         10         11    
      0      -0.001326  -0.412467  -0.000001  -0.014464  -0.010466  -0.021260
      1       0.000642   0.034357  -0.000309  -0.154277   0.005209   0.011284
      2      -0.008317   0.065621   0.000064  -0.010059  -0.068910  -0.141420
      3      -0.350621  -0.382192  -0.046755   0.046998   0.325402   0.483965
      4       0.040730   0.030258  -0.494900   0.483066  -0.035108  -0.049761
      5      -0.132378   0.083872  -0.030405   0.029674   0.062649   0.048231
      6       0.294559  -0.390707   0.046903   0.043027  -0.292161  -0.447667
      7      -0.013390   0.033831   0.498844   0.484342   0.017800   0.027219
      8      -0.235775   0.040122   0.030286   0.030617   0.162187   0.198117
      9      -0.001326   0.412467  -0.000002   0.014464  -0.010464   0.021260
     10       0.000642  -0.034357  -0.000310   0.154277   0.005208  -0.011284
     11      -0.008317  -0.065620   0.000064   0.010059  -0.068910   0.141419
     12       0.294558   0.390713   0.046903  -0.043027  -0.292159   0.447666
     13      -0.013389  -0.033831   0.498846  -0.484338   0.017800  -0.027218
     14      -0.235776  -0.040126   0.030286  -0.030617   0.162188  -0.198118
     15      -0.350622   0.382185  -0.046755  -0.046998   0.325405  -0.483965
     16       0.040730  -0.030258  -0.494898  -0.483070  -0.035108   0.049761
     17      -0.132377  -0.083874  -0.030405  -0.029674   0.062648  -0.048230
     18       0.070281  -0.011290  -0.000133   0.044595   0.078983  -0.000106
     19      -0.034222  -0.121546  -0.000630  -0.003600  -0.038551   0.000208
     20       0.457347  -0.007510  -0.000571  -0.008261   0.514166   0.000456
     21       0.070281   0.011289  -0.000132  -0.044595   0.078983   0.000106
     22      -0.034222   0.121547  -0.000630   0.003600  -0.038549  -0.000208
     23       0.457347   0.007505  -0.000571   0.008261   0.514166  -0.000455
                 12         13         14         15         16         17    
      0      -0.006901   0.000037   0.075911  -0.067198  -0.055191  -0.003729
      1      -0.073993   0.000204  -0.006314   0.005580   0.004586  -0.040150
      2      -0.004565  -0.000069  -0.012026   0.010512   0.008825  -0.002451
      3       0.044898  -0.025406  -0.452505   0.450767  -0.048785  -0.009348
      4       0.482200  -0.275281   0.054445  -0.054182   0.003923  -0.100833
      5       0.029425  -0.016806  -0.199936   0.200519   0.010118  -0.006107
      6       0.044490   0.025196  -0.369762   0.367771  -0.049545  -0.009332
      7       0.477709   0.274103   0.014082  -0.013854   0.004258  -0.100740
      8       0.029218   0.016919   0.330693  -0.330842   0.005574  -0.006108
      9      -0.006901  -0.000038   0.075912   0.067198  -0.055191   0.003729
     10      -0.073993  -0.000207  -0.006314  -0.005580   0.004586   0.040150
     11      -0.004565   0.000069  -0.012026  -0.010512   0.008825   0.002451
     12       0.044491  -0.025194  -0.369763  -0.367768  -0.049545   0.009332
     13       0.477720  -0.274087   0.014082   0.013854   0.004258   0.100740
     14       0.029219  -0.016918   0.330696   0.330841   0.005574   0.006108
     15       0.044897   0.025407  -0.452508  -0.450765  -0.048785   0.009348
     16       0.482190   0.275297   0.054445   0.054181   0.003923   0.100833
     17       0.029424   0.016807  -0.199935  -0.200517   0.010119   0.006107
     18      -0.015383  -0.089330   0.008179  -0.005962   0.690210   0.680267
     19      -0.166399   0.043673  -0.000810  -0.063684  -0.057359  -0.056624
     20      -0.009680  -0.580820  -0.001794  -0.003971  -0.110335  -0.108780
     21      -0.015386   0.089329   0.008179   0.005962   0.690210  -0.680267
     22      -0.166397  -0.043676  -0.000810   0.063684  -0.057359   0.056624
     23      -0.009701   0.580820  -0.001794   0.003972  -0.110335   0.108780
                 18         19         20         21         22         23    
      0       0.006996   0.018030  -0.043728   0.047766   0.011783  -0.011878
      1       0.075495  -0.001500   0.003668  -0.004016  -0.005917   0.005914
      2       0.004602  -0.002885   0.006669  -0.007181   0.078748  -0.078630
      3      -0.005338  -0.008078   0.167830  -0.172729   0.175735  -0.174719
      4      -0.057860   0.004396   0.012938  -0.012174   0.012211  -0.012263
      5      -0.003521  -0.059390  -0.467692   0.462796  -0.467721   0.467107
      6      -0.005276   0.010090   0.302291  -0.306548  -0.303748   0.303711
      7      -0.057845  -0.004524  -0.052392   0.052489   0.051892  -0.051983
      8      -0.003647   0.059087   0.396022  -0.391147  -0.385842   0.386928
      9       0.006996  -0.018030  -0.043728  -0.047766  -0.011783  -0.011878
     10       0.075495   0.001500   0.003668   0.004016   0.005917   0.005914
     11       0.004602   0.002885   0.006669   0.007181  -0.078748  -0.078630
     12      -0.005276  -0.010089   0.302293   0.306549   0.303748   0.303711
     13      -0.057845   0.004524  -0.052393  -0.052489  -0.051892  -0.051982
     14      -0.003647  -0.059087   0.396022   0.391146   0.385841   0.386926
     15      -0.005338   0.008077   0.167828   0.172727  -0.175735  -0.174718
     16      -0.057859  -0.004396   0.012938   0.012174  -0.012211  -0.012263
     17      -0.003521   0.059390  -0.467692  -0.462794   0.467723   0.467108
     18      -0.064411  -0.064836  -0.001171  -0.005645   0.000104  -0.001613
     19      -0.693921  -0.697448   0.000117  -0.060995   0.000349   0.000818
     20      -0.042183  -0.042451   0.000148  -0.003678   0.000029  -0.010793
     21      -0.064410   0.064836  -0.001171   0.005645  -0.000104  -0.001613
     22      -0.693921   0.697448   0.000117   0.060995  -0.000349   0.000817
     23      -0.042180   0.042449   0.000148   0.003678  -0.000029  -0.010793


-----------
IR SPECTRUM
-----------

 Mode    freq (cm**-1)   T**2         TX         TY         TZ
-------------------------------------------------------------------
   6:       323.07   14.401081  (  0.565122  -0.275090   3.742465)
   7:       792.08    0.000000  ( -0.000000   0.000000  -0.000002)
   8:       844.12    0.000201  (  0.004915  -0.013246   0.001226)
   9:       906.31    0.000000  ( -0.000000  -0.000000   0.000000)
  10:       918.63    0.421929  ( -0.088151   0.050488  -0.641568)
  11:       929.66    0.000000  (  0.000005  -0.000000  -0.000001)
  12:       978.30   12.724844  ( -0.325633  -3.545917  -0.212787)
  13:      1004.63    0.000000  ( -0.000007  -0.000077  -0.000005)
  14:      1176.90   67.456895  (  8.084877  -0.673939  -1.279634)
  15:      1179.77    0.000000  ( -0.000019   0.000002  -0.000004)
  16:      1708.13  410.728535  (-19.944429   1.665127   3.189928)
  17:      1877.93    0.000000  (  0.000001   0.000000  -0.000000)
  18:      2012.67    4.896472  (  0.208053   2.198799   0.135899)
  19:      2152.41    0.000000  ( -0.000001   0.000001  -0.000009)
  20:      2563.73  155.375922  (-12.274934   1.029574   1.908376)
  21:      2577.13    0.000000  (  0.000009  -0.000000  -0.000014)
  22:      2652.31    0.000000  (  0.000004   0.000000  -0.000011)
  23:      2668.57  191.458449  ( -2.037242   1.030681 -13.647190)

The first frequency considered to be a vibration is 6
The total number of vibrations considered is 18


--------------------------
THERMOCHEMISTRY AT 298.15K
--------------------------

Temperature         ... 298.15 K
Pressure            ... 1.00 atm
Total Mass          ... 27.67 AMU

Throughout the following assumptions are being made:
  (1) The electronic state is orbitally nondegenerate
  (2) There are no thermally accessible electronically excited states
  (3) Hindered rotations indicated by low frequency modes are not
      treated as such but are treated as vibrations and this may
      cause some error
  (4) All equations used are the standard statistical mechanics
      equations for an ideal gas
  (5) All vibrations are strictly harmonic

freq.     323.07  E(vib)   ...       0.25 
freq.     792.08  E(vib)   ...       0.05 
freq.     844.12  E(vib)   ...       0.04 
freq.     906.31  E(vib)   ...       0.03 
freq.     918.63  E(vib)   ...       0.03 
freq.     929.66  E(vib)   ...       0.03 
freq.     978.30  E(vib)   ...       0.03 
freq.    1004.63  E(vib)   ...       0.02 
freq.    1176.90  E(vib)   ...       0.01 
freq.    1179.77  E(vib)   ...       0.01 
freq.    1708.13  E(vib)   ...       0.00 
freq.    1877.93  E(vib)   ...       0.00 
freq.    2012.67  E(vib)   ...       0.00 
freq.    2152.41  E(vib)   ...       0.00 
freq.    2563.73  E(vib)   ...       0.00 
freq.    2577.13  E(vib)   ...       0.00 
freq.    2652.31  E(vib)   ...       0.00 
freq.    2668.57  E(vib)   ...       0.00 

------------
INNER ENERGY
------------

The inner energy is: U= E(el) + E(ZPE) + E(vib) + E(rot) + E(trans)
    E(el)   - is the total energy from the electronic structure calculation
              = E(kin-el) + E(nuc-el) + E(el-el) + E(nuc-nuc)
    E(ZPE)  - the the zero temperature vibrational energy from the frequency calculation
    E(vib)  - the the finite temperature correction to E(ZPE) due to population
              of excited vibrational states
    E(rot)  - is the rotational thermal energy
    E(trans)- is the translational thermal energy

Summary of contributions to the inner energy U:
Electronic energy                ...    -53.24887969 Eh
Zero point energy                ...      0.06211733 Eh      38.98 kcal/mol
Thermal vibrational correction   ...      0.00080762 Eh       0.51 kcal/mol
Thermal rotational correction    ...      0.00141627 Eh       0.89 kcal/mol
Thermal translational correction ...      0.00141627 Eh       0.89 kcal/mol
-----------------------------------------------------------------------
Total thermal energy                    -53.18312220 Eh


Summary of corrections to the electronic energy:
(perhaps to be used in another calculation)
Total thermal correction                  0.00364016 Eh       2.28 kcal/mol
Non-thermal (ZPE) correction              0.06211733 Eh      38.98 kcal/mol
-----------------------------------------------------------------------
Total correction                          0.06575749 Eh      41.26 kcal/mol


--------
ENTHALPY
--------

The enthalpy is H = U + kB*T
                kB is Boltzmann's constant
Total free energy                 ...    -53.18312220 Eh 
Thermal Enthalpy correction       ...      0.00094421 Eh       0.59 kcal/mol
-----------------------------------------------------------------------
Total Enthalpy                    ...    -53.18217799 Eh


Note: Only C1 symmetry has been detected, increase convergence thresholds 
      if your molecule has a higher symmetry. Symmetry factor of 1.0 is   
      used for the rotational entropy correction. 
 

Note: Rotational entropy computed according to Herzberg 
Infrared and Raman Spectra, Chapter V,1, Van Nostrand Reinhold, 1945 
Point Group:  C1, Symmetry Number:   1  
Rotational constants in cm-1:     2.691264     0.625193     0.573384 

Vibrational entropy computed according to the QRRHO of S. Grimme
Chem.Eur.J. 2012 18 9955


-------
ENTROPY
-------

The entropy contributions are T*S = T*(S(el)+S(vib)+S(rot)+S(trans))
     S(el)   - electronic entropy
     S(vib)  - vibrational entropy
     S(rot)  - rotational entropy
     S(trans)- translational entropy
The entropies will be listed as mutliplied by the temperature to get
units of energy

Electronic entropy                ...      0.00000000 Eh      0.00 kcal/mol
Vibrational entropy               ...      0.00112639 Eh      0.71 kcal/mol
Rotational entropy                ...      0.00952775 Eh      5.98 kcal/mol
Translational entropy             ...      0.01705148 Eh     10.70 kcal/mol
-----------------------------------------------------------------------
Final entropy term                ...      0.02770562 Eh     17.39 kcal/mol

In case the symmetry of your molecule has not been determined correctly
or in case you have a reason to use a different symmetry number we print 
out the resulting rotational entropy values for sn=1,12 :
 --------------------------------------------------------
|  sn= 1 | S(rot)=       0.00952775 Eh      5.98 kcal/mol|
|  sn= 2 | S(rot)=       0.00887329 Eh      5.57 kcal/mol|
|  sn= 3 | S(rot)=       0.00849046 Eh      5.33 kcal/mol|
|  sn= 4 | S(rot)=       0.00821884 Eh      5.16 kcal/mol|
|  sn= 5 | S(rot)=       0.00800815 Eh      5.03 kcal/mol|
|  sn= 6 | S(rot)=       0.00783600 Eh      4.92 kcal/mol|
|  sn= 7 | S(rot)=       0.00769046 Eh      4.83 kcal/mol|
|  sn= 8 | S(rot)=       0.00756438 Eh      4.75 kcal/mol|
|  sn= 9 | S(rot)=       0.00745317 Eh      4.68 kcal/mol|
|  sn=10 | S(rot)=       0.00735369 Eh      4.61 kcal/mol|
|  sn=11 | S(rot)=       0.00726370 Eh      4.56 kcal/mol|
|  sn=12 | S(rot)=       0.00718155 Eh      4.51 kcal/mol|
 --------------------------------------------------------


-------------------
GIBBS FREE ENERGY
-------------------

The Gibbs free energy is G = H - T*S

Total enthalpy                    ...    -53.18217799 Eh 
Total entropy correction          ...     -0.02770562 Eh    -17.39 kcal/mol
-----------------------------------------------------------------------
Final Gibbs free energy         ...    -53.20988362 Eh

For completeness - the Gibbs free energy minus the electronic energy
G-E(el)                           ...      0.03899608 Eh     24.47 kcal/mol


Timings for individual modules:

Sum of individual times         ...       40.826 sec (=   0.680 min)
GTO integral calculation        ...        5.450 sec (=   0.091 min)  13.4 %
SCF iterations                  ...       18.595 sec (=   0.310 min)  45.5 %
SCF Gradient evaluation         ...        8.665 sec (=   0.144 min)  21.2 %
Geometry relaxation             ...        0.882 sec (=   0.015 min)   2.2 %
Analytical frequency calculation...        7.234 sec (=   0.121 min)  17.7 %
                             ****ORCA TERMINATED NORMALLY****
TOTAL RUN TIME: 0 days 0 hours 0 minutes 42 seconds 1 msec
