
                                 *****************
                                 * O   R   C   A *
                                 *****************

           --- An Ab Initio, DFT and Semiempirical electronic structure package ---

                  #######################################################
                  #                        -***-                        #
                  #          Department of theory and spectroscopy      #
                  #               Directorship: Frank Neese             #
                  #        Max Planck Institute fuer Kohlenforschung    #
                  #                Kaiser Wilhelm Platz 1               #
                  #                 D-45470 Muelheim/Ruhr               #
                  #                      Germany                        #
                  #                                                     #
                  #                  All rights reserved                #
                  #                        -***-                        #
                  #######################################################


                         Program Version 4.2.1 -  RELEASE  -


 With contributions from (in alphabetic order):
   Daniel Aravena         : Magnetic Suceptibility
   Michael Atanasov       : Ab Initio Ligand Field Theory (pilot matlab implementation)
   Alexander A. Auer      : GIAO ZORA, VPT2
   Ute Becker             : Parallelization
   Giovanni Bistoni       : ED, misc. LED, open-shell LED, HFLD
   Martin Brehm           : Molecular dynamics
   Dmytro Bykov           : SCF Hessian
   Vijay G. Chilkuri      : MRCI spin determinant printing, contributions to CSF-ICE
   Dipayan Datta          : RHF DLPNO-CCSD density
   Achintya Kumar Dutta   : EOM-CC, STEOM-CC
   Dmitry Ganyushin       : Spin-Orbit,Spin-Spin,Magnetic field MRCI
   Miquel Garcia          : C-PCM Hessian, Gaussian charge scheme
   Yang Guo               : DLPNO-NEVPT2, CIM, IAO-localization
   Andreas Hansen         : Spin unrestricted coupled pair/coupled cluster methods
   Benjamin Helmich-Paris : CASSCF linear response (MC-RPA)
   Lee Huntington         : MR-EOM, pCC
   Robert Izsak           : Overlap fitted RIJCOSX, COSX-SCS-MP3, EOM
   Christian Kollmar      : KDIIS, OOCD, Brueckner-CCSD(T), CCSD density
   Simone Kossmann        : Meta GGA functionals, TD-DFT gradient, OOMP2, MP2 Hessian
   Martin Krupicka        : AUTO-CI
   Lucas Lang             : DCDCAS
   Dagmar Lenk            : GEPOL surface, SMD
   Dimitrios Liakos       : Extrapolation schemes; Compound Job, initial MDCI parallelization
   Dimitrios Manganas     : Further ROCIS development; embedding schemes
   Dimitrios Pantazis     : SARC Basis sets
   Taras Petrenko         : DFT Hessian,TD-DFT gradient, ASA, ECA, R-Raman, ABS, FL, XAS/XES, NRVS
   Peter Pinski           : DLPNO-MP2, DLPNO-MP2 Gradient
   Christoph Reimann      : Effective Core Potentials
   Marius Retegan         : Local ZFS, SOC
   Christoph Riplinger    : Optimizer, TS searches, QM/MM, DLPNO-CCSD(T), (RO)-DLPNO pert. Triples
   Tobias Risthaus        : Range-separated hybrids, TD-DFT gradient, RPA, STAB
   Michael Roemelt        : Original ROCIS implementation
   Masaaki Saitow         : Open-shell DLPNO-CCSD energy and density
   Barbara Sandhoefer     : DKH picture change effects
   Avijit Sen             : IP-ROCIS
   Kantharuban Sivalingam : CASSCF convergence, NEVPT2, FIC-MRCI
   Bernardo de Souza      : ESD, SOC TD-DFT
   Georgi Stoychev        : AutoAux, RI-MP2 NMR
   Willem Van den Heuvel  : Paramagnetic NMR
   Boris Wezisla          : Elementary symmetry handling
   Frank Wennmohs         : Technical directorship


 We gratefully acknowledge several colleagues who have allowed us to
 interface, adapt or use parts of their codes:
   Stefan Grimme, W. Hujo, H. Kruse,             : VdW corrections, initial TS optimization,
                  C. Bannwarth                     DFT functionals, gCP, sTDA/sTD-DF
   Ed Valeev, F. Pavosevic, A. Kumar             : LibInt (2-el integral package), F12 methods
   Garnet Chan, S. Sharma, J. Yang, R. Olivares  : DMRG
   Ulf Ekstrom                                   : XCFun DFT Library
   Mihaly Kallay                                 : mrcc  (arbitrary order and MRCC methods)
   Andreas Klamt, Michael Diedenhofen            : otool_cosmo (COSMO solvation model)
   Jiri Pittner, Ondrej Demel                    : Mk-CCSD
   Frank Weinhold                                : gennbo (NPA and NBO analysis)
   Christopher J. Cramer and Donald G. Truhlar   : smd solvation model
   Lars Goerigk                                  : TD-DFT with DH, B97 family of functionals
   V. Asgeirsson, H. Jonsson                     : NEB implementation
   FAccTs GmbH                                   : IRC, NEB, NEB-TS, Multilevel, MM, QM/MM, CI optimization
   S Lehtola, MJT Oliveira, MAL Marques          : LibXC Library


 Your calculation uses the libint2 library for the computation of 2-el integrals
 For citations please refer to: http://libint.valeyev.net

 Your ORCA version has been built with support for libXC version: 4.2.3
 For citations please refer to: https://tddft.org/programs/libxc/

 This ORCA versions uses:
   CBLAS   interface :  Fast vector & matrix operations
   LAPACKE interface :  Fast linear algebra routines
   SCALAPACK package :  Parallel linear algebra routines


Your calculation utilizes the geometrical counterpoise correction gCP
Please cite in your paper:
H.Kruse, S. Grimme J.Chem.Phys., 136, (2012), 154101 
   

Your calculation utilizes the atom-pairwise dispersion correction
based on tight binding partial charges (D4)
Cite in your paper:
E.Caldeweyher, C.Bannwarth, S.Grimme, J.Chem.Phys., (2017), 147, 034112.
E.Caldeweyher, S.Ehlert, A.Hansen, H.Neugebauer, S.Grimme, J.Chem.Phys., (2018), in progress.
   

----- Orbital basis set information -----
Your calculation utilizes the basis: def2-SVP
   F. Weigend and R. Ahlrichs, Phys. Chem. Chem. Phys. 7, 3297 (2005).

----- AuxJ basis set information -----
Your calculation utilizes the auxiliary basis: def2/J
   F. Weigend, Phys. Chem. Chem. Phys. 8, 1057 (2006).

================================================================================
                                        WARNINGS
                       Please study these warnings very carefully!
================================================================================


WARNING: Geometry Optimization
  ===> : Switching off AutoStart
         For restart on a previous wavefunction, please use MOREAD

INFO   : the flag for use of LIBINT has been found!

================================================================================
                                       INPUT FILE
================================================================================
NAME = CH2Cl2.inp
|  1> ! revPBE D4 gCP(DFT/SVP) def2-SVP Opt Freq TightOpt TightSCF Grid4 FinalGrid5 LargePrint
|  2> 
|  3> %pal
|  4>  nprocs 6
|  5> end
|  6> 
|  7> *xyz 0 1
|  8>   C     -0.000367    0.143055    0.000367
|  9>   Cl    -1.056917   -0.846399    1.056917
| 10>   Cl     1.062165   -0.833000   -1.062165
| 11>   H     -0.647167    0.768172   -0.642286
| 12>   H      0.642286    0.768172    0.647167
| 13> *
| 14> 
| 15>                          ****END OF INPUT****
================================================================================

                       *****************************
                       * Geometry Optimization Run *
                       *****************************

Geometry optimization settings:
Update method            Update   .... BFGS
Choice of coordinates    CoordSys .... Z-matrix Internals
Initial Hessian          InHess   .... Almoef's Model

Convergence Tolerances:
Energy Change            TolE     ....  1.0000e-06 Eh
Max. Gradient            TolMAXG  ....  1.0000e-04 Eh/bohr
RMS Gradient             TolRMSG  ....  3.0000e-05 Eh/bohr
Max. Displacement        TolMAXD  ....  1.0000e-03 bohr
RMS Displacement         TolRMSD  ....  6.0000e-04 bohr
Strict Convergence                ....  False
------------------------------------------------------------------------------
                        ORCA OPTIMIZATION COORDINATE SETUP
------------------------------------------------------------------------------

The optimization will be done in new redundant internal coordinates
Making redundant internal coordinates   ...  (new redundants) done
Evaluating the initial hessian          ...  (Almloef) done
Evaluating the coordinates              ...  done
Calculating the B-matrix                .... done
Calculating the G-matrix                .... done
Diagonalizing the G-matrix              .... done
The first mode is                       ....    1
The number of degrees of freedom        ....    9

    -----------------------------------------------------------------
                    Redundant Internal Coordinates


    -----------------------------------------------------------------
         Definition                    Initial Value    Approx d2E/dq
    -----------------------------------------------------------------
      1. B(Cl  1,C   0)                  1.7921         0.320046   
      2. B(Cl  2,C   0)                  1.7918         0.320369   
      3. B(H   3,C   0)                  1.1055         0.340172   
      4. B(H   4,C   0)                  1.1055         0.340172   
      5. A(Cl  1,C   0,H   3)          108.0587         0.326255   
      6. A(Cl  2,C   0,H   3)          108.0741         0.326309   
      7. A(Cl  1,C   0,H   4)          108.0587         0.326255   
      8. A(Cl  2,C   0,H   4)          108.0741         0.326309   
      9. A(H   3,C   0,H   4)          111.1303         0.285704   
     10. A(Cl  1,C   0,Cl  2)          113.4814         0.375230   
    -----------------------------------------------------------------

Number of atoms                         .... 5
Number of degrees of freedom            .... 10

         *************************************************************
         *                GEOMETRY OPTIMIZATION CYCLE   1            *
         *************************************************************
---------------------------------
CARTESIAN COORDINATES (ANGSTROEM)
---------------------------------
  C     -0.000367    0.143055    0.000367
  Cl    -1.056917   -0.846399    1.056917
  Cl     1.062165   -0.833000   -1.062165
  H     -0.647167    0.768172   -0.642286
  H      0.642286    0.768172    0.647167

----------------------------
CARTESIAN COORDINATES (A.U.)
----------------------------
  NO LB      ZA    FRAG     MASS         X           Y           Z
   0 C     6.0000    0    12.011   -0.000694    0.270335    0.000694
   1 Cl   17.0000    0    35.453   -1.997284   -1.599462    1.997284
   2 Cl   17.0000    0    35.453    2.007201   -1.574142   -2.007201
   3 H     1.0000    0     1.008   -1.222968    1.451635   -1.213745
   4 H     1.0000    0     1.008    1.213745    1.451635    1.222968

--------------------------------
INTERNAL COORDINATES (ANGSTROEM)
--------------------------------
 C      0   0   0     0.000000000000     0.00000000     0.00000000
 Cl     1   0   0     1.792097939041     0.00000000     0.00000000
 Cl     1   2   0     1.791823614386   113.48136918     0.00000000
 H      1   2   3     1.105497346038   108.05873021   119.83015214
 H      1   2   3     1.105497346038   108.05873021   240.16984786

---------------------------
INTERNAL COORDINATES (A.U.)
---------------------------
 C      0   0   0     0.000000000000     0.00000000     0.00000000
 Cl     1   0   0     3.386574309953     0.00000000     0.00000000
 Cl     1   2   0     3.386055911483   113.48136918     0.00000000
 H      1   2   3     2.089087225789   108.05873021   119.83015214
 H      1   2   3     2.089087225789   108.05873021   240.16984786

---------------------
BASIS SET INFORMATION
---------------------
There are 3 groups of distinct atoms

 Group   1 Type C   : 7s4p1d contracted to 3s2p1d pattern {511/31/1}
 Group   2 Type Cl  : 10s7p1d contracted to 4s3p1d pattern {5311/511/1}
 Group   3 Type H   : 4s1p contracted to 2s1p pattern {31/1}

Atom   0C    basis set group =>   1
Atom   1Cl   basis set group =>   2
Atom   2Cl   basis set group =>   2
Atom   3H    basis set group =>   3
Atom   4H    basis set group =>   3

-------------------------
BASIS SET IN INPUT FORMAT
-------------------------

 # Basis set for element : H 
 NewGTO H 
 S 3 
   1      13.0107010000      0.0334854848
   2       1.9622572000      0.2347218709
   3       0.4445379600      0.8137702853
 S 1 
   1       0.1219496200      1.0000000000
 P 1 
   1       0.8000000000      1.0000000000
  end;

 # Basis set for element : C 
 NewGTO C 
 S 5 
   1    1238.4016938000      0.0055173650
   2     186.2900499200      0.0410888285
   3      42.2511763460      0.1822538213
   4      11.6765579320      0.4682845944
   5       3.5930506482      0.4457581734
 S 1 
   1       0.4024514736      1.0000000000
 S 1 
   1       0.1309018267      1.0000000000
 P 3 
   1       9.4680970621      0.0568883320
   2       2.0103545142      0.3129405934
   3       0.5477100471      0.7606501651
 P 1 
   1       0.1526861379      1.0000000000
 D 1 
   1       0.8000000000      1.0000000000
  end;

 # Basis set for element : Cl
 NewGTO Cl
 S 5 
   1   10449.8275660000      0.0054265952
   2    1571.7365221000      0.0406263782
   3     357.1206552300      0.1835974786
   4     100.2518593500      0.4743894876
   5      30.8127275540      0.4373518111
 S 3 
   1      51.9237894340     -0.0927541549
   2       5.7045760975      0.5638082555
   3       2.3508376809      0.5036704463
 S 1 
   1       0.4460512467      1.0000000000
 S 1 
   1       0.1684885619      1.0000000000
 P 5 
   1     307.6679056900     -0.0088797025
   2      72.1020155150     -0.0642840717
   3      22.5326802620     -0.2428873974
   4       7.8991765444     -0.4834083637
   5       2.8767268321     -0.3895256388
 P 1 
   1       0.7745936396      1.0000000000
 P 1 
   1       0.2103769970      1.0000000000
 D 1 
   1       0.6500000000      1.0000000000
  end;

---------------------------------
AUXILIARY/J BASIS SET INFORMATION
---------------------------------
There are 3 groups of distinct atoms

 Group   1 Type C   : 12s5p4d2f1g contracted to 6s4p3d1f1g pattern {711111/2111/211/2/1}
 Group   2 Type Cl  : 14s5p5d2f1g contracted to 8s4p3d1f1g pattern {71111111/2111/311/2/1}
 Group   3 Type H   : 5s2p1d contracted to 3s1p1d pattern {311/2/1}

Atom   0C    basis set group =>   1
Atom   1Cl   basis set group =>   2
Atom   2Cl   basis set group =>   2
Atom   3H    basis set group =>   3
Atom   4H    basis set group =>   3

-------------------------------------
AUXILIARY/J BASIS SET IN INPUT FORMAT
-------------------------------------

 # Auxiliary/J basis set for element : H 
 NewAuxJGTO H 
 S 3 
   1      15.6752927000      0.1007184237
   2       3.6063578000      0.3404257499
   3       1.2080016000      0.6491996172
 S 1 
   1       0.4726794000      1.0000000000
 S 1 
   1       0.2018100000      1.0000000000
 P 2 
   1       2.0281365000      0.5596620919
   2       0.5358730000      0.5596620919
 D 1 
   1       2.2165124000      1.0000000000
  end;

 # Auxiliary/J basis set for element : C 
 NewAuxJGTO C 
 S 7 
   1    1861.0916331000      0.0134602335
   2     642.9939764000      0.0299160374
   3     235.1105725000      0.1008649584
   4      90.7028894000      0.2370970548
   5      36.7794552000      0.3924037254
   6      15.6046273000      0.3195862154
   7       6.8907294000      0.0530104441
 S 1 
   1       3.1478850000     -1.0000000000
 S 1 
   1       1.4777287000      1.0000000000
 S 1 
   1       0.7076466000      1.0000000000
 S 1 
   1       0.3430122000      1.0000000000
 S 1 
   1       0.1669453000      1.0000000000
 P 2 
   1      13.5472892000     -0.6769313712
   2       5.4669419000     -0.3779500978
 P 1 
   1       2.1751721000      1.0000000000
 P 1 
   1       0.8582194000      1.0000000000
 P 1 
   1       0.3376720000      1.0000000000
 D 2 
   1       5.9287253000     -0.3533329857
   2       1.9809209000     -0.7456525731
 D 1 
   1       0.8055417000     -1.0000000000
 D 1 
   1       0.3531244000     -1.0000000000
 F 2 
   1       1.6755626000      0.6311076882
   2       0.5997536000      0.4968166032
 G 1 
   1       1.0024600000     -1.0000000000
  end;

 # Auxiliary/J basis set for element : Cl
 NewAuxJGTO Cl
 S 7 
   1    8044.2766240000      0.0309054740
   2    2924.5123954000      0.0600734063
   3    1110.8168739000      0.1862207460
   4     439.9050761000      0.3715503251
   5     181.1987287000      0.4220785347
   6      77.4148302000      0.0994388367
   7      34.1977273000     -0.0596902748
 S 1 
   1      15.5648397000      1.0000000000
 S 1 
   1       7.2707873000      1.0000000000
 S 1 
   1       3.4711900000     -1.0000000000
 S 1 
   1       1.6860808000     -1.0000000000
 S 1 
   1       0.8293125000      1.0000000000
 S 1 
   1       0.4110124000      1.0000000000
 S 1 
   1       0.2042190000      1.0000000000
 P 2 
   1      12.2564993000      1.4910316311
   2       4.8922575000     -1.4908224419
 P 1 
   1       1.9265460000      1.0000000000
 P 1 
   1       0.7525989000     -1.0000000000
 P 1 
   1       0.2932189000     -1.0000000000
 D 3 
   1      28.4370504000     -1.0829567244
   2       7.2772298000      0.5502349187
   3       2.3111621000     -0.5567798939
 D 1 
   1       0.8580943000     -1.0000000000
 D 1 
   1       0.3376227000     -1.0000000000
 F 2 
   1       1.2035685000      0.5557691438
   2       0.4700000000      0.5557691438
 G 1 
   1       0.7521100000     -1.0000000000
  end;



           ************************************************************
           *        Program running with 6 parallel MPI-processes     *
           *              working on a common directory               *
           ************************************************************
------------------------------------------------------------------------------
                           ORCA GTO INTEGRAL CALCULATION
                           -- RI-GTO INTEGRALS CHOSEN --
------------------------------------------------------------------------------

                         BASIS SET STATISTICS AND STARTUP INFO

Gaussian basis set:
 # of primitive gaussian shells          ...   58
 # of primitive gaussian functions       ...  110
 # of contracted shells                  ...   28
 # of contracted basis functions         ...   60
 Highest angular momentum                ...    2
 Maximum contraction depth               ...    5
Auxiliary gaussian basis set:
 # of primitive gaussian shells          ...   94
 # of primitive gaussian functions       ...  256
 # of contracted shells                  ...   59
 # of contracted aux-basis functions     ...  173
 Highest angular momentum                ...    4
 Maximum contraction depth               ...    7
Ratio of auxiliary to basis functions    ...  2.88
Integral package used                  ... LIBINT
 One Electron integrals                  ... done
 Ordering auxiliary basis shells         ... done
 Integral threshhold             Thresh  ...  2.500e-11
 Primitive cut-off               TCut    ...  2.500e-12
 Pre-screening matrix                    ... done
 Shell pair data                         ... 
 Ordering of the shell pairs             ... done (   0.000 sec) 395 of 406 pairs
 Determination of significant pairs      ... done (   0.000 sec)
 Creation of shell pair data             ... done (   0.000 sec)
 Storage of shell pair data              ... done (   0.047 sec)
 Shell pair data done in (   0.048 sec)
 Computing two index integrals           ... done
 Cholesky decomposition of the V-matrix  ... done


Timings:
 Total evaluation time                   ...   0.259 sec (  0.004 min)
 One electron matrix time                ...   0.036 sec (  0.001 min) = 13.9%
 Schwartz matrix evaluation time         ...   0.125 sec (  0.002 min) = 48.2%
 Two index repulsion integral time       ...   0.006 sec (  0.000 min) =  2.5%
 Cholesky decomposition of V             ...   0.026 sec (  0.000 min) = 10.2%
 Three index repulsion integral time     ...   0.000 sec (  0.000 min) =  0.0%



           ************************************************************
           *        Program running with 6 parallel MPI-processes     *
           *              working on a common directory               *
           ************************************************************
-------------------------------------------------------------------------------
                                 ORCA SCF
-------------------------------------------------------------------------------

------------
SCF SETTINGS
------------
Hamiltonian:
 Density Functional     Method          .... DFT(GTOs)
 Exchange Functional    Exchange        .... PBE
   PBE kappa parameter   XKappa         ....  1.245000
   PBE mue parameter    XMuePBE         ....  0.219520
 Correlation Functional Correlation     .... PBE
   PBE beta parameter  CBetaPBE         ....  0.066725
 LDA part of GGA corr.  LDAOpt          .... PW91-LDA
 Gradients option       PostSCFGGA      .... off
   Density functional embedding theory  .... OFF
   NL short-range parameter             ....  3.700000
 RI-approximation to the Coulomb term is turned on
   Number of auxiliary basis functions  .... 173


General Settings:
 Integral files         IntName         .... CH2Cl2
 Hartree-Fock type      HFTyp           .... RHF
 Total Charge           Charge          ....    0
 Multiplicity           Mult            ....    1
 Number of Electrons    NEL             ....   42
 Basis Dimension        Dim             ....   60
 Nuclear Repulsion      ENuc            ....    132.4301646663 Eh

Convergence Acceleration:
 DIIS                   CNVDIIS         .... on
   Start iteration      DIISMaxIt       ....    12
   Startup error        DIISStart       ....  0.200000
   # of expansion vecs  DIISMaxEq       ....     5
   Bias factor          DIISBfac        ....   1.050
   Max. coefficient     DIISMaxC        ....  10.000
 Newton-Raphson         CNVNR           .... off
 SOSCF                  CNVSOSCF        .... on
   Start iteration      SOSCFMaxIt      ....   150
   Startup grad/error   SOSCFStart      ....  0.003300
 Level Shifting         CNVShift        .... on
   Level shift para.    LevelShift      ....    0.2500
   Turn off err/grad.   ShiftErr        ....    0.0010
 Zerner damping         CNVZerner       .... off
 Static damping         CNVDamp         .... on
   Fraction old density DampFac         ....    0.7000
   Max. Damping (<1)    DampMax         ....    0.9800
   Min. Damping (>=0)   DampMin         ....    0.0000
   Turn off err/grad.   DampErr         ....    0.1000
 Fernandez-Rico         CNVRico         .... off

SCF Procedure:
 Maximum # iterations   MaxIter         ....   125
 SCF integral mode      SCFMode         .... Direct
   Integral package                     .... LIBINT
 Reset frequency        DirectResetFreq ....    20
 Integral Threshold     Thresh          ....  2.500e-11 Eh
 Primitive CutOff       TCut            ....  2.500e-12 Eh

Convergence Tolerance:
 Convergence Check Mode ConvCheckMode   .... Total+1el-Energy
 Convergence forced     ConvForced      .... 0
 Energy Change          TolE            ....  1.000e-08 Eh
 1-El. energy change                    ....  1.000e-05 Eh
 Orbital Gradient       TolG            ....  1.000e-05
 Orbital Rotation angle TolX            ....  1.000e-05
 DIIS Error             TolErr          ....  5.000e-07


Diagonalization of the overlap matrix:
Smallest eigenvalue                        ... 9.205e-03
Time for diagonalization                   ...    0.004 sec
Threshold for overlap eigenvalues          ... 1.000e-08
Number of eigenvalues below threshold      ... 0
Time for construction of square roots      ...    0.005 sec
Total time needed                          ...    0.009 sec

-------------------
DFT GRID GENERATION
-------------------

General Integration Accuracy     IntAcc      ...  4.670
Radial Grid Type                 RadialGrid  ... Gauss-Chebyshev
Angular Grid (max. acc.)         AngularGrid ... Lebedev-302
Angular grid pruning method      GridPruning ... 3 (G Style)
Weight generation scheme         WeightScheme... Becke
Basis function cutoff            BFCut       ...    1.0000e-11
Integration weight cutoff        WCut        ...    1.0000e-14
Grids for H and He will be reduced by one unit

# of grid points (after initial pruning)     ...  26476 (   0.0 sec)
# of grid points (after weights+screening)   ...  25914 (   0.1 sec)
nearest neighbour list constructed           ...    0.0 sec
Grid point re-assignment to atoms done       ...    0.0 sec
Grid point division into batches done        ...    0.2 sec
Reduced shell lists constructed in    0.2 sec

Total number of grid points                  ...    25914
Total number of batches                      ...      407
Average number of points per batch           ...       63
Average number of grid points per atom       ...     5183
Average number of shells per batch           ...    18.65 (66.61%)
Average number of basis functions per batch  ...    41.26 (68.77%)
Average number of large shells per batch     ...    16.81 (90.13%)
Average number of large basis fcns per batch ...    37.57 (91.04%)
Maximum spatial batch extension              ...  17.78, 17.11, 17.78 au
Average spatial batch extension              ...   0.67,  0.64,  0.64 au

Time for grid setup =    0.346 sec

------------------------------
INITIAL GUESS: MODEL POTENTIAL
------------------------------
Loading Hartree-Fock densities                     ... done
Calculating cut-offs                               ... done
Setting up the integral package                    ... done
Initializing the effective Hamiltonian             ... done
Starting the Coulomb interaction                   ... done (   0.0 sec)
Reading the grid                                   ... done
Mapping shells                                     ... done
Starting the XC term evaluation                    ... done (   0.1 sec)
  promolecular density results
     # of electrons  =     41.998959754
     EX              =    -60.695434977
     EC              =     -1.587577334
     EX+EC           =    -62.283012311
Transforming the Hamiltonian                       ... done (   0.0 sec)
Diagonalizing the Hamiltonian                      ... done (   0.0 sec)
Back transforming the eigenvectors                 ... done (   0.0 sec)
Now organizing SCF variables                       ... done
                      ------------------
                      INITIAL GUESS DONE (   0.6 sec)
                      ------------------
----------------------
INITIAL GUESS ORBITALS
----------------------
                      0         1         2         3         4         5   
                 -100.68649 -100.68646 -10.06189  -9.23051  -9.23048  -7.04751
                   2.00000   2.00000   2.00000   2.00000   2.00000   2.00000
                  --------  --------  --------  --------  --------  --------
  0C   1s         0.000008 -0.000068  0.988209  0.000051 -0.000372  0.000045
  0C   2s        -0.000088  0.000780  0.048719 -0.000285  0.002060 -0.000251
  0C   3s         0.000506 -0.004497 -0.036756  0.001494 -0.010794  0.002757
  0C   1pz        0.000009  0.000001  0.000009  0.000294  0.000039  0.000019
  0C   1px       -0.000009 -0.000001 -0.000009 -0.000294 -0.000039 -0.000019
  0C   1py        0.000009 -0.000081  0.002656  0.000061 -0.000453  0.000058
  0C   2pz       -0.001181 -0.000128 -0.000003 -0.003068 -0.000413 -0.002340
  0C   2px        0.001181  0.000128  0.000003  0.003068  0.000413  0.002340
  0C   2py       -0.000141  0.001323 -0.000368 -0.000438  0.003310 -0.000610
  0C   1dz2       0.000000 -0.000008  0.000048 -0.000003  0.000004 -0.000007
  0C   1dxz       0.000014 -0.000116  0.001916  0.000084 -0.000581  0.000212
  0C   1dyz      -0.000091 -0.000010  0.000006 -0.000486 -0.000069 -0.000636
  0C   1dx2y2     0.000001 -0.000014  0.000084 -0.000006  0.000006 -0.000013
  0C   1dxy       0.000091  0.000010 -0.000006  0.000486  0.000069  0.000636
  1Cl  1s         0.619982  0.777004 -0.000030  0.187989  0.248300 -0.000320
  1Cl  2s         0.013929  0.017413  0.000322 -0.615503 -0.813053  0.001276
  1Cl  3s        -0.006441 -0.007992 -0.001314 -0.032731 -0.042752 -0.001687
  1Cl  4s         0.004364  0.006013  0.005632  0.014392  0.019854  0.002550
  1Cl  1pz        0.000044  0.000037  0.000114 -0.000458 -0.000655 -0.294788
  1Cl  1px       -0.000044 -0.000037 -0.000114  0.000458  0.000655  0.294788
  1Cl  1py       -0.000029 -0.000043 -0.000082  0.000455  0.000585  0.271877
  1Cl  2pz        0.000221  0.000202  0.000342  0.000701  0.000661  0.016179
  1Cl  2px       -0.000221 -0.000202 -0.000342 -0.000701 -0.000661 -0.016179
  1Cl  2py       -0.000152 -0.000224 -0.000154 -0.000478 -0.000730 -0.014824
  1Cl  3pz       -0.000585 -0.000958 -0.001187 -0.001535 -0.002325 -0.003232
  1Cl  3px        0.000585  0.000958  0.001187  0.001535  0.002325  0.003232
  1Cl  3py        0.000581  0.000828  0.000513  0.001405  0.002111  0.003069
  1Cl  1dz2      -0.000021  0.000030  0.000007 -0.000047  0.000055 -0.000048
  1Cl  1dxz      -0.000082 -0.000132  0.000805 -0.000122 -0.000164  0.000017
  1Cl  1dyz      -0.000066 -0.000126  0.000885 -0.000053 -0.000187  0.000056
  1Cl  1dx2y2    -0.000037  0.000051  0.000013 -0.000081  0.000095 -0.000083
  1Cl  1dxy       0.000066  0.000126 -0.000885  0.000053  0.000187 -0.000056
  2Cl  1s        -0.777000  0.619987 -0.000030 -0.248287  0.188006  0.000535
  2Cl  2s        -0.017447  0.013886  0.000323  0.812948 -0.615642 -0.002108
  2Cl  3s         0.008054 -0.006363 -0.001314  0.043100 -0.032273  0.002795
  2Cl  4s        -0.005590  0.004895  0.005631 -0.019240  0.015207 -0.005189
  2Cl  1pz        0.000052 -0.000027 -0.000115 -0.000623  0.000510 -0.501806
  2Cl  1px       -0.000052  0.000027  0.000115  0.000623 -0.000510  0.501806
  2Cl  1py        0.000037 -0.000035 -0.000081 -0.000590  0.000434 -0.457159
  2Cl  2pz        0.000262 -0.000149 -0.000343  0.000858 -0.000450  0.027446
  2Cl  2px       -0.000262  0.000149  0.000343 -0.000858  0.000450 -0.027446
  2Cl  2py        0.000195 -0.000183 -0.000150  0.000648 -0.000567  0.024939
  2Cl  3pz       -0.000788  0.000809  0.001189 -0.002121  0.001832 -0.005834
  2Cl  3px        0.000788 -0.000809 -0.001189  0.002121 -0.001832  0.005834
  2Cl  3py       -0.000741  0.000669  0.000497 -0.001899  0.001628 -0.005335
  2Cl  1dz2       0.000013  0.000035 -0.000002  0.000029  0.000067  0.000023
  2Cl  1dxz       0.000110 -0.000112  0.000817  0.000163 -0.000126  0.000020
  2Cl  1dyz      -0.000092  0.000107 -0.000881 -0.000101  0.000163  0.000010
  2Cl  1dx2y2     0.000023  0.000060 -0.000004  0.000050  0.000117  0.000041
  2Cl  1dxy       0.000092 -0.000107  0.000881  0.000101 -0.000163 -0.000010
  3H   1s        -0.000041  0.000365 -0.003697 -0.000121  0.000876 -0.000231
  3H   2s        -0.000014  0.000120  0.008554  0.000003 -0.000027 -0.000208
  3H   1pz        0.000035 -0.000029 -0.001700  0.000027 -0.000069 -0.000013
  3H   1px       -0.000028 -0.000036 -0.001710 -0.000007 -0.000073 -0.000019
  3H   1py        0.000003 -0.000032  0.001512  0.000001 -0.000005  0.000027
  4H   1s        -0.000041  0.000365 -0.003697 -0.000121  0.000876 -0.000231
  4H   2s        -0.000014  0.000120  0.008554  0.000003 -0.000027 -0.000208
  4H   1pz        0.000028  0.000036  0.001710  0.000007  0.000073  0.000019
  4H   1px       -0.000035  0.000029  0.001700 -0.000027  0.000069  0.000013
  4H   1py        0.000003 -0.000032  0.001512  0.000001 -0.000005  0.000027
                      6         7         8         9        10        11   
                  -7.04749  -7.04595  -7.04594  -7.04593  -7.04593  -0.85481
                   2.00000   2.00000   2.00000   2.00000   2.00000   2.00000
                  --------  --------  --------  --------  --------  --------
  0C   1s        -0.000172  0.000004 -0.000000 -0.000000 -0.000024 -0.160155
  0C   2s         0.000972 -0.000058  0.000000  0.000000  0.000322  0.334425
  0C   3s        -0.010675  0.000207 -0.000000 -0.000000 -0.001155  0.040210
  0C   1pz        0.000004 -0.000171 -0.000180 -0.000114 -0.000031 -0.000218
  0C   1px       -0.000004  0.000171 -0.000180 -0.000114  0.000031  0.000218
  0C   1py       -0.000224  0.000035  0.000000 -0.000000 -0.000185 -0.050400
  0C   2pz       -0.000596  0.001550  0.001780  0.001130  0.000286 -0.000035
  0C   2px        0.000596 -0.001550  0.001780  0.001130 -0.000286  0.000035
  0C   2py        0.002422 -0.000373 -0.000000  0.000000  0.002006 -0.009200
  0C   1dz2       0.000014 -0.000001 -0.000011  0.000018  0.000005  0.000680
  0C   1dxz      -0.000802  0.000004 -0.000000  0.000000 -0.000024 -0.010692
  0C   1dyz      -0.000167 -0.000017  0.000039  0.000025 -0.000003 -0.000033
  0C   1dx2y2     0.000024 -0.000002  0.000006 -0.000010  0.000010  0.001178
  0C   1dxy       0.000167  0.000017  0.000039  0.000025  0.000003  0.000033
  1Cl  1s        -0.000526 -0.000007 -0.000000  0.000000  0.000003  0.048965
  1Cl  2s         0.002044  0.000057  0.000000 -0.000000 -0.000029 -0.304656
  1Cl  3s        -0.002722 -0.000161 -0.000000 -0.000000  0.000110  0.410252
  1Cl  4s         0.006107 -0.000791  0.000000  0.000000  0.000426  0.201870
  1Cl  1pz       -0.497655 -0.216054 -0.151095 -0.676499 -0.314701 -0.023376
  1Cl  1px        0.497655  0.216054 -0.151095 -0.676499  0.314701  0.023376
  1Cl  1py        0.466199 -0.467812  0.000000 -0.000000 -0.671324  0.019657
  1Cl  2pz        0.027118  0.011647  0.008113  0.036057  0.016700 -0.037720
  1Cl  2px       -0.027118 -0.011647  0.008113  0.036057 -0.016700  0.037720
  1Cl  2py       -0.025447  0.025072 -0.000000  0.000000  0.035719  0.031437
  1Cl  3pz       -0.006138 -0.001699 -0.001571 -0.005619 -0.002703 -0.034586
  1Cl  3px        0.006138  0.001699 -0.001571 -0.005619  0.002703  0.034586
  1Cl  3py        0.005625 -0.004517  0.000000 -0.000000 -0.005312  0.030929
  1Cl  1dz2       0.000038  0.000024  0.000109 -0.000001  0.000002  0.000819
  1Cl  1dxz      -0.000072 -0.000036 -0.000000 -0.000000  0.000013 -0.013434
  1Cl  1dyz      -0.000080  0.000084 -0.000080  0.000007 -0.000041 -0.011582
  1Cl  1dx2y2     0.000066  0.000041 -0.000063  0.000000  0.000004  0.001418
  1Cl  1dxy       0.000080 -0.000084 -0.000080  0.000007  0.000041  0.011582
  2Cl  1s        -0.000306  0.000006  0.000000  0.000000  0.000005  0.049014
  2Cl  2s         0.001172 -0.000043 -0.000000 -0.000000 -0.000048 -0.304962
  2Cl  3s        -0.001565  0.000111  0.000000 -0.000000  0.000160  0.410674
  2Cl  4s         0.004110  0.000593 -0.000000  0.000000  0.000676  0.202053
  2Cl  1pz        0.294502 -0.308254 -0.676496  0.151111  0.216130  0.023522
  2Cl  1px       -0.294502  0.308254 -0.676496  0.151111 -0.216130 -0.023522
  2Cl  1py        0.272585  0.677220 -0.000000 -0.000000 -0.467828  0.019387
  2Cl  2pz       -0.015992  0.016526  0.036082 -0.008000 -0.011405  0.037954
  2Cl  2px        0.015992 -0.016526  0.036082 -0.008000  0.011405 -0.037954
  2Cl  2py       -0.014888 -0.036204  0.000000  0.000000  0.024827  0.031004
  2Cl  3pz        0.003828 -0.002498 -0.005754  0.000969  0.001915  0.034804
  2Cl  3px       -0.003828  0.002498 -0.005754  0.000969 -0.001915 -0.034804
  2Cl  3py        0.003388  0.006124 -0.000000 -0.000000 -0.003419  0.030522
  2Cl  1dz2       0.000057 -0.000022 -0.000046 -0.000099 -0.000005  0.000944
  2Cl  1dxz      -0.000072  0.000028  0.000000 -0.000000  0.000024 -0.013589
  2Cl  1dyz       0.000095  0.000065 -0.000028 -0.000075  0.000068  0.011490
  2Cl  1dx2y2     0.000099 -0.000039  0.000027  0.000057 -0.000009  0.001634
  2Cl  1dxy      -0.000095 -0.000065 -0.000028 -0.000075 -0.000068 -0.011490
  3H   1s         0.000893  0.000037  0.000594  0.000377 -0.000203  0.080986
  3H   2s         0.000804 -0.000023  0.000267  0.000169  0.000131  0.008622
  3H   1pz        0.000061 -0.000057  0.000022 -0.000201 -0.000067  0.006710
  3H   1px        0.000061  0.000076 -0.000172  0.000105 -0.000041  0.006757
  3H   1py       -0.000106  0.000052  0.000028  0.000019 -0.000283 -0.006785
  4H   1s         0.000893  0.000037 -0.000594 -0.000377 -0.000203  0.080986
  4H   2s         0.000804 -0.000023 -0.000267 -0.000169  0.000131  0.008622
  4H   1pz       -0.000061 -0.000076 -0.000172  0.000105  0.000041 -0.006757
  4H   1px       -0.000061  0.000057  0.000022 -0.000201  0.000067 -0.006710
  4H   1py       -0.000106  0.000052 -0.000028 -0.000019 -0.000283 -0.006785
                     12        13        14        15        16        17   
                  -0.78901  -0.64835  -0.48928  -0.44989  -0.43706  -0.32706
                   2.00000   2.00000   2.00000   2.00000   2.00000   2.00000
                  --------  --------  --------  --------  --------  --------
  0C   1s         0.000041 -0.201506  0.000000 -0.027616 -0.000029 -0.012232
  0C   2s        -0.000083  0.442026 -0.000000  0.065782  0.000061  0.021891
  0C   3s        -0.000034  0.110970  0.000000  0.048323  0.000103  0.048078
  0C   1pz       -0.101495  0.000485 -0.319939 -0.001616  0.266876  0.000384
  0C   1px        0.101495 -0.000485 -0.319939  0.001616 -0.266876 -0.000384
  0C   1py        0.000630  0.144806  0.000000 -0.391747 -0.002211  0.125722
  0C   2pz       -0.021105  0.000149 -0.132344 -0.000698  0.115551  0.000048
  0C   2px        0.021105 -0.000149 -0.132344  0.000698 -0.115551 -0.000048
  0C   2py        0.000136  0.045221  0.000000 -0.175804 -0.000992  0.021872
  0C   1dz2       0.000054  0.000340 -0.000046 -0.001754 -0.000072 -0.009314
  0C   1dxz      -0.000060  0.004145 -0.000000 -0.014678  0.000066  0.023280
  0C   1dyz       0.009863  0.000011 -0.008863 -0.000006 -0.012407  0.000178
  0C   1dx2y2     0.000093  0.000588  0.000027 -0.003037 -0.000125 -0.016132
  0C   1dxy      -0.009863 -0.000011 -0.008863  0.000006  0.012407 -0.000178
  1Cl  1s        -0.061427 -0.037074  0.000000 -0.013436 -0.014979 -0.001069
  1Cl  2s         0.384399  0.234731 -0.000000  0.085877  0.095996  0.007458
  1Cl  3s        -0.528204 -0.333493  0.000000 -0.112571 -0.129500 -0.020625
  1Cl  4s        -0.254545 -0.171283 -0.000000 -0.128958 -0.144078  0.005153
  1Cl  1pz        0.010758 -0.023663 -0.045369 -0.099294 -0.080226 -0.032037
  1Cl  1px       -0.010758  0.023663 -0.045369  0.099294  0.080226  0.032037
  1Cl  1py       -0.014776  0.033123 -0.000000  0.014267  0.120360 -0.192626
  1Cl  2pz        0.018556 -0.038308 -0.076947 -0.172667 -0.139527 -0.053627
  1Cl  2px       -0.018556  0.038308 -0.076947  0.172667  0.139527  0.053627
  1Cl  2py       -0.025053  0.053419 -0.000000  0.026635  0.209327 -0.335425
  1Cl  3pz        0.014781 -0.041085 -0.083576 -0.174232 -0.142139 -0.077335
  1Cl  3px       -0.014781  0.041085 -0.083576  0.174232  0.142139  0.077335
  1Cl  3py       -0.020048  0.058262 -0.000000  0.013851  0.215625 -0.435279
  1Cl  1dz2       0.000831 -0.002012  0.020374  0.009395 -0.004485  0.002473
  1Cl  1dxz       0.005719 -0.006725  0.000000 -0.027086 -0.012842  0.000243
  1Cl  1dyz       0.008163 -0.012085 -0.012392 -0.007239 -0.021346  0.007821
  1Cl  1dx2y2     0.001439 -0.003484 -0.011763  0.016273 -0.007769  0.004283
  1Cl  1dxy      -0.008163  0.012085 -0.012392  0.007239  0.021346 -0.007821
  2Cl  1s         0.061380 -0.037081  0.000000 -0.013486  0.014946 -0.001070
  2Cl  2s        -0.384105  0.234774 -0.000000  0.086192 -0.095784  0.007464
  2Cl  3s         0.527809 -0.333554  0.000000 -0.112992  0.129212 -0.020637
  2Cl  4s         0.254336 -0.171319 -0.000000 -0.129424  0.143773  0.005136
  2Cl  1pz        0.010841  0.023874 -0.045393  0.099634 -0.080685  0.030861
  2Cl  1px       -0.010841 -0.023874 -0.045393 -0.099634  0.080685 -0.030861
  2Cl  1py        0.014636  0.032832 -0.000000  0.013331 -0.119379 -0.192957
  2Cl  2pz        0.018698  0.038647 -0.076989  0.173269 -0.140328  0.051579
  2Cl  2px       -0.018698 -0.038647 -0.076989 -0.173269  0.140328 -0.051579
  2Cl  2py        0.024813  0.052947 -0.000000  0.025007 -0.207616 -0.335977
  2Cl  3pz        0.014889  0.041453 -0.083614  0.174747 -0.142953  0.074676
  2Cl  3px       -0.014889 -0.041453 -0.083614 -0.174747  0.142953 -0.074676
  2Cl  3py        0.019849  0.057749  0.000000  0.012207 -0.213913 -0.436097
  2Cl  1dz2      -0.000743 -0.001880 -0.020519  0.009465  0.004286  0.002388
  2Cl  1dxz      -0.005814 -0.006876 -0.000000 -0.027222  0.013030  0.000339
  2Cl  1dyz       0.008139  0.012086 -0.012250  0.006926 -0.021349 -0.007870
  2Cl  1dx2y2    -0.001287 -0.003257  0.011846  0.016394  0.007423  0.004136
  2Cl  1dxy      -0.008139 -0.012086 -0.012250 -0.006926  0.021349  0.007870
  3H   1s        -0.000037  0.207421  0.285067 -0.149086 -0.000174  0.102363
  3H   2s        -0.000000  0.024743  0.051509 -0.040557 -0.000057  0.031135
  3H   1pz       -0.001821  0.013189  0.004640 -0.007173  0.006473  0.004398
  3H   1px        0.001816  0.013247  0.004728 -0.007141 -0.006490  0.004389
  3H   1py        0.000014 -0.008850 -0.013503 -0.002392 -0.000045  0.002153
  4H   1s        -0.000037  0.207421 -0.285067 -0.149086 -0.000174  0.102363
  4H   2s        -0.000000  0.024743 -0.051509 -0.040557 -0.000057  0.031135
  4H   1pz       -0.001816 -0.013247  0.004728  0.007141  0.006490 -0.004389
  4H   1px        0.001821 -0.013189  0.004640  0.007173 -0.006473 -0.004398
  4H   1py        0.000014 -0.008850  0.013503 -0.002392 -0.000045  0.002153
                     18        19        20        21        22        23   
                  -0.32352  -0.30897  -0.30585  -0.05843  -0.03337   0.02307
                   2.00000   2.00000   2.00000   0.00000   0.00000   0.00000
                  --------  --------  --------  --------  --------  --------
  0C   1s         0.000000  0.000005  0.000000 -0.181633  0.000402 -0.107806
  0C   2s        -0.000000 -0.000017 -0.000000  0.480141 -0.001090  0.269226
  0C   3s         0.000000  0.000037  0.000000  1.086866 -0.002778  1.611049
  0C   1pz       -0.000017  0.028880 -0.123740 -0.000444  0.421030  0.001196
  0C   1px       -0.000017 -0.028880 -0.123740  0.000444 -0.421030 -0.001196
  0C   1py       -0.000000 -0.000193 -0.000000 -0.401704 -0.002023  0.332654
  0C   2pz       -0.000002 -0.032476 -0.023378 -0.000495  0.613545  0.002950
  0C   2px       -0.000002  0.032476 -0.023378  0.000495 -0.613545 -0.002950
  0C   2py        0.000000  0.000188 -0.000000 -0.501811 -0.003036  0.821195
  0C   1dz2      -0.018079 -0.000068 -0.000097  0.002265  0.000131 -0.001275
  0C   1dxz      -0.000000  0.000075 -0.000000  0.018158 -0.000186 -0.031724
  0C   1dyz       0.000060 -0.013027 -0.016739  0.000075  0.024849 -0.000080
  0C   1dx2y2     0.010438 -0.000117  0.000056  0.003924  0.000226 -0.002208
  0C   1dxy       0.000060  0.013027 -0.016739 -0.000075 -0.024849  0.000080
  1Cl  1s        -0.000000  0.001660  0.000000 -0.015485 -0.017789  0.008367
  1Cl  2s         0.000000 -0.011169 -0.000000  0.101885  0.118776 -0.057976
  1Cl  3s        -0.000000  0.022618  0.000000 -0.110122 -0.173801  0.140616
  1Cl  4s         0.000000  0.014310 -0.000000 -0.442883 -0.414322  0.008076
  1Cl  1pz       -0.144733 -0.110423  0.135724  0.095846  0.061230 -0.016792
  1Cl  1px       -0.144733  0.110423  0.135724 -0.095846 -0.061230  0.016792
  1Cl  1py        0.000000 -0.139825  0.000000 -0.051321 -0.101215  0.000524
  1Cl  2pz       -0.251838 -0.193969  0.236943  0.161393  0.104393 -0.030606
  1Cl  2px       -0.251838  0.193969  0.236943 -0.161393 -0.104393  0.030606
  1Cl  2py        0.000000 -0.244629  0.000000 -0.087142 -0.174342  0.007106
  1Cl  3pz       -0.324909 -0.250030  0.309189  0.421755  0.289193 -0.080588
  1Cl  3px       -0.324909  0.250030  0.309189 -0.421755 -0.289193  0.080588
  1Cl  3py        0.000000 -0.303190  0.000000 -0.226128 -0.442749 -0.031075
  1Cl  1dz2       0.006076  0.002036  0.000169  0.018651 -0.018282 -0.019143
  1Cl  1dxz      -0.000000 -0.002629 -0.000000 -0.065252 -0.031069 -0.003593
  1Cl  1dyz      -0.005423 -0.004903 -0.003746 -0.043206 -0.055160 -0.013866
  1Cl  1dx2y2    -0.003508  0.003526 -0.000098  0.032304 -0.031665 -0.033156
  1Cl  1dxy      -0.005423  0.004903 -0.003746  0.043206  0.055160  0.013866
  2Cl  1s        -0.000000 -0.001660  0.000000 -0.015423  0.017848  0.008378
  2Cl  2s         0.000000  0.011168 -0.000000  0.101474 -0.119166 -0.058051
  2Cl  3s        -0.000000 -0.022616  0.000000 -0.109514  0.174178  0.140714
  2Cl  4s         0.000000 -0.014332 -0.000000 -0.441608  0.416335  0.008504
  2Cl  1pz        0.144733 -0.109511  0.135715 -0.095939  0.062203  0.016834
  2Cl  1px        0.144733  0.109511  0.135715  0.095939 -0.062203 -0.016834
  2Cl  1py        0.000000  0.141225 -0.000000 -0.049723  0.100655  0.000357
  2Cl  2pz        0.251841 -0.192374  0.236928 -0.161547  0.106049  0.030715
  2Cl  2px        0.251841  0.192374  0.236928  0.161547 -0.106049 -0.030715
  2Cl  2py        0.000000  0.247089 -0.000000 -0.084433  0.173379  0.006794
  2Cl  3pz        0.324909 -0.248053  0.309170 -0.422192  0.293600  0.080649
  2Cl  3px        0.324909  0.248053  0.309170  0.422192 -0.293600 -0.080649
  2Cl  3py        0.000000  0.306355 -0.000000 -0.219234  0.440160 -0.031817
  2Cl  1dz2       0.006138 -0.002090 -0.000208  0.019184  0.017625 -0.018988
  2Cl  1dxz       0.000000  0.002690  0.000000 -0.065694  0.032033 -0.003736
  2Cl  1dyz       0.005380 -0.004840 -0.003744  0.042195 -0.055552  0.014218
  2Cl  1dx2y2    -0.003544 -0.003621  0.000120  0.033228  0.030527 -0.032888
  2Cl  1dxy       0.005380  0.004840 -0.003744 -0.042195  0.055552 -0.014218
  3H   1s         0.000049 -0.000024  0.184001 -0.025025  0.000108 -0.157005
  3H   2s         0.000033 -0.000020  0.075334 -0.267905  0.000864 -1.336340
  3H   1pz        0.004132 -0.000389  0.002907 -0.003875  0.015501  0.014721
  3H   1px       -0.004132  0.000388  0.002933 -0.003845 -0.015490  0.014709
  3H   1py       -0.000028  0.000002 -0.003610 -0.013404 -0.000074  0.000823
  4H   1s        -0.000049 -0.000024 -0.184001 -0.025025  0.000108 -0.157005
  4H   2s        -0.000033 -0.000020 -0.075334 -0.267905  0.000864 -1.336340
  4H   1pz       -0.004132 -0.000388  0.002933  0.003845  0.015490 -0.014709
  4H   1px        0.004132  0.000389  0.002907  0.003875 -0.015501 -0.014721
  4H   1py        0.000028  0.000002  0.003610 -0.013404 -0.000074  0.000823
                     24        25        26        27        28        29   
                   0.05259   0.32716   0.33541   0.33981   0.38657   0.48898
                   0.00000   0.00000   0.00000   0.00000   0.00000   0.00000
                  --------  --------  --------  --------  --------  --------
  0C   1s         0.000000  0.095806  0.000434 -0.000000  0.018948 -0.000055
  0C   2s        -0.000000 -0.673304 -0.002806 -0.000000  0.065482  0.000394
  0C   3s        -0.000000  1.442666  0.005804 -0.000000  0.074602 -0.000659
  0C   1pz       -0.311630  0.003973 -0.514901 -0.176843 -0.000185  0.158476
  0C   1px       -0.311630 -0.003973  0.514901 -0.176843  0.000185 -0.158476
  0C   1py       -0.000000  0.513080  0.005626  0.000000 -0.148631 -0.000843
  0C   2pz       -0.821887 -0.008956  1.070412  0.728208 -0.001933 -0.777852
  0C   2px       -0.821887  0.008956 -1.070412  0.728208  0.001934  0.777852
  0C   2py       -0.000000 -1.220923 -0.012609  0.000000 -0.413394  0.004357
  0C   1dz2       0.000138 -0.001824  0.000313 -0.000467  0.003853 -0.000069
  0C   1dxz       0.000000  0.093253  0.000100 -0.000000  0.024975  0.000054
  0C   1dyz       0.023367  0.000050  0.058913 -0.081063  0.000018 -0.013404
  0C   1dx2y2    -0.000080 -0.003159  0.000542  0.000270  0.006674 -0.000120
  0C   1dxy       0.023367 -0.000050 -0.058913 -0.081063 -0.000018  0.013404
  1Cl  1s        -0.000000 -0.006983 -0.014788 -0.000000  0.048273 -0.048397
  1Cl  2s         0.000000  0.052093  0.110118  0.000000 -0.357193  0.362588
  1Cl  3s        -0.000000 -0.141582 -0.360907 -0.000000  1.343562 -1.474468
  1Cl  4s         0.000000 -0.398341 -0.251310  0.000000 -1.387215  1.913498
  1Cl  1pz        0.010345  0.007506 -0.023054 -0.044131 -0.000034 -0.046357
  1Cl  1px        0.010345 -0.007506  0.023054 -0.044131  0.000034  0.046357
  1Cl  1py       -0.000000  0.041624 -0.018361  0.000000 -0.015494  0.031922
  1Cl  2pz        0.012737  0.017509 -0.042537 -0.096974 -0.010352 -0.128800
  1Cl  2px        0.012737 -0.017509  0.042537 -0.096974  0.010352  0.128800
  1Cl  2py       -0.000000  0.082529 -0.045321  0.000000 -0.042691  0.073097
  1Cl  3pz        0.090321  0.236518  0.110995 -0.140251  0.096835 -0.086793
  1Cl  3px        0.090321 -0.236518 -0.110995 -0.140251 -0.096835  0.086793
  1Cl  3py       -0.000000  0.012410 -0.267930  0.000000  0.004616  0.228559
  1Cl  1dz2       0.056666  0.068008 -0.059390 -0.188586  0.031677  0.069983
  1Cl  1dxz       0.000000  0.058179  0.203915 -0.000000 -0.036392  0.018418
  1Cl  1dyz      -0.007627  0.145732  0.114012  0.089351 -0.050870  0.027986
  1Cl  1dx2y2    -0.032716  0.117794 -0.102866  0.108880  0.054867  0.121214
  1Cl  1dxy      -0.007627 -0.145732 -0.114012  0.089351  0.050870 -0.027986
  2Cl  1s        -0.000000 -0.007118  0.014768 -0.000000  0.048241  0.048417
  2Cl  2s         0.000000  0.053098 -0.109966  0.000000 -0.356962 -0.362739
  2Cl  3s        -0.000000 -0.144878  0.360797 -0.000000  1.342788  1.475077
  2Cl  4s        -0.000000 -0.401071  0.246851  0.000000 -1.387265 -1.914399
  2Cl  1pz        0.010363 -0.007033 -0.022986 -0.044139 -0.000031 -0.046567
  2Cl  1px        0.010363  0.007033  0.022986 -0.044139  0.000031  0.046567
  2Cl  1py       -0.000000  0.041527  0.019040  0.000000 -0.015513 -0.031369
  2Cl  2pz        0.012767 -0.016617 -0.042339 -0.096988  0.010160 -0.129281
  2Cl  2px        0.012767  0.016617  0.042339 -0.096988 -0.010160  0.129281
  2Cl  2py       -0.000000  0.082272  0.046637  0.000000 -0.042864 -0.071565
  2Cl  3pz        0.090429 -0.237503  0.110416 -0.140318 -0.097013 -0.088306
  2Cl  3px        0.090429  0.237503 -0.110416 -0.140318  0.097013  0.088306
  2Cl  3py       -0.000000  0.012878  0.266776 -0.000000  0.005496 -0.227462
  2Cl  1dz2      -0.056784  0.065855  0.061273  0.189602  0.032159 -0.069646
  2Cl  1dxz       0.000000  0.061940 -0.204828  0.000000 -0.036779 -0.018755
  2Cl  1dyz      -0.007242 -0.147858  0.110126  0.088012  0.049832  0.029409
  2Cl  1dx2y2     0.032784  0.114065  0.106128 -0.109467  0.055702 -0.120630
  2Cl  1dxy      -0.007242  0.147858 -0.110126  0.088012 -0.049832 -0.029409
  3H   1s        -0.203036  0.427817  0.002333  0.661087  0.413905 -0.000076
  3H   2s        -1.468988 -0.420788 -0.001892 -0.258544 -0.007958  0.000515
  3H   1pz        0.005830 -0.010024  0.008203  0.016933 -0.030069  0.007017
  3H   1px        0.005931 -0.009788 -0.008337  0.016786 -0.030139 -0.006982
  3H   1py       -0.015496 -0.022612 -0.000145  0.022077  0.014691 -0.000063
  4H   1s         0.203036  0.427817  0.002333 -0.661087  0.413905 -0.000076
  4H   2s         1.468988 -0.420788 -0.001892  0.258544 -0.007958  0.000515
  4H   1pz        0.005931  0.009788  0.008337  0.016786  0.030139  0.006982
  4H   1px        0.005830  0.010024 -0.008203  0.016933  0.030069 -0.007017
  4H   1py        0.015496 -0.022612 -0.000145 -0.022077  0.014691 -0.000063
                     30        31        32        33        34        35   
                   0.52168   0.52799   0.59776   0.63213   0.65508   0.65907
                   0.00000   0.00000   0.00000   0.00000   0.00000   0.00000
                  --------  --------  --------  --------  --------  --------
  0C   1s         0.188932 -0.000000 -0.000000  0.029958 -0.000060 -0.000000
  0C   2s        -1.272281  0.000000 -0.000000 -0.173278  0.000525  0.000000
  0C   3s         3.303793 -0.000000  0.000000  0.467861 -0.001344 -0.000000
  0C   1pz       -0.002156 -0.635320  0.000229  0.000055  0.101546  0.000112
  0C   1px        0.002156 -0.635320  0.000229 -0.000055 -0.101546  0.000112
  0C   1py       -0.683225  0.000000  0.000000  0.059548 -0.000713 -0.000000
  0C   2pz        0.004214  1.201956 -0.000285 -0.000968 -0.257677 -0.000278
  0C   2px       -0.004214  1.201956 -0.000285  0.000968  0.257677 -0.000278
  0C   2py        1.359240 -0.000000 -0.000000 -0.403497  0.001565  0.000000
  0C   1dz2       0.001907  0.000526  0.175254  0.092794  0.000259  0.003259
  0C   1dxz       0.076761 -0.000000  0.000000 -0.014596 -0.000221  0.000000
  0C   1dyz       0.000228  0.081011 -0.000672 -0.001093  0.040715 -0.000061
  0C   1dx2y2     0.003302 -0.000304 -0.101183  0.160724  0.000449 -0.001882
  0C   1dxy      -0.000228  0.081011 -0.000672  0.001093 -0.040715 -0.000061
  1Cl  1s        -0.009581 -0.000000  0.000000 -0.004628  0.002416 -0.000000
  1Cl  2s         0.072000  0.000000 -0.000000  0.033737 -0.016798  0.000000
  1Cl  3s        -0.277093 -0.000000  0.000000 -0.089585  0.022916 -0.000000
  1Cl  4s         0.220071  0.000000 -0.000000 -0.115046  0.150348  0.000000
  1Cl  1pz        0.002750  0.014774 -0.010543 -0.041465  0.053335 -0.020926
  1Cl  1px       -0.002750  0.014774 -0.010543  0.041465 -0.053335 -0.020926
  1Cl  1py        0.022404  0.000000 -0.000000 -0.001986  0.010664  0.000000
  1Cl  2pz        0.014161  0.052344 -0.025515 -0.134937  0.174941 -0.066770
  1Cl  2px       -0.014161  0.052344 -0.025515  0.134937 -0.174941 -0.066770
  1Cl  2py        0.071769  0.000000 -0.000000 -0.002646  0.028214  0.000000
  1Cl  3pz       -0.037536 -0.141902 -0.002379  0.200809 -0.202568  0.054685
  1Cl  3px        0.037536 -0.141902 -0.002379 -0.200809  0.202568  0.054685
  1Cl  3py       -0.148448  0.000000  0.000000 -0.036085  0.061720  0.000000
  1Cl  1dz2      -0.063728 -0.133555 -0.428699 -0.043589  0.102292  0.408178
  1Cl  1dxz      -0.032905 -0.000000 -0.000000  0.483662  0.578392  0.000000
  1Cl  1dyz       0.039155 -0.053670  0.309384 -0.286049 -0.191385  0.367472
  1Cl  1dx2y2    -0.110380  0.077108  0.247509 -0.075499  0.177176 -0.235662
  1Cl  1dxy      -0.039155 -0.053670  0.309384  0.286049  0.191385  0.367472
  2Cl  1s        -0.009552  0.000000  0.000000 -0.004626 -0.002423 -0.000000
  2Cl  2s         0.071780 -0.000000 -0.000000  0.033729  0.016854  0.000000
  2Cl  3s        -0.276177  0.000000  0.000000 -0.089652 -0.023264 -0.000000
  2Cl  4s         0.218955 -0.000000 -0.000000 -0.114658 -0.149537  0.000000
  2Cl  1pz       -0.002638  0.014784  0.010486  0.041366  0.053286  0.020844
  2Cl  1px        0.002638  0.014784  0.010486 -0.041366 -0.053286  0.020844
  2Cl  1py        0.022396 -0.000000 -0.000000 -0.002467 -0.011371 -0.000000
  2Cl  2pz       -0.013786  0.052370  0.025334  0.134633  0.174807  0.066509
  2Cl  2px        0.013786  0.052370  0.025334 -0.134633 -0.174807  0.066509
  2Cl  2py        0.071833 -0.000000 -0.000000 -0.004225 -0.030542 -0.000000
  2Cl  3pz        0.036596 -0.141967  0.002566 -0.200673 -0.202770 -0.054436
  2Cl  3px       -0.036596 -0.141967  0.002566  0.200673  0.202770 -0.054436
  2Cl  3py       -0.149010 -0.000000  0.000000 -0.033469 -0.058887  0.000000
  2Cl  1dz2      -0.064164  0.132645 -0.432076 -0.040505 -0.104378  0.404774
  2Cl  1dxz      -0.032545 -0.000000  0.000000  0.480844 -0.575113  0.000000
  2Cl  1dyz      -0.037965 -0.054791 -0.306254  0.290112 -0.192599 -0.371625
  2Cl  1dx2y2    -0.111135 -0.076583  0.249459 -0.070156 -0.180789 -0.233697
  2Cl  1dxy       0.037965 -0.054791 -0.306254 -0.290112  0.192599 -0.371625
  3H   1s         0.385450 -0.458464  0.000217  0.142938  0.000178  0.000078
  3H   2s        -1.704570  1.564746 -0.000417 -0.104128  0.000230 -0.000406
  3H   1pz       -0.074164  0.057460 -0.055716 -0.047473  0.008294 -0.016705
  3H   1px       -0.074459  0.058140  0.055673 -0.046930 -0.008336  0.016688
  3H   1py        0.044567 -0.097501  0.000416 -0.087706 -0.000120  0.000122
  4H   1s         0.385450  0.458464 -0.000217  0.142938  0.000178 -0.000078
  4H   2s        -1.704570 -1.564746  0.000417 -0.104128  0.000230  0.000406
  4H   1pz        0.074459  0.058140  0.055673  0.046930  0.008336  0.016688
  4H   1px        0.074164  0.057460 -0.055716  0.047473 -0.008294 -0.016705
  4H   1py        0.044567  0.097501 -0.000416 -0.087706 -0.000120 -0.000122
                     36        37        38        39        40        41   
                   0.66397   0.66918   0.67852   0.68862   0.69833   0.71123
                   0.00000   0.00000   0.00000   0.00000   0.00000   0.00000
                  --------  --------  --------  --------  --------  --------
  0C   1s        -0.000000 -0.139219  0.000331  0.000328 -0.059153  0.137587
  0C   2s         0.000000  1.261851 -0.002614 -0.001578  0.069613 -1.446511
  0C   3s        -0.000000 -3.740189  0.007794  0.002953  0.036320  3.947381
  0C   1pz        0.103896  0.000425  0.070480 -0.360108 -0.002348  0.001691
  0C   1px        0.103896 -0.000425 -0.070480  0.360108  0.002348 -0.001691
  0C   1py       -0.000000 -0.034614 -0.000601  0.003824 -0.273657  0.358806
  0C   2pz       -0.214779 -0.001267  0.021048  0.797483  0.005486 -0.003487
  0C   2px       -0.214779  0.001267 -0.021048 -0.797483 -0.005486  0.003487
  0C   2py       -0.000000 -0.191553  0.001017 -0.008648  0.659539 -0.730663
  0C   1dz2      -0.000147  0.057672  0.000113 -0.000468 -0.011585  0.042563
  0C   1dxz       0.000000  0.041027 -0.000491  0.000186  0.123485 -0.044215
  0C   1dyz      -0.027472 -0.000270  0.057352 -0.112266  0.000070 -0.000350
  0C   1dx2y2     0.000085  0.099891  0.000196 -0.000810 -0.020065  0.073722
  0C   1dxy      -0.027472  0.000270 -0.057352  0.112266 -0.000070  0.000350
  1Cl  1s        -0.000000 -0.002382  0.005409  0.002452  0.004355  0.011661
  1Cl  2s         0.000000  0.021473 -0.040601 -0.020976 -0.032140 -0.093232
  1Cl  3s        -0.000000 -0.240235  0.159917  0.182883  0.091099  0.603163
  1Cl  4s         0.000000  0.897408 -0.171261 -0.684491  0.111182 -1.630171
  1Cl  1pz       -0.039448  0.028562  0.022982 -0.070727  0.108409  0.074623
  1Cl  1px       -0.039448 -0.028562 -0.022982  0.070727 -0.108409 -0.074623
  1Cl  1py        0.000000  0.012814 -0.137449  0.020015 -0.104127 -0.029047
  1Cl  2pz       -0.125724  0.107421  0.073679 -0.235858  0.351402  0.212005
  1Cl  2px       -0.125724 -0.107421 -0.073679  0.235858 -0.351402 -0.212005
  1Cl  2py        0.000000  0.025315 -0.438464  0.079882 -0.333161 -0.076892
  1Cl  3pz        0.114803 -0.354839 -0.056182  0.357657 -0.388826  0.275760
  1Cl  3px        0.114803  0.354839  0.056182 -0.357657  0.388826 -0.275760
  1Cl  3py        0.000000  0.232995  0.350486 -0.319086  0.288868 -0.239864
  1Cl  1dz2      -0.200628 -0.249129  0.234915  0.198590  0.073880 -0.168560
  1Cl  1dxz      -0.000000  0.005294 -0.029271 -0.168342  0.389890 -0.088364
  1Cl  1dyz      -0.455157  0.134887  0.253257 -0.256049  0.164333 -0.056126
  1Cl  1dx2y2     0.115833 -0.431505  0.406884  0.343968  0.127964 -0.291955
  1Cl  1dxy      -0.455157 -0.134887 -0.253257  0.256049 -0.164333  0.056126
  2Cl  1s        -0.000000 -0.002417 -0.005419 -0.002451  0.004330  0.011664
  2Cl  2s         0.000000  0.021728  0.040666  0.020955 -0.031930 -0.093265
  2Cl  3s        -0.000000 -0.241083 -0.159653 -0.182020  0.089443  0.603597
  2Cl  4s         0.000000  0.897686  0.168824  0.680145  0.117158 -1.632469
  2Cl  1pz       -0.039499 -0.028253  0.024150 -0.070359 -0.109658 -0.074476
  2Cl  1px       -0.039499  0.028253 -0.024150  0.070359  0.109658  0.074476
  2Cl  1py       -0.000000  0.013993  0.137207 -0.018422 -0.102838 -0.027774
  2Cl  2pz       -0.125889 -0.106517  0.077453 -0.234680 -0.355474 -0.211405
  2Cl  2px       -0.125889  0.106517 -0.077453  0.234680  0.355474  0.211405
  2Cl  2py       -0.000000  0.029305  0.437747 -0.074632 -0.329113 -0.073106
  2Cl  3pz        0.114951  0.355460 -0.060044  0.356547  0.393678 -0.278694
  2Cl  3px        0.114951 -0.355460  0.060044 -0.356547 -0.393678  0.278694
  2Cl  3py        0.000000  0.226041 -0.350915  0.312103  0.286413 -0.238112
  2Cl  1dz2       0.194660 -0.251581 -0.230393 -0.202802  0.070532 -0.167652
  2Cl  1dxz       0.000000  0.007056  0.025902  0.167897  0.393487 -0.089986
  2Cl  1dyz      -0.455555 -0.127483  0.259134 -0.249486 -0.165106  0.060427
  2Cl  1dx2y2    -0.112387 -0.435751 -0.399052 -0.351263  0.122166 -0.290382
  2Cl  1dxy      -0.455555  0.127483 -0.259134  0.249486  0.165106 -0.060427
  3H   1s         0.098270  0.350277 -0.000586  0.000246 -0.188646 -0.450359
  3H   2s        -0.341168  0.820332 -0.002085  0.000691 -0.203220 -0.448449
  3H   1pz       -0.004385 -0.033781  0.061421 -0.009846  0.013269 -0.009367
  3H   1px       -0.004545 -0.033539 -0.061196  0.009674  0.013475 -0.009191
  3H   1py        0.016577 -0.095265 -0.000041  0.000023 -0.024760 -0.054986
  4H   1s        -0.098270  0.350277 -0.000586  0.000246 -0.188646 -0.450359
  4H   2s         0.341168  0.820332 -0.002085  0.000691 -0.203220 -0.448449
  4H   1pz       -0.004545  0.033539  0.061196 -0.009674 -0.013475  0.009191
  4H   1px       -0.004385  0.033781 -0.061421  0.009846 -0.013269  0.009367
  4H   1py       -0.016577 -0.095265 -0.000041  0.000023 -0.024760 -0.054986
                     42        43        44        45        46        47   
                   0.74081   0.76455   0.78620   0.92304   0.98968   1.14918
                   0.00000   0.00000   0.00000   0.00000   0.00000   0.00000
                  --------  --------  --------  --------  --------  --------
  0C   1s        -0.000000 -0.020043  0.000000 -0.000007 -0.000000  0.000000
  0C   2s         0.000000  0.261005 -0.000000  0.000072  0.000000 -0.000000
  0C   3s        -0.000000 -0.834434  0.000000  0.000063  0.000000 -0.000000
  0C   1pz        0.177352  0.000025  0.000009  0.058824 -0.110289  0.000014
  0C   1px        0.177352 -0.000025  0.000009 -0.058824 -0.110289  0.000014
  0C   1py       -0.000000 -0.002728 -0.000000 -0.000386 -0.000000  0.000000
  0C   2pz       -0.526901  0.000717 -0.000013 -0.541833  0.958279 -0.000114
  0C   2px       -0.526901 -0.000717 -0.000013  0.541833  0.958279 -0.000114
  0C   2py        0.000000  0.244869  0.000000  0.003385  0.000000  0.000000
  0C   1dz2      -0.000152 -0.027285 -0.066087 -0.000069 -0.000234  0.326130
  0C   1dxz       0.000000 -0.017312  0.000000  0.000069  0.000000 -0.000000
  0C   1dyz      -0.025265  0.000234  0.000263 -0.011111 -0.047687 -0.001262
  0C   1dx2y2     0.000088 -0.047259  0.038155 -0.000119  0.000135 -0.188291
  0C   1dxy      -0.025265 -0.000234  0.000263  0.011111 -0.047687 -0.001262
  1Cl  1s        -0.000000  0.001509 -0.000000  0.000177 -0.000000  0.000000
  1Cl  2s         0.000000 -0.010928  0.000000 -0.000274  0.000000 -0.000000
  1Cl  3s        -0.000000  0.006215 -0.000000 -0.056790 -0.000000  0.000000
  1Cl  4s         0.000000  0.208570  0.000000  0.387114  0.000000 -0.000000
  1Cl  1pz        0.143884  0.100903  0.186941 -0.086369  0.119810  0.055900
  1Cl  1px        0.143884 -0.100903  0.186941  0.086369  0.119810  0.055900
  1Cl  1py        0.000000  0.223304 -0.000000 -0.215219 -0.000000  0.000000
  1Cl  2pz        0.458537  0.329811  0.608264 -0.288894  0.427302  0.201985
  1Cl  2px        0.458537 -0.329811  0.608264  0.288894  0.427302  0.201985
  1Cl  2py        0.000000  0.721920 -0.000000 -0.737532 -0.000000  0.000000
  1Cl  3pz       -0.328153 -0.373741 -0.526084  0.179116 -0.572266 -0.228146
  1Cl  3px       -0.328153  0.373741 -0.526084 -0.179116 -0.572266 -0.228146
  1Cl  3py        0.000000 -0.562978  0.000000  0.884027  0.000000 -0.000000
  1Cl  1dz2      -0.388907  0.032091 -0.005152 -0.105686  0.366545  0.130088
  1Cl  1dxz      -0.000000  0.075114  0.000000  0.116269  0.000000  0.000000
  1Cl  1dyz       0.049497 -0.093762  0.080883 -0.136765 -0.179871 -0.096972
  1Cl  1dx2y2     0.224536  0.055583  0.002974 -0.183053 -0.211625 -0.075106
  1Cl  1dxy       0.049497  0.093762  0.080883  0.136765 -0.179871 -0.096972
  2Cl  1s        -0.000000  0.001510  0.000000 -0.000176  0.000000 -0.000000
  2Cl  2s         0.000000 -0.010936 -0.000000  0.000265 -0.000000  0.000000
  2Cl  3s        -0.000000  0.006251  0.000000  0.056823  0.000000 -0.000000
  2Cl  4s         0.000000  0.208565 -0.000000 -0.387272 -0.000000  0.000000
  2Cl  1pz        0.143932 -0.099491 -0.186884 -0.085000  0.119845 -0.055883
  2Cl  1px        0.143932  0.099491 -0.186884  0.085000  0.119845 -0.055883
  2Cl  1py        0.000000  0.224525 -0.000000  0.216328  0.000000 -0.000000
  2Cl  2pz        0.458692 -0.325244 -0.608079 -0.284204  0.427428 -0.201934
  2Cl  2px        0.458692  0.325244 -0.608079  0.284204  0.427428 -0.201934
  2Cl  2py        0.000000  0.725912 -0.000000  0.741242  0.000000 -0.000000
  2Cl  3pz       -0.328256  0.370178  0.525920  0.173510 -0.572465  0.228139
  2Cl  3px       -0.328256 -0.370178  0.525920 -0.173510 -0.572465  0.228139
  2Cl  3py        0.000000 -0.567566  0.000000 -0.886397 -0.000000  0.000000
  2Cl  1dz2       0.389279  0.033147 -0.005993  0.104187 -0.368547  0.131176
  2Cl  1dxz       0.000000  0.073947 -0.000000 -0.114543  0.000000 -0.000000
  2Cl  1dyz       0.046703  0.093500 -0.080885 -0.139760 -0.177252  0.096063
  2Cl  1dx2y2    -0.224750  0.057412  0.003460  0.180457  0.212781 -0.075735
  2Cl  1dxy       0.046703 -0.093500 -0.080885  0.139760 -0.177252  0.096063
  3H   1s        -0.033738  0.021963  0.000032  0.000040  0.342646 -0.000036
  3H   2s        -0.566772  0.188066 -0.000073  0.000001  0.384827 -0.000088
  3H   1pz       -0.031707  0.025861  0.100164 -0.042798  0.094829 -0.371717
  3H   1px       -0.031360  0.025389 -0.100152  0.042798  0.094013  0.371711
  3H   1py       -0.051233  0.078939 -0.000657  0.000275  0.126537  0.002434
  4H   1s         0.033738  0.021963 -0.000032  0.000040 -0.342646  0.000036
  4H   2s         0.566772  0.188066  0.000073  0.000001 -0.384827  0.000088
  4H   1pz       -0.031360 -0.025389 -0.100152 -0.042798  0.094013  0.371711
  4H   1px       -0.031707 -0.025861  0.100164  0.042798  0.094829 -0.371717
  4H   1py        0.051233  0.078939  0.000657  0.000275 -0.126537 -0.002434
                     48        49        50        51        52        53   
                   1.15330   1.23122   1.39361   1.51982   1.73316   1.73926
                   0.00000   0.00000   0.00000   0.00000   0.00000   0.00000
                  --------  --------  --------  --------  --------  --------
  0C   1s         0.000001  0.035431  0.003638 -0.000000  0.000000 -0.000065
  0C   2s        -0.000586  0.573561  0.218594  0.000000 -0.000000  0.000278
  0C   3s         0.002322 -4.345653 -1.264937 -0.000000  0.000000  0.000941
  0C   1pz        0.282864  0.001009 -0.000048 -0.115818 -0.349065 -0.109983
  0C   1px       -0.282864 -0.001009  0.000048 -0.115818 -0.349065  0.109983
  0C   1py       -0.001802  0.226561 -0.033584  0.000000 -0.000000  0.000709
  0C   2pz        0.469483  0.001552  0.004603  0.953096  0.053759 -1.332591
  0C   2px       -0.469483 -0.001552 -0.004603  0.953096  0.053759  1.332591
  0C   2py       -0.003303  0.479569  1.451995 -0.000000  0.000000  0.007675
  0C   1dz2       0.000313 -0.025376  0.265851  0.000327  0.002217  0.001157
  0C   1dxz      -0.000282 -0.055669  0.004891 -0.000000  0.000000 -0.001718
  0C   1dyz       0.056190  0.000090 -0.002878  0.049206  0.395402  0.212399
  0C   1dx2y2     0.000541 -0.043952  0.460467 -0.000189 -0.001280  0.002004
  0C   1dxy      -0.056190 -0.000090  0.002878  0.049206  0.395402 -0.212399
  1Cl  1s         0.019028 -0.016183 -0.002604 -0.000000  0.000000 -0.000466
  1Cl  2s        -0.151101  0.133754  0.024635  0.000000  0.000000  0.011612
  1Cl  3s         0.779471 -0.904153 -0.287940 -0.000000 -0.000000 -0.319116
  1Cl  4s        -1.198026  2.085790  1.047766  0.000000  0.000000  1.267849
  1Cl  1pz       -0.143732  0.090097  0.028702  0.020544  0.010399 -0.008409
  1Cl  1px        0.143732 -0.090097 -0.028702  0.020544  0.010399  0.008409
  1Cl  1py        0.097080 -0.118615  0.022523 -0.000000 -0.000000 -0.006747
  1Cl  2pz       -0.531295  0.371047  0.141402  0.093745  0.033346  0.008038
  1Cl  2px        0.531295 -0.371047 -0.141402  0.093745  0.033346 -0.008038
  1Cl  2py        0.369081 -0.466149  0.088803 -0.000000 -0.000000 -0.084041
  1Cl  3pz        0.741944 -0.939609 -0.560120 -0.256469 -0.041109 -0.370183
  1Cl  3px       -0.741944  0.939609  0.560120 -0.256469 -0.041109  0.370183
  1Cl  3py       -0.606999  0.946909  0.003811  0.000000  0.000000  0.635163
  1Cl  1dz2       0.019871  0.032458  0.157788  0.173027 -0.064323 -0.055048
  1Cl  1dxz       0.250262 -0.259747 -0.259761  0.000000 -0.000000 -0.127312
  1Cl  1dyz       0.190609 -0.297335 -0.003024 -0.078429  0.003322 -0.194910
  1Cl  1dx2y2     0.034417  0.056219  0.273296 -0.099897  0.037137 -0.095346
  1Cl  1dxy      -0.190609  0.297335  0.003024 -0.078429  0.003322  0.194910
  2Cl  1s        -0.019010 -0.016203 -0.002608 -0.000000  0.000000  0.000463
  2Cl  2s         0.150950  0.133916  0.024662  0.000000 -0.000000 -0.011605
  2Cl  3s        -0.778533 -0.905060 -0.288088 -0.000000  0.000000  0.319439
  2Cl  4s         1.195930  2.087413  1.048255  0.000000 -0.000000 -1.269442
  2Cl  1pz       -0.144219 -0.090976 -0.028580  0.020549  0.010404 -0.008384
  2Cl  1px        0.144219  0.090976  0.028580  0.020549  0.010404  0.008384
  2Cl  1py       -0.095134 -0.117568  0.022864 -0.000000  0.000000  0.006841
  2Cl  2pz       -0.533137 -0.374495 -0.140929  0.093764  0.033352  0.008566
  2Cl  2px        0.533137  0.374495  0.140929  0.093764  0.033352 -0.008566
  2Cl  2py       -0.361889 -0.461828  0.090518 -0.000000  0.000000  0.083952
  2Cl  3pz        0.744703  0.946397  0.560360 -0.256556 -0.041079 -0.374722
  2Cl  3px       -0.744703 -0.946397 -0.560360 -0.256556 -0.041079  0.374722
  2Cl  3py        0.596788  0.935724 -0.003164  0.000000 -0.000000 -0.630983
  2Cl  1dz2      -0.017903  0.035703  0.157849 -0.173878  0.064459  0.052917
  2Cl  1dxz      -0.252426 -0.263806 -0.259874 -0.000000  0.000000  0.130008
  2Cl  1dyz       0.189243  0.295186 -0.002050 -0.077184  0.002899 -0.195510
  2Cl  1dx2y2    -0.031010  0.061839  0.273403  0.100388 -0.037215  0.091655
  2Cl  1dxy      -0.189243 -0.295186  0.002050 -0.077184  0.002899  0.195510
  3H   1s        -0.000356  0.554505 -0.098256  0.382357  0.169621  0.000119
  3H   2s        -0.000197  0.447825 -0.121945  0.397017 -0.310812  0.000019
  3H   1pz        0.035234 -0.010161 -0.164363 -0.370719 -0.218934  0.551624
  3H   1px       -0.035160 -0.010972 -0.161945 -0.367515 -0.222210 -0.551665
  3H   1py       -0.000246  0.118000 -0.399740 -0.492109  0.507314 -0.003380
  4H   1s        -0.000356  0.554505 -0.098256 -0.382357 -0.169621  0.000119
  4H   2s        -0.000197  0.447825 -0.121945 -0.397017  0.310812  0.000019
  4H   1pz        0.035160  0.010972  0.161945 -0.367515 -0.222210  0.551665
  4H   1px       -0.035234  0.010161  0.164363 -0.370719 -0.218934 -0.551624
  4H   1py       -0.000246  0.118000 -0.399740  0.492109 -0.507314 -0.003380
                     54        55        56        57        58        59   
                   1.82154   2.03925   2.03930   2.18375   2.57528   2.69971
                   0.00000   0.00000   0.00000   0.00000   0.00000   0.00000
                  --------  --------  --------  --------  --------  --------
  0C   1s        -0.090619  0.000035 -0.000000  0.040513  0.186623 -0.000000
  0C   2s         0.214378  0.000050 -0.000000 -0.333139 -1.158699  0.000000
  0C   3s         1.959227 -0.001296  0.000000  0.290824 -0.509457 -0.000000
  0C   1pz        0.000795  0.052383  0.000007 -0.000651 -0.002434  0.736140
  0C   1px       -0.000795 -0.052383  0.000008  0.000651  0.002434  0.736140
  0C   1py        0.233826 -0.000239  0.000000 -0.202086 -0.732856  0.000000
  0C   2pz       -0.001468  0.273106  0.000187 -0.002562 -0.001839  0.692382
  0C   2px        0.001468 -0.273106  0.000187  0.002562  0.001839  0.692382
  0C   2py       -0.679498 -0.000986  0.000000 -0.781495 -0.589866  0.000000
  0C   1dz2       0.123455 -0.004481 -0.876947  0.447978 -0.058377  0.005411
  0C   1dxz      -0.718085  0.005214 -0.000000  0.136883 -1.085138  0.000000
  0C   1dyz      -0.003978 -0.771908  0.003322 -0.004856 -0.002906  0.942894
  0C   1dx2y2     0.213830 -0.007762  0.506306  0.775920 -0.101112 -0.003124
  0C   1dxy       0.003978  0.771908  0.003322  0.004856  0.002906  0.942894
  1Cl  1s        -0.001627 -0.002230  0.000000  0.001164 -0.001137 -0.000000
  1Cl  2s         0.004131  0.009003 -0.000000 -0.010676  0.005198  0.000000
  1Cl  3s         0.247393  0.172429 -0.000000  0.118736  0.068187 -0.000000
  1Cl  4s        -0.971988 -0.516508  0.000000 -0.450505 -0.236411  0.000000
  1Cl  1pz        0.007081  0.013984  0.004059 -0.006255  0.010486  0.000807
  1Cl  1px       -0.007081 -0.013984  0.004059  0.006255 -0.010486  0.000807
  1Cl  1py       -0.011688 -0.015731  0.000000 -0.004848 -0.005730 -0.000000
  1Cl  2pz       -0.023211 -0.005571 -0.001278 -0.030119  0.015559  0.007057
  1Cl  2px        0.023211  0.005571 -0.001278  0.030119 -0.015559  0.007057
  1Cl  2py        0.009439 -0.016909  0.000000 -0.008319 -0.000596 -0.000000
  1Cl  3pz        0.416814  0.245805  0.046581  0.187715  0.102261 -0.085568
  1Cl  3px       -0.416814 -0.245805  0.046581 -0.187715 -0.102261 -0.085568
  1Cl  3py       -0.310917 -0.195556  0.000000 -0.060729 -0.051120  0.000000
  1Cl  1dz2       0.012411 -0.037521 -0.112702 -0.002264 -0.006642  0.028627
  1Cl  1dxz       0.181200  0.222212 -0.000000 -0.007581  0.078590 -0.000000
  1Cl  1dyz       0.203634  0.166750  0.069810  0.035958  0.061890 -0.018181
  1Cl  1dx2y2     0.021496 -0.064989  0.065068 -0.003921 -0.011505 -0.016528
  1Cl  1dxy      -0.203634 -0.166750  0.069810 -0.035958 -0.061890 -0.018181
  2Cl  1s        -0.001632  0.002240 -0.000000  0.001169 -0.001142 -0.000000
  2Cl  2s         0.004178 -0.009071  0.000000 -0.010711  0.005244  0.000000
  2Cl  3s         0.246854 -0.172602  0.000000  0.118733  0.067958 -0.000000
  2Cl  4s        -0.970679  0.517989 -0.000000 -0.450576 -0.236161  0.000000
  2Cl  1pz       -0.007164  0.014133 -0.004063  0.006254 -0.010542  0.000814
  2Cl  1px        0.007164 -0.014133 -0.004063 -0.006254  0.010542  0.000814
  2Cl  1py       -0.011619  0.015613 -0.000000 -0.004906 -0.005624 -0.000000
  2Cl  2pz        0.023149 -0.005349  0.001279  0.030118 -0.015658  0.007076
  2Cl  2px       -0.023149  0.005349  0.001279 -0.030118  0.015658  0.007076
  2Cl  2py        0.009007  0.017122 -0.000000 -0.008640 -0.000501 -0.000000
  2Cl  3pz       -0.418206  0.247597 -0.046674 -0.188025 -0.102456 -0.085605
  2Cl  3px        0.418206 -0.247597 -0.046674  0.188025  0.102456 -0.085605
  2Cl  3py       -0.305029  0.192808 -0.000000 -0.058409 -0.049697  0.000000
  2Cl  1dz2       0.010242  0.039334 -0.113553 -0.002577 -0.007289 -0.028749
  2Cl  1dxz       0.183406 -0.224527  0.000000 -0.007391  0.079330 -0.000000
  2Cl  1dyz      -0.202462  0.164804 -0.069072 -0.035847 -0.061226 -0.017960
  2Cl  1dx2y2     0.017740  0.068128  0.065560 -0.004463 -0.012625  0.016598
  2Cl  1dxy       0.202462 -0.164804 -0.069072  0.035847  0.061226 -0.017960
  3H   1s        -0.051861  0.000010  0.000045  0.126317  0.818546  0.978067
  3H   2s        -0.342873  0.000063  0.000136  0.217450  0.401969  0.535741
  3H   1pz       -0.248025  0.245329 -0.380191  0.401443  0.557682  0.587698
  3H   1px       -0.249804 -0.245478  0.380178  0.398273  0.561892  0.591537
  3H   1py        0.324280 -0.001894  0.002450  0.462237 -0.628574 -0.577550
  4H   1s        -0.051861  0.000010 -0.000045  0.126317  0.818546 -0.978067
  4H   2s        -0.342873  0.000063 -0.000136  0.217450  0.401969 -0.535741
  4H   1pz        0.249804  0.245478  0.380178 -0.398273 -0.561892  0.591537
  4H   1px        0.248025 -0.245329 -0.380191 -0.401443 -0.557682  0.587698
  4H   1py        0.324280 -0.001894 -0.002450  0.462237 -0.628574  0.577550
--------------
SCF ITERATIONS
--------------
               ***  Starting incremental Fock matrix formation  ***

                         ----------------------------
                         !        ITERATION     0   !
                         ----------------------------
   Total Energy        :    -959.191878144814 Eh
   Energy Change       :    -959.191878144814 Eh
   MAX-DP              :       0.023144491717
   RMS-DP              :       0.001149015446
   Actual Damping      :       0.7000
   Actual Level Shift  :       0.2500 Eh
   Int. Num. El.       :    41.99993644 (UP=   20.99996822 DN=   20.99996822)
   Exchange            :   -60.96039494
   Correlation         :    -1.59473187

                      *** Initiating the SOSCF procedure ***
                      *** Re-Reading the Fockian *** 
                      *** Removing any level shift *** 

                         ----------------------------
                         !        ITERATION     1   !
                         ----------------------------
   Total Energy        :    -959.194801726408 Eh
   Energy Change       :      -0.002923581594 Eh
   MAX-DP              :       0.053680531369
   RMS-DP              :       0.002929276872
   Orbital gradient    :       0.003229464292
   Orbital Rotation    :       0.003229464292
   Actual Damping      :       0.0000
   Int. Num. El.       :    41.99993548 (UP=   20.99996774 DN=   20.99996774)
   Exchange            :   -60.91999822
   Correlation         :    -1.59409610

               *** Restarting incremental Fock matrix formation ***

                         ----------------------------
                         !        ITERATION     2   !
                         ----------------------------
   Total Energy        :    -959.198842563785 Eh
   Energy Change       :      -0.004040837377 Eh
   MAX-DP              :       0.037811234912
   RMS-DP              :       0.001859543318
   Orbital gradient    :       0.007278078255
   Orbital Rotation    :       0.006713580240
   Actual Damping      :       0.0000
   Int. Num. El.       :    41.99993276 (UP=   20.99996638 DN=   20.99996638)
   Exchange            :   -60.82191220
   Correlation         :    -1.59253424


                         ----------------------------
                         !        ITERATION     3   !
                         ----------------------------
   Total Energy        :    -959.199197749191 Eh
   Energy Change       :      -0.000355185406 Eh
   MAX-DP              :       0.015306974654
   RMS-DP              :       0.000827428998
   Orbital gradient    :       0.005110316793
   Orbital Rotation    :       0.004159068710
   Actual Damping      :       0.0000
   Int. Num. El.       :    41.99993431 (UP=   20.99996716 DN=   20.99996716)
   Exchange            :   -60.88693665
   Correlation         :    -1.59367886


                         ----------------------------
                         !        ITERATION     4   !
                         ----------------------------
   Total Energy        :    -959.199578663833 Eh
   Energy Change       :      -0.000380914642 Eh
   MAX-DP              :       0.001386027720
   RMS-DP              :       0.000076856087
   Orbital gradient    :       0.000501980597
   Orbital Rotation    :       0.000791506270
   Actual Damping      :       0.0000
   Int. Num. El.       :    41.99993354 (UP=   20.99996677 DN=   20.99996677)
   Exchange            :   -60.85963422
   Correlation         :    -1.59309864


                         ----------------------------
                         !        ITERATION     5   !
                         ----------------------------
   Total Energy        :    -959.199579464625 Eh
[...]



------------------- 
Dispersion Gradient 
------------------- 
   1  :   -0.000000724    0.000218992    0.000000641
   2  :   -0.000909660   -0.000310580    0.000908825
   3  :    0.000913055   -0.000299979   -0.000911422
   4  :   -0.000156881    0.000214714   -0.000154892
   5  :    0.000154746    0.000214422    0.000156398

  |G| =    0.005525930


The revPBE functional is recognized
Active option DFTDOPT                   ...         5   



------------------- 
Dispersion Gradient 
------------------- 
   1  :   -0.000000664    0.000219200    0.000000749
   2  :   -0.000908305   -0.000310595    0.000909141
   3  :    0.000908721   -0.000298189   -0.000910352
   4  :   -0.000155644    0.000213897   -0.000154933
   5  :    0.000155078    0.000214190    0.000156127

  |G| =    0.005515785


The revPBE functional is recognized
Active option DFTDOPT                   ...         5   



------------------- 
Dispersion Gradient 
------------------- 
   1  :    0.000000244    0.000219693    0.000001370
   2  :   -0.000909598   -0.000310964    0.000909119
   3  :    0.000910722   -0.000299028   -0.000910868
   4  :   -0.000156404    0.000214403   -0.000154904
   5  :    0.000156499    0.000215419    0.000156813

  |G| =    0.005526047


The revPBE functional is recognized
Active option DFTDOPT                   ...         5   



------------------- 
Dispersion Gradient 
------------------- 
   1  :   -0.000001610    0.000218522    0.000000043
   2  :   -0.000908370   -0.000310211    0.000908848
   3  :    0.000911045   -0.000299134   -0.000910899
   4  :   -0.000156122    0.000214210   -0.000154923
   5  :    0.000153352    0.000213211    0.000155732

  |G| =    0.005516234


Dispersion correction Hessian from Numerical Differentiation: 
                  0          1          2          3          4          5    
      0      -0.000360   0.000000   0.000000   0.000000   0.000000   0.000000
      1       0.000000   0.000000   0.000000   0.000000   0.000000   0.000000
      2       0.000000   0.000000   0.000000   0.000000   0.000000   0.000000
      3       0.000000   0.000000   0.000000   0.000000   0.000000   0.000000
      4       0.000000   0.000000   0.000000   0.000000   0.000000   0.000000
      5       0.000000   0.000000   0.000000   0.000000   0.000000   0.000000
      6      -0.000006  -0.000021  -0.000011  -0.000135   0.000002  -0.000032
      7       0.000000   0.000000   0.000000   0.000000   0.000000   0.000000
      8       0.000000   0.000000   0.000000   0.000000   0.000000   0.000000
      9       0.000000   0.000000   0.000000   0.000000   0.000000   0.000000
     10       0.000000   0.000000   0.000000   0.000000   0.000000   0.000000
     11       0.000000   0.000000   0.000000   0.000000   0.000000   0.000000
     12       0.000185   0.000117   0.000133  -0.000123  -0.000075   0.000027
     13       0.000000   0.000000   0.000000   0.000000   0.000000   0.000000
     14       0.000000   0.000000   0.000000   0.000000   0.000000   0.000000
                  6          7          8          9         10         11    
      0      -0.000006   0.000000   0.000000   0.000000   0.000000   0.000000
      1      -0.000021   0.000000   0.000000   0.000000   0.000000   0.000000
      2      -0.000011   0.000000   0.000000   0.000000   0.000000   0.000000
      3      -0.000135   0.000000   0.000000   0.000000   0.000000   0.000000
      4       0.000002   0.000000   0.000000   0.000000   0.000000   0.000000
      5      -0.000032   0.000000   0.000000   0.000000   0.000000   0.000000
      6       0.000433   0.000000   0.000000   0.000000   0.000000   0.000000
      7       0.000000   0.000000   0.000000   0.000000   0.000000   0.000000
      8       0.000000   0.000000   0.000000   0.000000   0.000000   0.000000
      9       0.000000   0.000000   0.000000   0.000000   0.000000   0.000000
     10       0.000000   0.000000   0.000000   0.000000   0.000000   0.000000
     11       0.000000   0.000000   0.000000   0.000000   0.000000   0.000000
     12      -0.000032   0.000011   0.000003  -0.000028   0.000019   0.000002
     13       0.000000   0.000000   0.000000   0.000000   0.000000   0.000000
     14       0.000000   0.000000   0.000000   0.000000   0.000000   0.000000
                  12         13         14    
      0       0.000185   0.000000   0.000000
      1       0.000117   0.000000   0.000000
      2       0.000133   0.000000   0.000000
      3      -0.000123   0.000000   0.000000
      4      -0.000075   0.000000   0.000000
      5       0.000027   0.000000   0.000000
      6      -0.000032   0.000000   0.000000
      7       0.000011   0.000000   0.000000
      8       0.000003   0.000000   0.000000
      9      -0.000028   0.000000   0.000000
     10       0.000019   0.000000   0.000000
     11       0.000002   0.000000   0.000000
     12       0.000315   0.000000   0.000000
     13       0.000000   0.000000   0.000000
     14       0.000000   0.000000   0.000000

done   (      0.4 sec)
gCP correction in the Hessian                    ...  
-----------------
gCP hessian 
from Numerical Differentiation: 
-----------------
                  0          1          2          3          4          5    
      0      -0.000171   0.000000   0.000109  -0.000097  -0.000561   0.000597
      1       0.000000  -0.000401  -0.000000  -0.000561  -0.000026   0.000561
      2       0.000109  -0.000000  -0.000171   0.000597   0.000561  -0.000097
      3      -0.000097  -0.000561   0.000597   0.000339   0.001158  -0.001078
      4      -0.000561  -0.000026   0.000561   0.001158   0.000414  -0.001158
      5       0.000597   0.000561  -0.000097  -0.001078  -0.001158   0.000339
      6      -0.000104   0.000556   0.000604  -0.000144  -0.000001   0.000237
      7       0.000556  -0.000012  -0.000556  -0.000001   0.000093   0.000001
      8       0.000604  -0.000556  -0.000104   0.000237   0.000001  -0.000144
      9       0.000181   0.000639  -0.000655   0.000188  -0.000116   0.000122
     10       0.000639   0.000220   0.000635  -0.000116  -0.000240   0.000480
     11      -0.000655   0.000635   0.000190   0.000122   0.000480  -0.000286
     12       0.000190  -0.000635  -0.000655  -0.000286  -0.000480   0.000122
     13      -0.000635   0.000220  -0.000639  -0.000480  -0.000240   0.000116
     14      -0.000655  -0.000639   0.000181   0.000122   0.000116   0.000188
                  6          7          8          9         10         11    
      0      -0.000104   0.000556   0.000604   0.000181   0.000639  -0.000655
      1       0.000556  -0.000012  -0.000556   0.000639   0.000220   0.000635
      2       0.000604  -0.000556  -0.000104  -0.000655   0.000635   0.000190
      3      -0.000144  -0.000001   0.000237   0.000188  -0.000116   0.000122
      4      -0.000001   0.000093   0.000001  -0.000116  -0.000240   0.000480
      5       0.000237   0.000001  -0.000144   0.000122   0.000480  -0.000286
      6       0.000354  -0.001152  -0.001092  -0.000292   0.000479   0.000125
      7      -0.001152   0.000385   0.001152   0.000479  -0.000233  -0.000118
      8      -0.001092   0.001152   0.000354   0.000125  -0.000118   0.000187
      9      -0.000292   0.000479   0.000125  -0.000031  -0.001002   0.000512
     10       0.000479  -0.000233  -0.000118  -0.001002   0.000194  -0.000998
     11       0.000125  -0.000118   0.000187   0.000512  -0.000998  -0.000044
     12       0.000187   0.000118   0.000125  -0.000046   0.000000  -0.000105
     13       0.000118  -0.000233  -0.000479   0.000000   0.000059   0.000000
     14       0.000125  -0.000479  -0.000292  -0.000105   0.000000  -0.000046
                  12         13         14    
      0       0.000190  -0.000635  -0.000655
      1      -0.000635   0.000220  -0.000639
      2      -0.000655  -0.000639   0.000181
      3      -0.000286  -0.000480   0.000122
      4      -0.000480  -0.000240   0.000116
      5       0.000122   0.000116   0.000188
      6       0.000187   0.000118   0.000125
      7       0.000118  -0.000233  -0.000479
      8       0.000125  -0.000479  -0.000292
      9      -0.000046   0.000000  -0.000105
     10       0.000000   0.000059   0.000000
     11      -0.000105   0.000000  -0.000046
     12      -0.000044   0.000998   0.000512
     13       0.000998   0.000194   0.001002
     14       0.000512   0.001002  -0.000031

done   (      0.0 sec)
Dipol derivatives                                ... done   (      0.1 sec)

-------
TIMINGS
-------

Total SCF Hessian time: 0 days 0 hours 0 min 10 sec 
                   F(y)            G[Q(x)]           CPSCF         Total
Table01         0.3  0.03         0.3  0.03         3.8  0.35        10.8 
Table01a        0.3  0.03,        0.3, 0.03,        3.8  0.35        10.8 
Table01b        0.3   3.0,        0.3,  3.2,        3.8  34.9        10.8 

Writing the Hessian file to the disk             ... done


Maximum memory used throughout the entire calculation: 132.1 MB

-----------------------
VIBRATIONAL FREQUENCIES
-----------------------

Scaling factor for frequencies =  1.000000000  (already applied!)

   0:         0.00 cm**-1
   1:         0.00 cm**-1
   2:         0.00 cm**-1
   3:         0.00 cm**-1
   4:         0.00 cm**-1
   5:         0.00 cm**-1
   6:       270.42 cm**-1
   7:       682.09 cm**-1
   8:       691.30 cm**-1
   9:       867.37 cm**-1
  10:      1113.60 cm**-1
  11:      1229.86 cm**-1
  12:      1389.93 cm**-1
  13:      3003.58 cm**-1
  14:      3086.72 cm**-1


------------
NORMAL MODES
------------

These modes are the Cartesian displacements weighted by the diagonal matrix
M(i,i)=1/sqrt(m[i]) where m[i] is the mass of the displaced atom
Thus, these vectors are normalized but *not* orthogonal

                  0          1          2          3          4          5    
      0       0.000000   0.000000   0.000000   0.000000   0.000000   0.000000
      1       0.000000   0.000000   0.000000   0.000000   0.000000   0.000000
      2       0.000000   0.000000   0.000000   0.000000   0.000000   0.000000
      3       0.000000   0.000000   0.000000   0.000000   0.000000   0.000000
      4       0.000000   0.000000   0.000000   0.000000   0.000000   0.000000
      5       0.000000   0.000000   0.000000   0.000000   0.000000   0.000000
      6       0.000000   0.000000   0.000000   0.000000   0.000000   0.000000
      7       0.000000   0.000000   0.000000   0.000000   0.000000   0.000000
      8       0.000000   0.000000   0.000000   0.000000   0.000000   0.000000
      9       0.000000   0.000000   0.000000   0.000000   0.000000   0.000000
     10       0.000000   0.000000   0.000000   0.000000   0.000000   0.000000
     11       0.000000   0.000000   0.000000   0.000000   0.000000   0.000000
     12       0.000000   0.000000   0.000000   0.000000   0.000000   0.000000
     13       0.000000   0.000000   0.000000   0.000000   0.000000   0.000000
     14       0.000000   0.000000   0.000000   0.000000   0.000000   0.000000
                  6          7          8          9         10         11    
      0      -0.001261   0.000054   0.513070   0.121037  -0.000007   0.062912
      1       0.411737  -0.629164   0.000471   0.000000   0.000000   0.000404
      2       0.001261  -0.000054  -0.513070   0.121037  -0.000007  -0.062912
      3       0.339379   0.088422  -0.095432  -0.015316  -0.008640   0.003464
      4      -0.079623   0.122139  -0.094916  -0.000000  -0.000000   0.011656
      5      -0.339379  -0.088422   0.095432  -0.015316  -0.008640  -0.003464
      6      -0.338878  -0.088464  -0.096784  -0.015316   0.008641   0.003536
      7      -0.083893   0.120314   0.094771  -0.000000  -0.000000  -0.011610
      8       0.338878   0.088464   0.096784  -0.015316   0.008641  -0.003536
      9      -0.003299   0.056227   0.323725  -0.180416  -0.499904  -0.497951
     10       0.422514  -0.515274  -0.000265  -0.646771  -0.003136  -0.003217
     11      -0.000686   0.055379  -0.323251  -0.184441   0.499937   0.497912
     12       0.000686  -0.055379   0.323251  -0.184441   0.499937  -0.497912
     13       0.422514  -0.515273  -0.000265   0.646771   0.003136  -0.003217
     14       0.003300  -0.056228  -0.323725  -0.180416  -0.499904   0.497951
                  12         13         14    
      0       0.000254   0.000207  -0.070651
      1      -0.077326  -0.064739  -0.000000
      2      -0.000254  -0.000207  -0.070651
      3      -0.002467  -0.000121   0.000211
      4      -0.003132   0.000167   0.000000
      5       0.002467   0.000121   0.000211
      6       0.002486   0.000119   0.000211
      7      -0.003101   0.000168   0.000000
      8      -0.002486  -0.000119   0.000211
      9       0.291180  -0.421714   0.414765
     10       0.570305   0.379810  -0.391164
     11       0.294880  -0.419292   0.412272
     12      -0.294880   0.419292   0.412273
     13       0.570305   0.379810   0.391164
     14      -0.291180   0.421714   0.414766


-----------
IR SPECTRUM
-----------

 Mode    freq (cm**-1)   T**2         TX         TY         TZ
-------------------------------------------------------------------
   6:       270.42    0.574875  ( -0.002204   0.758199   0.002204)
   7:       682.09   13.495561  ( -0.023082  -3.673486   0.023082)
   8:       691.30  149.522882  (  8.646426   0.039131  -8.646425)
   9:       867.37    1.439270  ( -0.848312   0.000000  -0.848314)
  10:      1113.60    0.000000  (  0.000100   0.000000   0.000100)
  11:      1229.86   36.945387  (  4.297945   0.026800  -4.297945)
  12:      1389.93    0.002790  (  0.000633   0.052816  -0.000632)
  13:      3003.58   10.520072  (  0.010676  -3.243431  -0.010676)
  14:      3086.72    1.059448  ( -0.727821  -0.000001  -0.727821)

The first frequency considered to be a vibration is 6
The total number of vibrations considered is 9


--------------------------
THERMOCHEMISTRY AT 298.15K
--------------------------

Temperature         ... 298.15 K
Pressure            ... 1.00 atm
Total Mass          ... 84.93 AMU

Throughout the following assumptions are being made:
  (1) The electronic state is orbitally nondegenerate
  (2) There are no thermally accessible electronically excited states
  (3) Hindered rotations indicated by low frequency modes are not
      treated as such but are treated as vibrations and this may
      cause some error
  (4) All equations used are the standard statistical mechanics
      equations for an ideal gas
  (5) All vibrations are strictly harmonic

freq.     270.42  E(vib)   ...       0.29 
freq.     682.09  E(vib)   ...       0.08 
freq.     691.30  E(vib)   ...       0.07 
freq.     867.37  E(vib)   ...       0.04 
freq.    1113.60  E(vib)   ...       0.01 
freq.    1229.86  E(vib)   ...       0.01 
freq.    1389.93  E(vib)   ...       0.00 
freq.    3003.58  E(vib)   ...       0.00 
freq.    3086.72  E(vib)   ...       0.00 

------------
INNER ENERGY
------------

The inner energy is: U= E(el) + E(ZPE) + E(vib) + E(rot) + E(trans)
    E(el)   - is the total energy from the electronic structure calculation
              = E(kin-el) + E(nuc-el) + E(el-el) + E(nuc-nuc)
    E(ZPE)  - the the zero temperature vibrational energy from the frequency calculation
    E(vib)  - the the finite temperature correction to E(ZPE) due to population
              of excited vibrational states
    E(rot)  - is the rotational thermal energy
    E(trans)- is the translational thermal energy

Summary of contributions to the inner energy U:
Electronic energy                ...   -959.19573582 Eh
Zero point energy                ...      0.02810089 Eh      17.63 kcal/mol
Thermal vibrational correction   ...      0.00080209 Eh       0.50 kcal/mol
Thermal rotational correction    ...      0.00141627 Eh       0.89 kcal/mol
Thermal translational correction ...      0.00141627 Eh       0.89 kcal/mol
-----------------------------------------------------------------------
Total thermal energy                   -959.16400029 Eh


Summary of corrections to the electronic energy:
(perhaps to be used in another calculation)
Total thermal correction                  0.00363463 Eh       2.28 kcal/mol
Non-thermal (ZPE) correction              0.02810089 Eh      17.63 kcal/mol
-----------------------------------------------------------------------
Total correction                          0.03173552 Eh      19.91 kcal/mol


--------
ENTHALPY
--------

The enthalpy is H = U + kB*T
                kB is Boltzmann's constant
Total free energy                 ...   -959.16400029 Eh 
Thermal Enthalpy correction       ...      0.00094421 Eh       0.59 kcal/mol
-----------------------------------------------------------------------
Total Enthalpy                    ...   -959.16305609 Eh


Note: Rotational entropy computed according to Herzberg 
Infrared and Raman Spectra, Chapter V,1, Van Nostrand Reinhold, 1945 
Point Group:  Cs, Symmetry Number:   1  
Rotational constants in cm-1:     1.052956     0.104088     0.096552 

Vibrational entropy computed according to the QRRHO of S. Grimme
Chem.Eur.J. 2012 18 9955


-------
ENTROPY
-------

The entropy contributions are T*S = T*(S(el)+S(vib)+S(rot)+S(trans))
     S(el)   - electronic entropy
     S(vib)  - vibrational entropy
     S(rot)  - rotational entropy
     S(trans)- translational entropy
The entropies will be listed as mutliplied by the temperature to get
units of energy

Electronic entropy                ...      0.00000000 Eh      0.00 kcal/mol
Vibrational entropy               ...      0.00119599 Eh      0.75 kcal/mol
Rotational entropy                ...      0.01165816 Eh      7.32 kcal/mol
Translational entropy             ...      0.01863995 Eh     11.70 kcal/mol
-----------------------------------------------------------------------
Final entropy term                ...      0.03149410 Eh     19.76 kcal/mol

In case the symmetry of your molecule has not been determined correctly
or in case you have a reason to use a different symmetry number we print 
out the resulting rotational entropy values for sn=1,12 :
 --------------------------------------------------------
|  sn= 1 | S(rot)=       0.01165816 Eh      7.32 kcal/mol|
|  sn= 2 | S(rot)=       0.01100370 Eh      6.90 kcal/mol|
|  sn= 3 | S(rot)=       0.01062087 Eh      6.66 kcal/mol|
|  sn= 4 | S(rot)=       0.01034925 Eh      6.49 kcal/mol|
|  sn= 5 | S(rot)=       0.01013856 Eh      6.36 kcal/mol|
|  sn= 6 | S(rot)=       0.00996641 Eh      6.25 kcal/mol|
|  sn= 7 | S(rot)=       0.00982087 Eh      6.16 kcal/mol|
|  sn= 8 | S(rot)=       0.00969479 Eh      6.08 kcal/mol|
|  sn= 9 | S(rot)=       0.00958358 Eh      6.01 kcal/mol|
|  sn=10 | S(rot)=       0.00948410 Eh      5.95 kcal/mol|
|  sn=11 | S(rot)=       0.00939411 Eh      5.89 kcal/mol|
|  sn=12 | S(rot)=       0.00931196 Eh      5.84 kcal/mol|
 --------------------------------------------------------


-------------------
GIBBS FREE ENERGY
-------------------

The Gibbs free energy is G = H - T*S

Total enthalpy                    ...   -959.16305609 Eh 
Total entropy correction          ...     -0.03149410 Eh    -19.76 kcal/mol
-----------------------------------------------------------------------
Final Gibbs free energy         ...   -959.19455019 Eh

For completeness - the Gibbs free energy minus the electronic energy
G-E(el)                           ...      0.00118563 Eh      0.74 kcal/mol


Timings for individual modules:

Sum of individual times         ...       50.026 sec (=   0.834 min)
GTO integral calculation        ...        5.233 sec (=   0.087 min)  10.5 %
SCF iterations                  ...       25.028 sec (=   0.417 min)  50.0 %
SCF Gradient evaluation         ...        8.333 sec (=   0.139 min)  16.7 %
Geometry relaxation             ...        0.115 sec (=   0.002 min)   0.2 %
Analytical frequency calculation...       11.318 sec (=   0.189 min)  22.6 %
                             ****ORCA TERMINATED NORMALLY****
TOTAL RUN TIME: 0 days 0 hours 0 minutes 51 seconds 893 msec
