
                                 *****************
                                 * O   R   C   A *
                                 *****************

           --- An Ab Initio, DFT and Semiempirical electronic structure package ---

                  #######################################################
                  #                        -***-                        #
                  #          Department of theory and spectroscopy      #
                  #               Directorship: Frank Neese             #
                  #        Max Planck Institute fuer Kohlenforschung    #
                  #                Kaiser Wilhelm Platz 1               #
                  #                 D-45470 Muelheim/Ruhr               #
                  #                      Germany                        #
                  #                                                     #
                  #                  All rights reserved                #
                  #                        -***-                        #
                  #######################################################


                         Program Version 4.2.1 -  RELEASE  -


 With contributions from (in alphabetic order):
   Daniel Aravena         : Magnetic Suceptibility
   Michael Atanasov       : Ab Initio Ligand Field Theory (pilot matlab implementation)
   Alexander A. Auer      : GIAO ZORA, VPT2
   Ute Becker             : Parallelization
   Giovanni Bistoni       : ED, misc. LED, open-shell LED, HFLD
   Martin Brehm           : Molecular dynamics
   Dmytro Bykov           : SCF Hessian
   Vijay G. Chilkuri      : MRCI spin determinant printing, contributions to CSF-ICE
   Dipayan Datta          : RHF DLPNO-CCSD density
   Achintya Kumar Dutta   : EOM-CC, STEOM-CC
   Dmitry Ganyushin       : Spin-Orbit,Spin-Spin,Magnetic field MRCI
   Miquel Garcia          : C-PCM Hessian, Gaussian charge scheme
   Yang Guo               : DLPNO-NEVPT2, CIM, IAO-localization
   Andreas Hansen         : Spin unrestricted coupled pair/coupled cluster methods
   Benjamin Helmich-Paris : CASSCF linear response (MC-RPA)
   Lee Huntington         : MR-EOM, pCC
   Robert Izsak           : Overlap fitted RIJCOSX, COSX-SCS-MP3, EOM
   Christian Kollmar      : KDIIS, OOCD, Brueckner-CCSD(T), CCSD density
   Simone Kossmann        : Meta GGA functionals, TD-DFT gradient, OOMP2, MP2 Hessian
   Martin Krupicka        : AUTO-CI
   Lucas Lang             : DCDCAS
   Dagmar Lenk            : GEPOL surface, SMD
   Dimitrios Liakos       : Extrapolation schemes; Compound Job, initial MDCI parallelization
   Dimitrios Manganas     : Further ROCIS development; embedding schemes
   Dimitrios Pantazis     : SARC Basis sets
   Taras Petrenko         : DFT Hessian,TD-DFT gradient, ASA, ECA, R-Raman, ABS, FL, XAS/XES, NRVS
   Peter Pinski           : DLPNO-MP2, DLPNO-MP2 Gradient
   Christoph Reimann      : Effective Core Potentials
   Marius Retegan         : Local ZFS, SOC
   Christoph Riplinger    : Optimizer, TS searches, QM/MM, DLPNO-CCSD(T), (RO)-DLPNO pert. Triples
   Tobias Risthaus        : Range-separated hybrids, TD-DFT gradient, RPA, STAB
   Michael Roemelt        : Original ROCIS implementation
   Masaaki Saitow         : Open-shell DLPNO-CCSD energy and density
   Barbara Sandhoefer     : DKH picture change effects
   Avijit Sen             : IP-ROCIS
   Kantharuban Sivalingam : CASSCF convergence, NEVPT2, FIC-MRCI
   Bernardo de Souza      : ESD, SOC TD-DFT
   Georgi Stoychev        : AutoAux, RI-MP2 NMR
   Willem Van den Heuvel  : Paramagnetic NMR
   Boris Wezisla          : Elementary symmetry handling
   Frank Wennmohs         : Technical directorship


 We gratefully acknowledge several colleagues who have allowed us to
 interface, adapt or use parts of their codes:
   Stefan Grimme, W. Hujo, H. Kruse,             : VdW corrections, initial TS optimization,
                  C. Bannwarth                     DFT functionals, gCP, sTDA/sTD-DF
   Ed Valeev, F. Pavosevic, A. Kumar             : LibInt (2-el integral package), F12 methods
   Garnet Chan, S. Sharma, J. Yang, R. Olivares  : DMRG
   Ulf Ekstrom                                   : XCFun DFT Library
   Mihaly Kallay                                 : mrcc  (arbitrary order and MRCC methods)
   Andreas Klamt, Michael Diedenhofen            : otool_cosmo (COSMO solvation model)
   Jiri Pittner, Ondrej Demel                    : Mk-CCSD
   Frank Weinhold                                : gennbo (NPA and NBO analysis)
   Christopher J. Cramer and Donald G. Truhlar   : smd solvation model
   Lars Goerigk                                  : TD-DFT with DH, B97 family of functionals
   V. Asgeirsson, H. Jonsson                     : NEB implementation
   FAccTs GmbH                                   : IRC, NEB, NEB-TS, Multilevel, MM, QM/MM, CI optimization
   S Lehtola, MJT Oliveira, MAL Marques          : LibXC Library


 Your calculation uses the libint2 library for the computation of 2-el integrals
 For citations please refer to: http://libint.valeyev.net

 Your ORCA version has been built with support for libXC version: 4.2.3
 For citations please refer to: https://tddft.org/programs/libxc/

 This ORCA versions uses:
   CBLAS   interface :  Fast vector & matrix operations
   LAPACKE interface :  Fast linear algebra routines
   SCALAPACK package :  Parallel linear algebra routines


Your calculation utilizes the geometrical counterpoise correction gCP
Please cite in your paper:
H.Kruse, S. Grimme J.Chem.Phys., 136, (2012), 154101 
   

Your calculation utilizes the atom-pairwise dispersion correction
based on tight binding partial charges (D4)
Cite in your paper:
E.Caldeweyher, C.Bannwarth, S.Grimme, J.Chem.Phys., (2017), 147, 034112.
E.Caldeweyher, S.Ehlert, A.Hansen, H.Neugebauer, S.Grimme, J.Chem.Phys., (2018), in progress.
   

----- Orbital basis set information -----
Your calculation utilizes the basis: def2-SVP
   F. Weigend and R. Ahlrichs, Phys. Chem. Chem. Phys. 7, 3297 (2005).

----- AuxJ basis set information -----
Your calculation utilizes the auxiliary basis: def2/J
   F. Weigend, Phys. Chem. Chem. Phys. 8, 1057 (2006).

================================================================================
                                        WARNINGS
                       Please study these warnings very carefully!
================================================================================


WARNING: Geometry Optimization
  ===> : Switching off AutoStart
         For restart on a previous wavefunction, please use MOREAD

INFO   : the flag for use of LIBINT has been found!

================================================================================
                                       INPUT FILE
================================================================================
NAME = C2H4.inp
|  1> ! revPBE D4 gCP(DFT/SVP) def2-SVP Opt Freq TightOpt TightSCF Grid4 FinalGrid5 LargePrint
|  2> 
|  3> %pal
|  4>  nprocs 6
|  5> end
|  6> 
|  7> *xyz 0 1
|  8> C       -0.8498968334      3.0585670450     -1.1248412287                 
|  9> C       -0.1722942051      2.5680027539     -0.0888328033                 
| 10> H       -0.5956262501      2.7581655799     -2.1364513638                 
| 11> H       -1.6608716147      3.7620059081     -0.9643940253                 
| 12> H        0.6386805762      1.8645638908     -0.2492800067                 
| 13> H       -0.4265647884      2.8684042190      0.9227773317                 
| 14> *
| 15> 
| 16>                          ****END OF INPUT****
================================================================================

                       *****************************
                       * Geometry Optimization Run *
                       *****************************

Geometry optimization settings:
Update method            Update   .... BFGS
Choice of coordinates    CoordSys .... Z-matrix Internals
Initial Hessian          InHess   .... Almoef's Model

Convergence Tolerances:
Energy Change            TolE     ....  1.0000e-06 Eh
Max. Gradient            TolMAXG  ....  1.0000e-04 Eh/bohr
RMS Gradient             TolRMSG  ....  3.0000e-05 Eh/bohr
Max. Displacement        TolMAXD  ....  1.0000e-03 bohr
RMS Displacement         TolRMSD  ....  6.0000e-04 bohr
Strict Convergence                ....  False
------------------------------------------------------------------------------
                        ORCA OPTIMIZATION COORDINATE SETUP
------------------------------------------------------------------------------

The optimization will be done in new redundant internal coordinates
Making redundant internal coordinates   ...  (new redundants) done
Evaluating the initial hessian          ...  (Almloef) done
Evaluating the coordinates              ...  done
Calculating the B-matrix                .... done
Calculating the G-matrix                .... done
Diagonalizing the G-matrix              .... done
The first mode is                       ....    3
The number of degrees of freedom        ....   12

    -----------------------------------------------------------------
                    Redundant Internal Coordinates


    -----------------------------------------------------------------
         Definition                    Initial Value    Approx d2E/dq
    -----------------------------------------------------------------
      1. B(C   1,C   0)                  1.3316         0.774355   
      2. B(H   2,C   0)                  1.0855         0.366140   
      3. B(H   3,C   0)                  1.0855         0.366140   
      4. B(H   4,C   1)                  1.0855         0.366140   
      5. B(H   5,C   1)                  1.0855         0.366140   
      6. A(H   2,C   0,H   3)          119.4795         0.292365   
      7. A(C   1,C   0,H   2)          120.2602         0.367575   
      8. A(C   1,C   0,H   3)          120.2602         0.367575   
      9. A(H   4,C   1,H   5)          119.4795         0.292365   
     10. A(C   0,C   1,H   5)          120.2602         0.367575   
     11. A(C   0,C   1,H   4)          120.2602         0.367575   
     12. D(H   4,C   1,C   0,H   3)    180.0000         0.043035   
     13. D(H   5,C   1,C   0,H   2)    180.0000         0.043035   
     14. D(H   5,C   1,C   0,H   3)     -0.0000         0.043035   
     15. D(H   4,C   1,C   0,H   2)      0.0000         0.043035   
    -----------------------------------------------------------------

Number of atoms                         .... 6
Number of degrees of freedom            .... 15

         *************************************************************
         *                GEOMETRY OPTIMIZATION CYCLE   1            *
         *************************************************************
---------------------------------
CARTESIAN COORDINATES (ANGSTROEM)
---------------------------------
  C     -0.849897    3.058567   -1.124841
  C     -0.172294    2.568003   -0.088833
  H     -0.595626    2.758166   -2.136451
  H     -1.660872    3.762006   -0.964394
  H      0.638681    1.864564   -0.249280
  H     -0.426565    2.868404    0.922777

----------------------------
CARTESIAN COORDINATES (A.U.)
----------------------------
  NO LB      ZA    FRAG     MASS         X           Y           Z
   0 C     6.0000    0    12.011   -1.606072    5.779854   -2.125642
   1 C     6.0000    0    12.011   -0.325589    4.852822   -0.167870
   2 H     1.0000    0     1.008   -1.125570    5.212178   -4.037308
   3 H     1.0000    0     1.008   -3.138592    7.109161   -1.822441
   4 H     1.0000    0     1.008    1.206931    3.523515   -0.471071
   5 H     1.0000    0     1.008   -0.806091    5.420498    1.743796

--------------------------------
INTERNAL COORDINATES (ANGSTROEM)
--------------------------------
 C      0   0   0     0.000000000000     0.00000000     0.00000000
 C      1   0   0     1.331582555864     0.00000000     0.00000000
 H      1   2   0     1.085472079421   120.26024483     0.00000000
 H      1   2   3     1.085472079375   120.26024484   180.00000000
 H      2   1   3     1.085472079375   120.26024484     0.00000000
 H      2   1   3     1.085472079328   120.26024483   180.00000000

---------------------------
INTERNAL COORDINATES (A.U.)
---------------------------
 C      0   0   0     0.000000000000     0.00000000     0.00000000
 C      1   0   0     2.516326355290     0.00000000     0.00000000
 H      1   2   0     2.051244956124   120.26024483     0.00000000
 H      1   2   3     2.051244956037   120.26024484   180.00000000
 H      2   1   3     2.051244956037   120.26024484     0.00000000
 H      2   1   3     2.051244955948   120.26024483   180.00000000

---------------------
BASIS SET INFORMATION
---------------------
There are 2 groups of distinct atoms

 Group   1 Type C   : 7s4p1d contracted to 3s2p1d pattern {511/31/1}
 Group   2 Type H   : 4s1p contracted to 2s1p pattern {31/1}

Atom   0C    basis set group =>   1
Atom   1C    basis set group =>   1
Atom   2H    basis set group =>   2
Atom   3H    basis set group =>   2
Atom   4H    basis set group =>   2
Atom   5H    basis set group =>   2

-------------------------
BASIS SET IN INPUT FORMAT
-------------------------

 # Basis set for element : H 
 NewGTO H 
 S 3 
   1      13.0107010000      0.0334854848
   2       1.9622572000      0.2347218709
   3       0.4445379600      0.8137702853
 S 1 
   1       0.1219496200      1.0000000000
 P 1 
   1       0.8000000000      1.0000000000
  end;

 # Basis set for element : C 
 NewGTO C 
 S 5 
   1    1238.4016938000      0.0055173650
   2     186.2900499200      0.0410888285
   3      42.2511763460      0.1822538213
   4      11.6765579320      0.4682845944
   5       3.5930506482      0.4457581734
 S 1 
   1       0.4024514736      1.0000000000
 S 1 
   1       0.1309018267      1.0000000000
 P 3 
   1       9.4680970621      0.0568883320
   2       2.0103545142      0.3129405934
   3       0.5477100471      0.7606501651
 P 1 
   1       0.1526861379      1.0000000000
 D 1 
   1       0.8000000000      1.0000000000
  end;

---------------------------------
AUXILIARY/J BASIS SET INFORMATION
---------------------------------
There are 2 groups of distinct atoms

 Group   1 Type C   : 12s5p4d2f1g contracted to 6s4p3d1f1g pattern {711111/2111/211/2/1}
 Group   2 Type H   : 5s2p1d contracted to 3s1p1d pattern {311/2/1}

Atom   0C    basis set group =>   1
Atom   1C    basis set group =>   1
Atom   2H    basis set group =>   2
Atom   3H    basis set group =>   2
Atom   4H    basis set group =>   2
Atom   5H    basis set group =>   2

-------------------------------------
AUXILIARY/J BASIS SET IN INPUT FORMAT
-------------------------------------

 # Auxiliary/J basis set for element : H 
 NewAuxJGTO H 
 S 3 
   1      15.6752927000      0.1007184237
   2       3.6063578000      0.3404257499
   3       1.2080016000      0.6491996172
 S 1 
   1       0.4726794000      1.0000000000
 S 1 
   1       0.2018100000      1.0000000000
 P 2 
   1       2.0281365000      0.5596620919
   2       0.5358730000      0.5596620919
 D 1 
   1       2.2165124000      1.0000000000
  end;

 # Auxiliary/J basis set for element : C 
 NewAuxJGTO C 
 S 7 
   1    1861.0916331000      0.0134602335
   2     642.9939764000      0.0299160374
   3     235.1105725000      0.1008649584
   4      90.7028894000      0.2370970548
   5      36.7794552000      0.3924037254
   6      15.6046273000      0.3195862154
   7       6.8907294000      0.0530104441
 S 1 
   1       3.1478850000     -1.0000000000
 S 1 
   1       1.4777287000      1.0000000000
 S 1 
   1       0.7076466000      1.0000000000
 S 1 
   1       0.3430122000      1.0000000000
 S 1 
   1       0.1669453000      1.0000000000
 P 2 
   1      13.5472892000     -0.6769313712
   2       5.4669419000     -0.3779500978
 P 1 
   1       2.1751721000      1.0000000000
 P 1 
   1       0.8582194000      1.0000000000
 P 1 
   1       0.3376720000      1.0000000000
 D 2 
   1       5.9287253000     -0.3533329857
   2       1.9809209000     -0.7456525731
 D 1 
   1       0.8055417000     -1.0000000000
 D 1 
   1       0.3531244000     -1.0000000000
 F 2 
   1       1.6755626000      0.6311076882
   2       0.5997536000      0.4968166032
 G 1 
   1       1.0024600000     -1.0000000000
  end;



           ************************************************************
           *        Program running with 6 parallel MPI-processes     *
           *              working on a common directory               *
           ************************************************************
------------------------------------------------------------------------------
                           ORCA GTO INTEGRAL CALCULATION
                           -- RI-GTO INTEGRALS CHOSEN --
------------------------------------------------------------------------------

                         BASIS SET STATISTICS AND STARTUP INFO

Gaussian basis set:
 # of primitive gaussian shells          ...   44
 # of primitive gaussian functions       ...   76
 # of contracted shells                  ...   24
 # of contracted basis functions         ...   48
 Highest angular momentum                ...    2
 Maximum contraction depth               ...    5
Auxiliary gaussian basis set:
 # of primitive gaussian shells          ...   80
 # of primitive gaussian functions       ...  204
 # of contracted shells                  ...   50
 # of contracted aux-basis functions     ...  142
 Highest angular momentum                ...    4
 Maximum contraction depth               ...    7
Ratio of auxiliary to basis functions    ...  2.96
Integral package used                  ... LIBINT
 One Electron integrals                  ... done
 Ordering auxiliary basis shells         ... done
 Integral threshhold             Thresh  ...  2.500e-11
 Primitive cut-off               TCut    ...  2.500e-12
 Pre-screening matrix                    ... done
 Shell pair data                         ... 
 Ordering of the shell pairs             ... done (   0.000 sec) 300 of 300 pairs
 Determination of significant pairs      ... done (   0.000 sec)
 Creation of shell pair data             ... done (   0.000 sec)
 Storage of shell pair data              ... done (   0.000 sec)
 Shell pair data done in (   0.000 sec)
 Computing two index integrals           ... done
 Cholesky decomposition of the V-matrix  ... done


Timings:
 Total evaluation time                   ...   0.269 sec (  0.004 min)
 One electron matrix time                ...   0.051 sec (  0.001 min) = 19.0%
 Schwartz matrix evaluation time         ...   0.142 sec (  0.002 min) = 52.8%
 Two index repulsion integral time       ...   0.014 sec (  0.000 min) =  5.2%
 Cholesky decomposition of V             ...   0.040 sec (  0.001 min) = 14.8%
 Three index repulsion integral time     ...   0.000 sec (  0.000 min) =  0.0%



           ************************************************************
           *        Program running with 6 parallel MPI-processes     *
           *              working on a common directory               *
           ************************************************************
-------------------------------------------------------------------------------
                                 ORCA SCF
-------------------------------------------------------------------------------

------------
SCF SETTINGS
------------
Hamiltonian:
 Density Functional     Method          .... DFT(GTOs)
 Exchange Functional    Exchange        .... PBE
   PBE kappa parameter   XKappa         ....  1.245000
   PBE mue parameter    XMuePBE         ....  0.219520
 Correlation Functional Correlation     .... PBE
   PBE beta parameter  CBetaPBE         ....  0.066725
 LDA part of GGA corr.  LDAOpt          .... PW91-LDA
 Gradients option       PostSCFGGA      .... off
   Density functional embedding theory  .... OFF
   NL short-range parameter             ....  3.700000
 RI-approximation to the Coulomb term is turned on
   Number of auxiliary basis functions  .... 142


General Settings:
 Integral files         IntName         .... C2H4
 Hartree-Fock type      HFTyp           .... RHF
 Total Charge           Charge          ....    0
 Multiplicity           Mult            ....    1
 Number of Electrons    NEL             ....   16
 Basis Dimension        Dim             ....   48
 Nuclear Repulsion      ENuc            ....     33.4017620353 Eh

Convergence Acceleration:
 DIIS                   CNVDIIS         .... on
   Start iteration      DIISMaxIt       ....    12
   Startup error        DIISStart       ....  0.200000
   # of expansion vecs  DIISMaxEq       ....     5
   Bias factor          DIISBfac        ....   1.050
   Max. coefficient     DIISMaxC        ....  10.000
 Newton-Raphson         CNVNR           .... off
 SOSCF                  CNVSOSCF        .... on
   Start iteration      SOSCFMaxIt      ....   150
   Startup grad/error   SOSCFStart      ....  0.003300
 Level Shifting         CNVShift        .... on
   Level shift para.    LevelShift      ....    0.2500
   Turn off err/grad.   ShiftErr        ....    0.0010
 Zerner damping         CNVZerner       .... off
 Static damping         CNVDamp         .... on
   Fraction old density DampFac         ....    0.7000
   Max. Damping (<1)    DampMax         ....    0.9800
   Min. Damping (>=0)   DampMin         ....    0.0000
   Turn off err/grad.   DampErr         ....    0.1000
 Fernandez-Rico         CNVRico         .... off

SCF Procedure:
 Maximum # iterations   MaxIter         ....   125
 SCF integral mode      SCFMode         .... Direct
   Integral package                     .... LIBINT
 Reset frequency        DirectResetFreq ....    20
 Integral Threshold     Thresh          ....  2.500e-11 Eh
 Primitive CutOff       TCut            ....  2.500e-12 Eh

Convergence Tolerance:
 Convergence Check Mode ConvCheckMode   .... Total+1el-Energy
 Convergence forced     ConvForced      .... 0
 Energy Change          TolE            ....  1.000e-08 Eh
 1-El. energy change                    ....  1.000e-05 Eh
 Orbital Gradient       TolG            ....  1.000e-05
 Orbital Rotation angle TolX            ....  1.000e-05
 DIIS Error             TolErr          ....  5.000e-07


Diagonalization of the overlap matrix:
Smallest eigenvalue                        ... 3.891e-03
Time for diagonalization                   ...    0.030 sec
Threshold for overlap eigenvalues          ... 1.000e-08
Number of eigenvalues below threshold      ... 0
Time for construction of square roots      ...    0.043 sec
Total time needed                          ...    0.073 sec

-------------------
DFT GRID GENERATION
-------------------

General Integration Accuracy     IntAcc      ...  4.670
Radial Grid Type                 RadialGrid  ... Gauss-Chebyshev
Angular Grid (max. acc.)         AngularGrid ... Lebedev-302
Angular grid pruning method      GridPruning ... 3 (G Style)
Weight generation scheme         WeightScheme... Becke
Basis function cutoff            BFCut       ...    1.0000e-11
Integration weight cutoff        WCut        ...    1.0000e-14
Grids for H and He will be reduced by one unit

# of grid points (after initial pruning)     ...  26000 (   0.0 sec)
# of grid points (after weights+screening)   ...  25246 (   0.1 sec)
nearest neighbour list constructed           ...    0.0 sec
Grid point re-assignment to atoms done       ...    0.0 sec
Grid point division into batches done        ...    0.1 sec
Reduced shell lists constructed in    0.2 sec

Total number of grid points                  ...    25246
Total number of batches                      ...      398
Average number of points per batch           ...       63
Average number of grid points per atom       ...     4208
Average number of shells per batch           ...    23.28 (97.00%)
Average number of basis functions per batch  ...    46.93 (97.76%)
Average number of large shells per batch     ...    22.51 (96.72%)
Average number of large basis fcns per batch ...    45.57 (97.12%)
Maximum spatial batch extension              ...  13.59, 14.98,  3.43 au
Average spatial batch extension              ...   0.29,  0.32,  0.21 au

Time for grid setup =    0.333 sec

------------------------------
INITIAL GUESS: MODEL POTENTIAL
------------------------------
Loading Hartree-Fock densities                     ... done
Calculating cut-offs                               ... done
Setting up the integral package                    ... done
Initializing the effective Hamiltonian             ... done
Starting the Coulomb interaction                   ... done (   0.0 sec)
Reading the grid                                   ... done
Mapping shells                                     ... done
Starting the XC term evaluation                    ... done (   0.1 sec)
  promolecular density results
     # of electrons  =     15.998023368
     EX              =    -11.441086585
     EC              =     -0.488592684
     EX+EC           =    -11.929679269
Transforming the Hamiltonian                       ... done (   0.0 sec)
Diagonalizing the Hamiltonian                      ... done (   0.0 sec)
Back transforming the eigenvectors                 ... done (   0.0 sec)
Now organizing SCF variables                       ... done
                      ------------------
                      INITIAL GUESS DONE (   0.7 sec)
                      ------------------
----------------------
INITIAL GUESS ORBITALS
----------------------
                      0         1         2         3         4         5   
                 -10.08492 -10.08443  -0.83547  -0.63441  -0.54979  -0.50827
                   2.00000   2.00000   2.00000   2.00000   2.00000   2.00000
                  --------  --------  --------  --------  --------  --------
  0C   1s         0.699038  0.698207  0.208878 -0.166564 -0.000001  0.008056
  0C   2s         0.030759  0.038500 -0.422217  0.361639  0.000002 -0.009001
  0C   3s        -0.016261 -0.033643 -0.078521  0.077677 -0.000020 -0.050662
  0C   1pz       -0.001631  0.001957 -0.116744 -0.133750  0.225781  0.336280
  0C   1px       -0.001067  0.001280 -0.076357 -0.087479 -0.205206  0.219944
  0C   1py        0.000772 -0.000926  0.055280  0.063332  0.193376 -0.159232
  0C   2pz        0.000217 -0.002466 -0.017900 -0.048948  0.073753  0.086062
  0C   2px        0.000142 -0.001613 -0.011710 -0.032012 -0.067052  0.056288
  0C   2py       -0.000103  0.001168  0.008479  0.023174  0.063183 -0.040753
  0C   1dz2       0.000464  0.001635 -0.008259 -0.001266  0.007653  0.002920
  0C   1dxz      -0.000374  0.000713 -0.010854 -0.008039 -0.001127  0.011960
  0C   1dyz       0.000475 -0.000156  0.007322  0.006865  0.001693 -0.009906
  0C   1dx2y2     0.000135  0.000451 -0.002195 -0.000263 -0.000835  0.000682
  0C   1dxy      -0.001066 -0.002529  0.008399 -0.002557  0.004377  0.001931
  1C   1s         0.699038 -0.698207  0.208878  0.166564  0.000001  0.008056
  1C   2s         0.030759 -0.038500 -0.422217 -0.361639 -0.000002 -0.009001
  1C   3s        -0.016261  0.033643 -0.078521 -0.077677  0.000020 -0.050662
  1C   1pz        0.001631  0.001957  0.116744 -0.133750  0.225781 -0.336280
  1C   1px        0.001067  0.001280  0.076357 -0.087479 -0.205206 -0.219944
  1C   1py       -0.000772 -0.000926 -0.055280  0.063332  0.193376  0.159232
  1C   2pz       -0.000217 -0.002466  0.017900 -0.048948  0.073753 -0.086062
  1C   2px       -0.000142 -0.001613  0.011710 -0.032012 -0.067052 -0.056288
  1C   2py        0.000103  0.001168 -0.008479  0.023174  0.063183  0.040753
  1C   1dz2       0.000464 -0.001635 -0.008259  0.001266 -0.007653  0.002920
  1C   1dxz      -0.000374 -0.000713 -0.010854  0.008039  0.001127  0.011960
  1C   1dyz       0.000475  0.000156  0.007322 -0.006865 -0.001693 -0.009906
  1C   1dx2y2     0.000135 -0.000451 -0.002195  0.000263  0.000835  0.000682
  1C   1dxy      -0.001066  0.002529  0.008399  0.002557 -0.004377  0.001931
  2H   1s        -0.002928 -0.003596 -0.094612  0.189708 -0.196637 -0.173984
  2H   2s         0.004742  0.005924 -0.008507  0.023867 -0.020752 -0.035635
  2H   1pz       -0.001348 -0.002440 -0.015609  0.015252 -0.013366 -0.004753
  2H   1px        0.000658  0.000442  0.001897 -0.006950 -0.001377  0.008861
  2H   1py       -0.000672 -0.000579 -0.002911  0.007181  0.000062 -0.007935
  3H   1s        -0.002928 -0.003596 -0.094613  0.189708  0.196638 -0.173983
  3H   2s         0.004742  0.005925 -0.008510  0.023869  0.020748 -0.035633
  3H   1pz        0.000622  0.000168 -0.000117 -0.006406  0.003942  0.010563
  3H   1px       -0.001133 -0.001929 -0.012183  0.012735  0.009943 -0.005061
  3H   1py        0.001016  0.001655  0.010358 -0.011369 -0.008134  0.005184
  4H   1s        -0.002928  0.003596 -0.094613 -0.189708 -0.196638 -0.173983
  4H   2s         0.004742 -0.005925 -0.008510 -0.023869 -0.020748 -0.035633
  4H   1pz       -0.000622  0.000168  0.000117 -0.006406  0.003942 -0.010563
  4H   1px        0.001133 -0.001929  0.012183  0.012735  0.009943  0.005061
  4H   1py       -0.001016  0.001655 -0.010358 -0.011369 -0.008134 -0.005184
  5H   1s        -0.002928  0.003596 -0.094612 -0.189708  0.196637 -0.173984
  5H   2s         0.004742 -0.005924 -0.008507 -0.023867  0.020752 -0.035635
  5H   1pz        0.001348 -0.002440  0.015609  0.015252 -0.013366  0.004753
  5H   1px       -0.000658  0.000442 -0.001897 -0.006950 -0.001377 -0.008861
  5H   1py        0.000672 -0.000579  0.002911  0.007181  0.000062  0.007935
                      6         7         8         9        10        11   
                  -0.43139  -0.36360  -0.13686   0.00982   0.01832   0.04872
                   2.00000   2.00000   0.00000   0.00000   0.00000   0.00000
                  --------  --------  --------  --------  --------  --------
  0C   1s        -0.000000  0.000000  0.000001 -0.100962  0.000001  0.127837
  0C   2s         0.000002  0.000001 -0.000001  0.282702 -0.000008 -0.317371
  0C   3s         0.000005  0.000016 -0.000030  1.235406 -0.000068 -1.932504
  0C   1pz        0.214467  0.028835  0.031712 -0.134564  0.192784  0.080669
  0C   1px       -0.194922 -0.295423 -0.324925 -0.088017 -0.175211  0.052756
  0C   1py        0.183685 -0.347165 -0.381826  0.063711  0.165127 -0.038194
  0C   2pz        0.033773  0.014547  0.032412 -0.363531  0.375747  0.020641
  0C   2px       -0.030702 -0.148864 -0.331948 -0.237837 -0.341616  0.013507
  0C   2py        0.028932 -0.174941 -0.390115  0.172196  0.321901 -0.009779
  0C   1dz2      -0.020214  0.002117 -0.001979 -0.001577  0.040950  0.005253
  0C   1dxz       0.002974 -0.011723  0.010962  0.012947 -0.006024  0.002312
  0C   1dyz      -0.004469 -0.015295  0.014301 -0.012130  0.009055 -0.000522
  0C   1dx2y2     0.002205 -0.015159  0.014174 -0.000593 -0.004466  0.001449
  0C   1dxy      -0.011561 -0.003696  0.003455  0.010665  0.023419 -0.008111
  1C   1s        -0.000000 -0.000000  0.000001 -0.100962 -0.000001 -0.127837
  1C   2s         0.000002 -0.000001 -0.000001  0.282702  0.000008  0.317371
  1C   3s         0.000005 -0.000016 -0.000030  1.235406  0.000068  1.932504
  1C   1pz       -0.214467  0.028835 -0.031712  0.134564  0.192784  0.080669
  1C   1px        0.194922 -0.295423  0.324925  0.088017 -0.175211  0.052756
  1C   1py       -0.183685 -0.347165  0.381826 -0.063711  0.165127 -0.038194
  1C   2pz       -0.033773  0.014547 -0.032412  0.363531  0.375747  0.020641
  1C   2px        0.030702 -0.148864  0.331948  0.237837 -0.341616  0.013507
  1C   2py       -0.028932 -0.174941  0.390115 -0.172196  0.321901 -0.009779
  1C   1dz2      -0.020214 -0.002117 -0.001979 -0.001577 -0.040950 -0.005253
  1C   1dxz       0.002974  0.011723  0.010962  0.012947  0.006024 -0.002312
  1C   1dyz      -0.004469  0.015295  0.014301 -0.012130 -0.009055  0.000522
  1C   1dx2y2     0.002205  0.015159  0.014174 -0.000593  0.004466 -0.001449
  1C   1dxy      -0.011561  0.003696  0.003455  0.010665 -0.023419  0.008111
  2H   1s        -0.274307  0.000002  0.000003 -0.108700  0.170660  0.115328
  2H   2s        -0.105966  0.000011  0.000010 -0.918653  0.915289  1.029829
  2H   1pz       -0.011738  0.000890  0.001513  0.007945 -0.016627 -0.014980
  2H   1px       -0.000756 -0.009117 -0.015505 -0.012566 -0.001983  0.002463
  2H   1py       -0.000332 -0.010713 -0.018219  0.011351  0.000308 -0.003341
  3H   1s         0.274307 -0.000002  0.000003 -0.108720 -0.170676  0.115344
  3H   2s         0.105960 -0.000005  0.000023 -0.918738 -0.915335  1.029812
  3H   1pz        0.002882  0.000890  0.001513 -0.014784  0.005249  0.000709
  3H   1px        0.008806 -0.009117 -0.015504  0.008091  0.012324 -0.011796
  3H   1py       -0.007254 -0.010713 -0.018219 -0.008114 -0.010051  0.010097
  4H   1s         0.274307  0.000002  0.000003 -0.108720  0.170676 -0.115344
  4H   2s         0.105960  0.000005  0.000023 -0.918738  0.915335 -1.029812
  4H   1pz       -0.002882  0.000890 -0.001513  0.014784  0.005249  0.000709
  4H   1px       -0.008806 -0.009117  0.015504 -0.008091  0.012324 -0.011796
  4H   1py        0.007254 -0.010713  0.018219  0.008114 -0.010051  0.010097
  5H   1s        -0.274307 -0.000002  0.000003 -0.108700 -0.170660 -0.115328
  5H   2s        -0.105966 -0.000011  0.000010 -0.918653 -0.915289 -1.029829
  5H   1pz        0.011738  0.000890 -0.001513 -0.007945 -0.016627 -0.014980
  5H   1px        0.000756 -0.009117  0.015505  0.012566 -0.001983  0.002463
  5H   1py        0.000332 -0.010713  0.018219 -0.011351  0.000308 -0.003341
                     12        13        14        15        16        17   
                   0.11912   0.20240   0.28217   0.32107   0.33042   0.37072
                   0.00000   0.00000   0.00000   0.00000   0.00000   0.00000
                  --------  --------  --------  --------  --------  --------
  0C   1s        -0.000004  0.077619  0.065861 -0.000006  0.063839  0.000001
  0C   2s         0.000021 -0.212941 -0.637480 -0.000010 -0.599836  0.000031
  0C   3s        -0.000050 -3.957433  0.498024  0.000281  1.458446 -0.000303
  0C   1pz       -0.208572 -0.266232 -0.311478  0.036313  0.031095 -0.041832
  0C   1px        0.189544 -0.174116 -0.203728 -0.032967  0.020334  0.427986
  0C   1py       -0.178615  0.126026  0.147539  0.031073 -0.014797  0.502926
  0C   2pz       -0.738832 -2.135042  0.629049 -0.220549 -0.424952  0.040250
  0C   2px        0.671551 -1.396435  0.411434  0.200522 -0.277871 -0.412384
  0C   2py       -0.632841  1.011003 -0.297931 -0.188960  0.201286 -0.484462
  0C   1dz2       0.003056  0.014818 -0.027319 -0.098046 -0.030705 -0.004610
  0C   1dxz      -0.000450  0.045604 -0.043398  0.014423  0.028135  0.025514
  0C   1dyz       0.000676 -0.036676  0.030973 -0.021678 -0.034466  0.033276
  0C   1dx2y2    -0.000333  0.003637 -0.007177  0.010691 -0.008953  0.032987
  0C   1dxy       0.001748  0.000684  0.023262 -0.056064  0.072546  0.008034
  1C   1s        -0.000004 -0.077619  0.065861  0.000006  0.063839 -0.000001
  1C   2s         0.000021  0.212941 -0.637480  0.000010 -0.599836 -0.000031
  1C   3s        -0.000050  3.957433  0.498024 -0.000281  1.458446  0.000303
  1C   1pz        0.208572 -0.266232  0.311478  0.036313 -0.031095 -0.041832
  1C   1px       -0.189544 -0.174116  0.203728 -0.032967 -0.020334  0.427986
  1C   1py        0.178615  0.126026 -0.147539  0.031073  0.014797  0.502926
  1C   2pz        0.738832 -2.135042 -0.629049 -0.220549  0.424952  0.040250
  1C   2px       -0.671551 -1.396435 -0.411434  0.200522  0.277871 -0.412384
  1C   2py        0.632841  1.011003  0.297931 -0.188960 -0.201286 -0.484462
  1C   1dz2       0.003056 -0.014818 -0.027319  0.098046 -0.030705  0.004610
  1C   1dxz      -0.000450 -0.045604 -0.043398 -0.014423  0.028135 -0.025514
  1C   1dyz       0.000676  0.036676  0.030973  0.021678 -0.034466 -0.033276
  1C   1dx2y2    -0.000333 -0.003637 -0.007177 -0.010691 -0.008953 -0.032987
  1C   1dxy       0.001748 -0.000684  0.023262  0.056064  0.072546 -0.008034
  2H   1s        -0.045285 -0.141418  0.039251 -0.556287 -0.502025  0.000013
  2H   2s        -1.369022 -0.185722 -0.149797  0.359253 -0.227675  0.000094
  2H   1pz        0.014482 -0.003642  0.029615  0.033931  0.000448  0.000135
  2H   1px        0.000321 -0.025553  0.024114  0.033266 -0.020153 -0.001325
  2H   1py        0.000930  0.021440 -0.018057 -0.025489  0.017184 -0.001548
  3H   1s         0.045315 -0.141383  0.039241  0.556196 -0.501980  0.000027
  3H   2s         1.369031 -0.185762 -0.149778 -0.359284 -0.227664 -0.000022
  3H   1pz       -0.002771 -0.033294  0.035683 -0.048098 -0.025719  0.000128
  3H   1px       -0.010962  0.001390  0.018600 -0.020381  0.003617 -0.001324
  3H   1py        0.009098 -0.003949 -0.012863  0.013350 -0.005218 -0.001548
  4H   1s         0.045315  0.141383  0.039241 -0.556196 -0.501980 -0.000027
  4H   2s         1.369031  0.185762 -0.149778  0.359284 -0.227664  0.000022
  4H   1pz        0.002771 -0.033294 -0.035683 -0.048098  0.025719  0.000128
  4H   1px        0.010962  0.001390 -0.018600 -0.020381 -0.003617 -0.001324
  4H   1py       -0.009098 -0.003949  0.012863  0.013350  0.005218 -0.001548
  5H   1s        -0.045285  0.141418  0.039251  0.556287 -0.502025 -0.000013
  5H   2s        -1.369022  0.185722 -0.149797 -0.359253 -0.227675 -0.000094
  5H   1pz       -0.014482 -0.003642 -0.029615  0.033931 -0.000448  0.000135
  5H   1px       -0.000321 -0.025553 -0.024114  0.033266  0.020153 -0.001325
  5H   1py       -0.000930  0.021440  0.018057 -0.025489 -0.017184 -0.001548
                     18        19        20        21        22        23   
                   0.42226   0.45196   0.52085   0.54249   0.54642   0.56386
                   0.00000   0.00000   0.00000   0.00000   0.00000   0.00000
                  --------  --------  --------  --------  --------  --------
  0C   1s         0.073101  0.000019 -0.161778  0.000048  0.000046 -0.187295
  0C   2s         0.001648 -0.000108  0.987213 -0.000300 -0.000349  1.383934
  0C   3s        -1.870584  0.000199 -2.251377  0.000709  0.001089 -5.269480
  0C   1pz       -0.185002  0.044237 -0.296434  0.428929 -0.411320 -0.221671
  0C   1px       -0.121043 -0.453104 -0.194150 -0.389706  0.374017 -0.144802
  0C   1py        0.087595 -0.532525  0.140475  0.367220 -0.352491  0.104781
  0C   2pz       -0.300959 -0.075616  0.525902 -1.208430  0.857202 -0.085527
  0C   2px       -0.196775  0.775185  0.344688  1.098042 -0.779356 -0.056343
  0C   2py        0.142491  0.911092 -0.249431 -1.034711  0.734457  0.040870
  0C   1dz2       0.043950 -0.000438 -0.015529  0.056047 -0.082000 -0.006694
  0C   1dxz      -0.006058  0.002428  0.034204 -0.008250  0.012042  0.016710
  0C   1dyz       0.018516  0.003191 -0.035431  0.012397 -0.018115 -0.017039
  0C   1dx2y2     0.012422  0.003153 -0.004765 -0.006111  0.008941 -0.002065
  0C   1dxy      -0.083220  0.000756  0.048777  0.032040 -0.046903  0.022128
  1C   1s        -0.073101  0.000019 -0.161778  0.000048 -0.000046  0.187295
  1C   2s        -0.001648 -0.000108  0.987213 -0.000300  0.000349 -1.383934
  1C   3s         1.870584  0.000199 -2.251377  0.000709 -0.001089  5.269480
  1C   1pz       -0.185002 -0.044237  0.296434 -0.428929 -0.411320 -0.221671
  1C   1px       -0.121043  0.453104  0.194150  0.389706  0.374017 -0.144802
  1C   1py        0.087595  0.532525 -0.140475 -0.367220 -0.352491  0.104781
  1C   2pz       -0.300959  0.075616 -0.525902  1.208430  0.857202 -0.085527
  1C   2px       -0.196775 -0.775185 -0.344688 -1.098042 -0.779356 -0.056343
  1C   2py        0.142491 -0.911092  0.249431  1.034711  0.734457  0.040870
  1C   1dz2      -0.043950 -0.000438 -0.015529  0.056047  0.082000  0.006694
  1C   1dxz       0.006058  0.002428  0.034204 -0.008250 -0.012042 -0.016710
  1C   1dyz      -0.018516  0.003191 -0.035431  0.012397  0.018115  0.017039
  1C   1dx2y2    -0.012422  0.003153 -0.004765 -0.006111 -0.008941  0.002065
  1C   1dxy       0.083220  0.000756  0.048777  0.032040  0.046903 -0.022128
  2H   1s         0.616348  0.000087 -0.381300  0.296252 -0.141811 -0.136711
  2H   2s        -0.206610 -0.000075  1.153904 -1.427619  1.198529  1.457655
  2H   1pz       -0.025636  0.000157  0.067692 -0.107882  0.067693  0.066278
  2H   1px        0.019899 -0.001609 -0.033117 -0.007028 -0.038771 -0.017558
  2H   1py       -0.019062 -0.001913  0.033808 -0.002979  0.038617  0.020449
  3H   1s         0.616421  0.000091 -0.381443 -0.296063  0.141953 -0.136614
  3H   2s        -0.206635 -0.000198  1.154763  1.426922 -1.199450  1.456885
  3H   1pz        0.021275  0.000168 -0.031327  0.026590  0.038600 -0.011639
  3H   1px       -0.022746 -0.001629  0.056941  0.080883 -0.057852  0.053244
  3H   1py        0.021124 -0.001896 -0.051055 -0.066620  0.052436 -0.046275
  4H   1s        -0.616421  0.000091 -0.381443 -0.296063 -0.141953  0.136614
  4H   2s         0.206635 -0.000198  1.154763  1.426922  1.199450 -1.456886
  4H   1pz        0.021275 -0.000168  0.031327 -0.026590  0.038600 -0.011639
  4H   1px       -0.022746  0.001629 -0.056941 -0.080883 -0.057852  0.053244
  4H   1py        0.021124  0.001896  0.051055  0.066620  0.052436 -0.046275
  5H   1s        -0.616348  0.000087 -0.381300  0.296252  0.141811  0.136711
  5H   2s         0.206610 -0.000075  1.153904 -1.427619 -1.198529 -1.457655
  5H   1pz       -0.025636 -0.000157 -0.067692  0.107882  0.067693  0.066278
  5H   1px        0.019899  0.001609  0.033117  0.007028 -0.038771 -0.017558
  5H   1py       -0.019062  0.001913 -0.033808  0.002979  0.038617  0.020449
                     24        25        26        27        28        29   
                   0.63923   0.95026   0.99691   1.06588   1.08888   1.39100
                   0.00000   0.00000   0.00000   0.00000   0.00000   0.00000
                  --------  --------  --------  --------  --------  --------
  0C   1s        -0.117787 -0.000002  0.000000 -0.000000 -0.000001  0.000002
  0C   2s         0.780628  0.000011 -0.000002  0.000001  0.000004 -0.000012
  0C   3s        -6.186178 -0.000034  0.000004 -0.000001 -0.000015  0.000007
  0C   1pz        0.596099 -0.121973  0.000000  0.000003 -0.005996  0.057503
  0C   1px        0.389823  0.110852  0.000000  0.000001  0.061508 -0.052268
  0C   1py       -0.282205 -0.104454 -0.000001  0.000001  0.072274  0.049247
  0C   2pz       -2.653703  2.052316  0.000002 -0.000004  0.008352 -1.325439
  0C   2px       -1.735528 -1.865276 -0.000002 -0.000002 -0.085720  1.204663
  0C   2py        1.256445  1.757742  0.000002 -0.000003 -0.100721 -1.135228
  0C   1dz2      -0.035244  0.104735  0.024446  0.019651  0.038742  0.065798
  0C   1dxz      -0.095918 -0.015410 -0.157430 -0.126554 -0.214528 -0.009676
  0C   1dyz       0.075929  0.023159 -0.157839 -0.126883 -0.279886  0.014543
  0C   1dx2y2    -0.008796 -0.011423  0.276964  0.222632 -0.277403 -0.007180
  0C   1dxy       0.005943  0.059901  0.030593  0.024591 -0.067624  0.037630
  1C   1s         0.117787 -0.000002  0.000000  0.000000  0.000001  0.000002
  1C   2s        -0.780628  0.000011 -0.000002 -0.000001 -0.000004 -0.000012
  1C   3s         6.186178 -0.000034  0.000004  0.000001  0.000015  0.000007
  1C   1pz        0.596099  0.121973 -0.000000  0.000003 -0.005996 -0.057503
  1C   1px        0.389823 -0.110852 -0.000000  0.000001  0.061508  0.052268
  1C   1py       -0.282205  0.104454  0.000001  0.000001  0.072274 -0.049247
  1C   2pz       -2.653703 -2.052316 -0.000002 -0.000004  0.008352  1.325439
  1C   2px       -1.735528  1.865276  0.000002 -0.000002 -0.085720 -1.204663
  1C   2py        1.256445 -1.757742 -0.000002 -0.000003 -0.100721  1.135228
  1C   1dz2       0.035244  0.104735  0.024446 -0.019651 -0.038742  0.065798
  1C   1dxz       0.095918 -0.015410 -0.157430  0.126554  0.214528 -0.009676
  1C   1dyz      -0.075929  0.023159 -0.157839  0.126883  0.279886  0.014543
  1C   1dx2y2     0.008796 -0.011423  0.276964 -0.222632  0.277403 -0.007180
  1C   1dxy      -0.005943  0.059901  0.030593 -0.024591  0.067624  0.037630
  2H   1s         0.139313  0.737369  0.000001  0.000001  0.000001 -0.517454
  2H   2s        -0.093232  1.054499 -0.000001 -0.000005 -0.000008 -0.674389
  2H   1pz        0.002416 -0.049343 -0.021018 -0.024320 -0.017169 -0.066419
  2H   1px        0.039296 -0.111008  0.215322  0.249145  0.175870 -0.358573
  2H   1py       -0.033243  0.090362  0.253037  0.292781  0.206679  0.299631
  3H   1s         0.139282 -0.737393  0.000001  0.000000 -0.000000  0.517472
  3H   2s        -0.092981 -1.054448 -0.000004  0.000000 -0.000001  0.674375
  3H   1pz        0.050668  0.150100  0.021018  0.024317 -0.017168  0.469670
  3H   1px       -0.004558  0.019435 -0.215324 -0.249139  0.175881 -0.007938
  3H   1py        0.008086 -0.004073 -0.253034 -0.292771  0.206687  0.045779
  4H   1s        -0.139282 -0.737393  0.000001 -0.000000  0.000000  0.517472
  4H   2s         0.092981 -1.054448 -0.000004 -0.000000  0.000001  0.674375
  4H   1pz        0.050668 -0.150100 -0.021018  0.024317 -0.017168 -0.469670
  4H   1px       -0.004558 -0.019435  0.215324 -0.249139  0.175881  0.007938
  4H   1py        0.008086  0.004073  0.253034 -0.292771  0.206687 -0.045779
  5H   1s        -0.139313  0.737369  0.000001 -0.000001 -0.000001 -0.517454
  5H   2s         0.093232  1.054499 -0.000001  0.000005  0.000008 -0.674389
  5H   1pz        0.002416  0.049343  0.021018 -0.024320 -0.017169  0.066419
  5H   1px        0.039296  0.111008 -0.215322  0.249145  0.175870  0.358573
  5H   1py       -0.033243 -0.090362 -0.253037  0.292781  0.206679 -0.299631
                     30        31        32        33        34        35   
                   1.45143   1.45988   1.54992   1.57183   1.59860   1.63694
                   0.00000   0.00000   0.00000   0.00000   0.00000   0.00000
                  --------  --------  --------  --------  --------  --------
  0C   1s         0.000001 -0.005259 -0.000003 -0.075079  0.000015  0.067727
  0C   2s        -0.000002  0.030175  0.000026  0.485451 -0.000101 -0.622933
  0C   3s        -0.000051  0.527588 -0.000057  1.768590 -0.000337  0.261223
  0C   1pz        0.093872  0.143767 -0.008197  0.126301 -0.007917 -0.082267
  0C   1px       -0.085314  0.094034  0.083915  0.082602  0.007168 -0.053805
  0C   1py        0.080397 -0.068061  0.098628 -0.059805 -0.006757  0.038957
  0C   2pz       -0.366894 -0.562933 -0.037527  1.192376 -0.155224  0.319802
  0C   2px        0.333420 -0.368098  0.384434  0.779925  0.140707  0.209138
  0C   2py       -0.314205  0.266511  0.451660 -0.564647 -0.132629 -0.151373
  0C   1dz2       0.229033  0.064640 -0.014902 -0.061045 -0.332385  0.302564
  0C   1dxz      -0.033693 -0.221015  0.082456  0.142169  0.048876  0.170715
  0C   1dyz       0.050643  0.218305  0.107555 -0.146185 -0.073465 -0.063848
  0C   1dx2y2    -0.024977  0.020731  0.106612 -0.018772  0.036255  0.083046
  0C   1dxy       0.130978 -0.250317  0.026021  0.196090 -0.190136 -0.444629
  1C   1s        -0.000001 -0.005259 -0.000003  0.075079 -0.000015  0.067727
  1C   2s         0.000002  0.030175  0.000026 -0.485451  0.000101 -0.622933
  1C   3s         0.000051  0.527588 -0.000057 -1.768590  0.000337  0.261223
  1C   1pz        0.093872 -0.143767  0.008197  0.126301 -0.007917  0.082267
  1C   1px       -0.085314 -0.094034 -0.083915  0.082602  0.007168  0.053805
  1C   1py        0.080397  0.068061 -0.098628 -0.059805 -0.006757 -0.038957
  1C   2pz       -0.366894  0.562933  0.037527  1.192376 -0.155224 -0.319802
  1C   2px        0.333420  0.368098 -0.384434  0.779925  0.140707 -0.209138
  1C   2py       -0.314205 -0.266511 -0.451660 -0.564647 -0.132629  0.151373
  1C   1dz2      -0.229033  0.064640 -0.014902  0.061045  0.332385  0.302564
  1C   1dxz       0.033693 -0.221015  0.082456 -0.142169 -0.048876  0.170715
  1C   1dyz      -0.050643  0.218305  0.107555  0.146185  0.073465 -0.063848
  1C   1dx2y2     0.024977  0.020731  0.106612  0.018772 -0.036255  0.083046
  1C   1dxy      -0.130978 -0.250317  0.026021 -0.196090  0.190136 -0.444629
  2H   1s        -0.295857 -0.264524  0.000005  0.169760  0.111291 -0.035519
  2H   2s        -0.165866 -0.148035 -0.000005  0.049279 -0.291938  0.029663
  2H   1pz        0.066512  0.275450  0.033840 -0.351507 -0.323849  0.056257
  2H   1px       -0.319378  0.192228 -0.346883 -0.251982 -0.243716 -0.200218
  2H   1py        0.277305 -0.140743 -0.407617  0.185233  0.180493  0.175032
  3H   1s         0.295858 -0.264500  0.000029  0.169722 -0.111359 -0.035540
  3H   2s         0.165863 -0.147966  0.000034  0.049382  0.291913  0.029626
  3H   1pz        0.397858  0.290939  0.033859 -0.379607  0.364815 -0.247029
  3H   1px       -0.102659  0.178169 -0.346883 -0.226231  0.206706  0.075413
  3H   1py        0.120405 -0.127488 -0.407608  0.160986 -0.145598 -0.084727
  4H   1s        -0.295858 -0.264500  0.000029 -0.169722  0.111359 -0.035540
  4H   2s        -0.165863 -0.147966  0.000034 -0.049382 -0.291913  0.029626
  4H   1pz        0.397858 -0.290939 -0.033859 -0.379607  0.364815  0.247029
  4H   1px       -0.102659 -0.178169  0.346883 -0.226231  0.206706 -0.075413
  4H   1py        0.120405  0.127488  0.407608  0.160986 -0.145598  0.084727
  5H   1s         0.295857 -0.264524  0.000005 -0.169760 -0.111291 -0.035519
  5H   2s         0.165866 -0.148035 -0.000005 -0.049279  0.291938  0.029663
  5H   1pz        0.066512 -0.275450 -0.033840 -0.351507 -0.323849 -0.056257
  5H   1px       -0.319378 -0.192228  0.346883 -0.251982 -0.243716  0.200218
  5H   1py        0.277305  0.140743  0.407617  0.185233  0.180493 -0.175032
                     36        37        38        39        40        41   
                   1.72888   1.89193   1.97912   2.06341   2.16196   2.19881
                   0.00000   0.00000   0.00000   0.00000   0.00000   0.00000
                  --------  --------  --------  --------  --------  --------
  0C   1s        -0.000001  0.000001 -0.020081 -0.000001  0.020356 -0.000001
  0C   2s         0.000006 -0.000011  0.330938  0.000008 -0.072991  0.000007
  0C   3s        -0.000003 -0.000000 -3.441745 -0.000004 -0.555661 -0.000021
  0C   1pz       -0.011804 -0.000000 -0.395926  0.454674  0.251685 -0.000001
  0C   1px        0.120916 -0.000002 -0.258951 -0.413243  0.164611 -0.000000
  0C   1py        0.142096  0.000000  0.187472  0.389422 -0.119172  0.000002
  0C   2pz       -0.009851  0.000004 -1.609781  0.352820  0.213177 -0.000012
  0C   2px        0.100951  0.000008 -1.052871 -0.320667  0.139415 -0.000009
  0C   2py        0.118631 -0.000013  0.762243  0.302181 -0.100924  0.000007
  0C   1dz2       0.038805  0.044650 -0.229573  0.148131 -0.193798 -0.052254
  0C   1dxz      -0.214885 -0.287514 -0.086345 -0.021792 -0.402050  0.336500
  0C   1dyz      -0.280350 -0.288261  0.009549  0.032751  0.304584  0.337371
  0C   1dx2y2    -0.277854  0.505816 -0.063511 -0.016155 -0.049801 -0.591995
  0C   1dxy      -0.067731  0.055868  0.363419  0.084714  0.108185 -0.065393
  1C   1s         0.000001  0.000001  0.020081 -0.000001  0.020356  0.000001
  1C   2s        -0.000006 -0.000011 -0.330938  0.000008 -0.072991 -0.000007
  1C   3s         0.000003 -0.000000  3.441745 -0.000004 -0.555661  0.000021
  1C   1pz       -0.011804  0.000000 -0.395926 -0.454674 -0.251685 -0.000001
  1C   1px        0.120916  0.000002 -0.258951  0.413243 -0.164611 -0.000000
  1C   1py        0.142096 -0.000000  0.187472 -0.389422  0.119172  0.000002
  1C   2pz       -0.009851 -0.000004 -1.609781 -0.352820 -0.213177 -0.000012
  1C   2px        0.100951 -0.000008 -1.052871  0.320667 -0.139415 -0.000009
  1C   2py        0.118631  0.000013  0.762243 -0.302181  0.100924  0.000007
  1C   1dz2      -0.038805  0.044650  0.229573  0.148131 -0.193798  0.052254
  1C   1dxz       0.214885 -0.287514  0.086345 -0.021792 -0.402050 -0.336500
  1C   1dyz       0.280350 -0.288261 -0.009549  0.032751  0.304584 -0.337371
  1C   1dx2y2     0.277854  0.505816  0.063511 -0.016155 -0.049801  0.591995
  1C   1dxy       0.067731  0.055868 -0.363419  0.084714  0.108185  0.065393
  2H   1s        -0.000000  0.000000 -0.032391  0.238709  0.105217 -0.000001
  2H   2s         0.000003 -0.000001 -0.181262  0.473703  0.269479 -0.000003
  2H   1pz        0.030831  0.027550 -0.194419  0.626188  0.046408 -0.025319
  2H   1px       -0.315890 -0.282262  0.361731  0.003676 -0.392578  0.259376
  2H   1py       -0.371215 -0.331682 -0.323967  0.048885  0.337930  0.304794
  3H   1s         0.000001  0.000003 -0.032382 -0.238712  0.105205 -0.000004
  3H   2s        -0.000003  0.000005 -0.181247 -0.473702  0.269463 -0.000002
  3H   1pz        0.030835 -0.027557  0.431198 -0.106791 -0.494803  0.025320
  3H   1px       -0.315894  0.282261 -0.206853 -0.475740  0.099299 -0.259377
  3H   1py       -0.371210  0.331694  0.211848  0.395969 -0.125601 -0.304797
  4H   1s        -0.000001  0.000003  0.032382 -0.238712  0.105205  0.000004
  4H   2s         0.000003  0.000005  0.181247 -0.473702  0.269463  0.000002
  4H   1pz        0.030835  0.027557  0.431198  0.106791  0.494803  0.025320
  4H   1px       -0.315894 -0.282261 -0.206853  0.475740 -0.099299 -0.259377
  4H   1py       -0.371210 -0.331694  0.211848 -0.395969  0.125601 -0.304797
  5H   1s         0.000000  0.000000  0.032391  0.238709  0.105217  0.000001
  5H   2s        -0.000003 -0.000001  0.181262  0.473703  0.269479  0.000003
  5H   1pz        0.030831 -0.027550 -0.194419 -0.626188 -0.046408 -0.025319
  5H   1px       -0.315890  0.282262  0.361731 -0.003676  0.392578  0.259376
  5H   1py       -0.371215  0.331682 -0.323967 -0.048885 -0.337930  0.304794
                     42        43        44        45        46        47   
                   2.24706   2.52661   2.56508   2.57817   2.88761   3.08091
                   0.00000   0.00000   0.00000   0.00000   0.00000   0.00000
                  --------  --------  --------  --------  --------  --------
  0C   1s         0.000001  0.144197  0.176204 -0.000001  0.089061 -0.000000
  0C   2s        -0.000007 -0.942515 -0.995302  0.000005 -0.471222  0.000000
  0C   3s         0.000003 -0.462184 -1.170007  0.000030 -1.604312  0.000009
  0C   1pz       -0.005682  0.370281 -0.328716 -0.566297  0.523417  0.326579
  0C   1px        0.058184  0.242181 -0.214991  0.514705  0.342335 -0.296816
  0C   1py        0.068376 -0.175332  0.155647 -0.485032 -0.247840  0.279706
  0C   2pz       -0.003758  0.135132 -0.190363 -0.324656 -0.160844  0.468296
  0C   2px        0.038513  0.088368 -0.124500  0.295101 -0.105211 -0.425629
  0C   2py        0.045255 -0.063976  0.090133 -0.278089  0.076171  0.401094
  0C   1dz2      -0.076958 -0.150748 -0.489271  0.635038 -0.075820 -1.025438
  0C   1dxz       0.426179  0.366455 -0.589597 -0.093413  0.635298  0.150862
  0C   1dyz       0.555994 -0.374903  0.385696  0.140399 -0.594798 -0.226727
  0C   1dx2y2     0.551056 -0.046607 -0.130675 -0.069255 -0.028657  0.111833
  0C   1dxy       0.134334  0.493925  0.529837  0.363168  0.520491 -0.586437
  1C   1s         0.000001  0.144197 -0.176204  0.000001 -0.089061 -0.000000
  1C   2s        -0.000007 -0.942515  0.995302 -0.000005  0.471222  0.000000
  1C   3s         0.000003 -0.462184  1.170007 -0.000030  1.604312  0.000009
  1C   1pz        0.005682 -0.370281 -0.328716 -0.566297  0.523417 -0.326579
  1C   1px       -0.058184 -0.242181 -0.214991  0.514705  0.342335  0.296816
  1C   1py       -0.068376  0.175332  0.155647 -0.485032 -0.247840 -0.279706
  1C   2pz        0.003758 -0.135132 -0.190363 -0.324656 -0.160844 -0.468296
  1C   2px       -0.038513 -0.088368 -0.124500  0.295101 -0.105211  0.425629
  1C   2py       -0.045255  0.063976  0.090133 -0.278089  0.076171 -0.401094
  1C   1dz2      -0.076958 -0.150748  0.489271 -0.635038  0.075820 -1.025438
  1C   1dxz       0.426179  0.366455  0.589597  0.093413 -0.635298  0.150862
  1C   1dyz       0.555994 -0.374903 -0.385696 -0.140399  0.594798 -0.226727
  1C   1dx2y2     0.551056 -0.046607  0.130675  0.069255  0.028657  0.111833
  1C   1dxy       0.134334  0.493925 -0.529837 -0.363168 -0.520491 -0.586437
  2H   1s         0.000002  0.615659  0.274599 -0.676316  0.646769  0.715646
  2H   2s        -0.000002  0.220746  0.218262 -0.374732  0.309183  0.277585
  2H   1pz       -0.013612  0.747521  0.246662 -0.728727  0.695074  0.474205
  2H   1px        0.139489 -0.090362 -0.242979  0.163231  0.003806 -0.261676
  2H   1py        0.163910  0.138984  0.227257 -0.199433  0.054496  0.262066
  3H   1s         0.000004  0.615654  0.274611  0.676327  0.646756 -0.715651
  3H   2s        -0.000001  0.220731  0.218273  0.374737  0.309166 -0.277592
  3H   1pz       -0.013610  0.006243 -0.270716 -0.090072  0.118194  0.257549
  3H   1px        0.139488  0.583358  0.227256  0.580952  0.528102 -0.403384
  3H   1py        0.163911 -0.495901 -0.215876 -0.501853 -0.439580  0.364659
  4H   1s         0.000004  0.615654 -0.274611 -0.676327 -0.646756 -0.715651
  4H   2s        -0.000001  0.220731 -0.218273 -0.374737 -0.309166 -0.277592
  4H   1pz        0.013610 -0.006243 -0.270716 -0.090072  0.118194 -0.257549
  4H   1px       -0.139488 -0.583358  0.227256  0.580952  0.528102  0.403384
  4H   1py       -0.163911  0.495901 -0.215876 -0.501853 -0.439580 -0.364659
  5H   1s         0.000002  0.615659 -0.274599  0.676316 -0.646769  0.715646
  5H   2s        -0.000002  0.220746 -0.218262  0.374732 -0.309183  0.277585
  5H   1pz        0.013612 -0.747521  0.246662 -0.728727  0.695074 -0.474205
  5H   1px       -0.139489  0.090362 -0.242979  0.163231  0.003806  0.261676
  5H   1py       -0.163910 -0.138984  0.227257 -0.199433  0.054496 -0.262066
--------------
SCF ITERATIONS
--------------
               ***  Starting incremental Fock matrix formation  ***

                         ----------------------------
                         !        ITERATION     0   !
                         ----------------------------
   Total Energy        :     -78.443633351558 Eh
   Energy Change       :     -78.443633351558 Eh
   MAX-DP              :       0.057071263157
   RMS-DP              :       0.003613388340
   Actual Damping      :       0.7000
   Actual Level Shift  :       0.2500 Eh
   Int. Num. El.       :    15.99999076 (UP=    7.99999538 DN=    7.99999538)
   Exchange            :   -11.97264868
   Correlation         :    -0.51054085


                         ----------------------------
                         !        ITERATION     1   !
                         ----------------------------
   Total Energy        :     -78.472897064406 Eh
   Energy Change       :      -0.029263712848 Eh
   MAX-DP              :       0.035128757411
   RMS-DP              :       0.002676739348
   Actual Damping      :       0.7000
   Actual Level Shift  :       0.2500 Eh
   Int. Num. El.       :    15.99998922 (UP=    7.99999461 DN=    7.99999461)
   Exchange            :   -11.86937598
   Correlation         :    -0.50557014

                               ***Turning on DIIS***

                         ----------------------------
                         !        ITERATION     2   !
                         ----------------------------
   Total Energy        :     -78.484120079840 Eh
   Energy Change       :      -0.011223015434 Eh
   MAX-DP              :       0.044053086097
   RMS-DP              :       0.004425780228
   Actual Damping      :       0.0000
   Actual Level Shift  :       0.2500 Eh
   Int. Num. El.       :    15.99998828 (UP=    7.99999414 DN=    7.99999414)
   Exchange            :   -11.79813587
   Correlation         :    -0.50219207
   DIIS-Error          :       0.019330288210


                         ----------------------------
                         !        ITERATION     3   !
                         ----------------------------
   Total Energy        :     -78.498658971480 Eh
   Energy Change       :      -0.014538891641 Eh
   MAX-DP              :       0.025244726215
   RMS-DP              :       0.001800684838
   Actual Damping      :       0.0000
   Actual Level Shift  :       0.2500 Eh
   Int. Num. El.       :    15.99998690 (UP=    7.99999345 DN=    7.99999345)
   Exchange            :   -11.69493199
   Correlation         :    -0.49776250
   DIIS-Error          :       0.035373466646
   DIIS coefficients:
      0.64081   0.35919


                         ----------------------------
                         !        ITERATION     4   !
                         ----------------------------
   Total Energy        :     -78.504132476392 Eh
   Energy Change       :      -0.005473504912 Eh
   MAX-DP              :       0.006030879012
   RMS-DP              :       0.000590937068
   Actual Damping      :       0.0000
   Actual Level Shift  :       0.2500 Eh
   Int. Num. El.       :    15.99998739 (UP=    7.99999369 DN=    7.99999369)
   Exchange            :   -11.74009486
   Correlation         :    -0.49998952
   DIIS-Error          :       0.007886005444
   DIIS coefficients:
      0.16785  -0.11308   0.94524

                      *** Initiating the SOSCF procedure ***
                           *** Shutting down DIIS ***
                      *** Re-Reading the Fockian *** 
                      *** Removing any level shift *** 

                         ----------------------------
                         !        ITERATION     5   !
                         ----------------------------
   Total Energy        :     -78.504448524282 Eh
   Energy Change       :      -0.000316047890 Eh
   MAX-DP              :       0.002123490830
   RMS-DP              :       0.000205856970
   Orbital gradient    :       0.000950765453
   Orbital Rotation    :       0.000950765453
   Actual Damping      :       0.0000
   Int. Num. El.       :    15.99998748 (UP=    7.99999374 DN=    7.99999374)
   Exchange            :   -11.75227233
   Correlation         :    -0.50060298

               *** Restarting incremental Fock matrix formation ***

                         ----------------------------
                         !        ITERATION     6   !
                         ----------------------------
   Total Energy        :     -78.504467040076 Eh
   Energy Change       :      -0.000018515794 Eh
   MAX-DP              :       0.001327315886
   RMS-DP              :       0.000129749709
   Orbital gradient    :       0.000407293716
   Orbital Rotation    :       0.000848871587
   Actual Damping      :       0.0000
   Int. Num. El.       :    15.99998747 (UP=    7.99999374 DN=    7.99999374)
   Exchange            :   -11.75499471
   Correlation         :    -0.50076168


                         ----------------------------
                         !        ITERATION     7   !
                         ----------------------------
   Total Energy        :     -78.504467011139 Eh
   Energy Change       :       0.000000028937 Eh
   MAX-DP              :       0.000555666380
   RMS-DP              :       0.000036898406
   Orbital gradient    :       0.000436927797
   Orbital Rotation    :       0.000308198086
   Actual Damping      :       0.0000
   Int. Num. El.       :    15.99998748 (UP=    7.99999374 DN=    7.99999374)
   Exchange            :   -11.75678947
   Correlation         :    -0.50087218


                         ----------------------------
                         !        ITERATION     8   !
                         ----------------------------
   Total Energy        :     -78.504468465505 Eh
   Energy Change       :      -0.000001454367 Eh
   MAX-DP              :       0.000080128490
   RMS-DP              :       0.000008017240
   Orbital gradient    :       0.000026192420
   Orbital Rotation    :       0.000044258485
   Actual Damping      :       0.0000
   Int. Num. El.       :    15.99998746 (UP=    7.99999373 DN=    7.99999373)
   Exchange            :   -11.75584437
   Correlation         :    -0.50082524


                         ----------------------------
                         !        ITERATION     9   !
                         ----------------------------
   Total Energy        :     -78.504468473303 Eh
   Energy Change       :      -0.000000007797 Eh
   MAX-DP              :       0.000013890246
   RMS-DP              :       0.000001498268
   Orbital gradient    :       0.000010145112
   Orbital Rotation    :       0.000011365226
   Actual Damping      :       0.0000
   Int. Num. El.       :    15.99998746 (UP=    7.99999373 DN=    7.99999373)
   Exchange            :   -11.75581871
   Correlation         :    -0.50082351

                 **** Energy Check signals convergence ****
              ***Rediagonalizing the Fockian in SOSCF/NRSCF***

               *****************************************************
               *                     SUCCESS                       *
               *           SCF CONVERGED AFTER  10 CYCLES          *
               *****************************************************

Setting up the final grid:

General Integration Accuracy     IntAcc      ...  5.010
Radial Grid Type                 RadialGrid  ... Gauss-Chebyshev
Angular Grid (max. acc.)         AngularGrid ... Lebedev-434
Angular grid pruning method      GridPruning ... 3 (G Style)
Weight generation scheme         WeightScheme... Becke
Basis function cutoff            BFCut       ...    1.0000e-11
Integration weight cutoff        WCut        ...    1.0000e-14
Grids for H and He will be reduced by one unit

# of grid points (after initial pruning)     ...  48164 (   0.0 sec)
# of grid points (after weights+screening)   ...  46652 (   0.0 sec)
nearest neighbour list constructed           ...    0.0 sec
Grid point re-assignment to atoms done       ...    0.0 sec
Grid point division into batches done        ...    0.5 sec
Reduced shell lists constructed in    0.6 sec

Total number of grid points                  ...    46652
Total number of batches                      ...      732
Average number of points per batch           ...       63
Average number of grid points per atom       ...     7775
Average number of shells per batch           ...    23.20 (96.68%)
Average number of basis functions per batch  ...    46.68 (97.26%)
Average number of large shells per batch     ...    22.26 (95.94%)
Average number of large basis fcns per batch ...    44.88 (96.13%)
Maximum spatial batch extension              ...   8.86, 10.23,  3.63 au
Average spatial batch extension              ...   0.20,  0.21,  0.18 au

Final grid set up in    0.6 sec
Final integration                            ... done (   0.3 sec)
Change in XC energy                          ...     0.000043274
Integrated number of electrons               ...    16.000000391
Previous integrated no of electrons          ...    15.999987464

----------------
TOTAL SCF ENERGY
----------------

Total Energy       :          -78.50442520 Eh           -2136.21401 eV

Components:
Nuclear Repulsion  :           33.40176204 Eh             908.90815 eV
Electronic Energy  :         -111.90618724 Eh           -3045.12217 eV
One Electron Energy:         -170.27858078 Eh           -4633.51575 eV
Two Electron Energy:           58.37239355 Eh            1588.39358 eV

Virial components:
Potential Energy   :         -156.05634487 Eh           -4246.50903 eV
Kinetic Energy     :           77.55191967 Eh            2110.29502 eV
Virial Ratio       :            2.01228217


DFT components:
N(Alpha)           :        8.000000195553 electrons
N(Beta)            :        8.000000195553 electrons
N(Total)           :       16.000000391107 electrons
E(X)               :      -11.755813199020 Eh       
E(C)               :       -0.500800063724 Eh       
E(XC)              :      -12.256613262743 Eh       
DFET-embed. en.    :        0.000000000000 Eh       

---------------
SCF CONVERGENCE
---------------

  Last Energy change         ...   -4.3426e-10  Tolerance :   1.0000e-08
  Last MAX-Density change    ...    2.0385e-06  Tolerance :   1.0000e-07
  Last RMS-Density change    ...    2.6445e-07  Tolerance :   5.0000e-09
  Last Orbital Gradient      ...    8.7905e-07  Tolerance :   1.0000e-05
  Last Orbital Rotation      ...    1.0104e-06  Tolerance :   1.0000e-05

             **** THE GBW FILE WAS UPDATED (C2H4.gbw) ****
             **** DENSITY FILE WAS UPDATED (C2H4.scfp) ****
             **** ENERGY FILE WAS UPDATED (C2H4.en.tmp) ****
             **** THE GBW FILE WAS UPDATED (C2H4.gbw) ****
             **** DENSITY FILE WAS UPDATED (C2H4.scfp) ****
----------------
ORBITAL ENERGIES
----------------

  NO   OCC          E(Eh)            E(eV) 
   0   2.0000      -9.905617      -269.5455 
   1   2.0000      -9.905101      -269.5315 
   2   2.0000      -0.680555       -18.5189 
   3   2.0000      -0.511037       -13.9060 
   4   2.0000      -0.420156       -11.4330 
   5   2.0000      -0.363019        -9.8783 
   6   2.0000      -0.311292        -8.4707 
   7   2.0000      -0.240798        -6.5525 
   8   0.0000      -0.023466        -0.6386 
   9   0.0000       0.064126         1.7450 
  10   0.0000       0.083818         2.2808 
  11   0.0000       0.099553         2.7090 
  12   0.0000       0.168302         4.5797 
  13   0.0000       0.294665         8.0182 
  14   0.0000       0.373410        10.1610 
  15   0.0000       0.407403        11.0860 
  16   0.0000       0.412028        11.2119 
  17   0.0000       0.460879        12.5412 
  18   0.0000       0.508389        13.8340 
  19   0.0000       0.543425        14.7873 
  20   0.0000       0.605425        16.4744 
  21   0.0000       0.638474        17.3738 
  22   0.0000       0.643200        17.5024 
  23   0.0000       0.647315        17.6143 
  24   0.0000       0.766915        20.8688 
  25   0.0000       1.033117        28.1125 
  26   0.0000       1.107254        30.1299 
  27   0.0000       1.169341        31.8194 
  28   0.0000       1.214080        33.0368 
  29   0.0000       1.478295        40.2264 
  30   0.0000       1.551167        42.2094 
  31   0.0000       1.570264        42.7291 
  32   0.0000       1.639055        44.6010 
  33   0.0000       1.675464        45.5917 
  34   0.0000       1.719829        46.7989 
  35   0.0000       1.762440        47.9584 
  36   0.0000       1.836108        49.9630 
  37   0.0000       2.009769        54.6886 
  38   0.0000       2.088321        56.8261 
  39   0.0000       2.182452        59.3875 
  40   0.0000       2.285458        62.1905 
  41   0.0000       2.321723        63.1773 
  42   0.0000       2.382713        64.8369 
  43   0.0000       2.651828        72.1599 
  44   0.0000       2.706789        73.6555 
  45   0.0000       2.707672        73.6795 
  46   0.0000       3.021812        82.2277 
  47   0.0000       3.224372        87.7396 
------------------
MOLECULAR ORBITALS
------------------
                      0         1         2         3         4         5   
                  -9.90562  -9.90510  -0.68056  -0.51104  -0.42016  -0.36302
                   2.00000   2.00000   2.00000   2.00000   2.00000   2.00000
                  --------  --------  --------  --------  --------  --------
  0C   1s         0.699071  0.698313 -0.203185 -0.158092  0.000000  0.015222
  0C   2s         0.030694  0.037982  0.388351  0.322212 -0.000000 -0.034273
  0C   3s        -0.016288 -0.033549  0.109045  0.096283  0.000023  0.006813
  0C   1pz       -0.001939  0.001323  0.086427 -0.126388 -0.204273 -0.322542
  0C   1px       -0.001268  0.000866  0.056527 -0.082664  0.185658 -0.210959
  0C   1py        0.000918 -0.000627 -0.040924  0.059846 -0.174955  0.152728
  0C   2pz        0.000372 -0.002398  0.016115 -0.050707 -0.070117 -0.107401
  0C   2px        0.000243 -0.001568  0.010543 -0.033162  0.063752 -0.070246
  0C   2py       -0.000176  0.001135 -0.007634  0.024007 -0.060073  0.050861
  0C   1dz2       0.000441  0.001466  0.005243 -0.002175 -0.004036 -0.001659
  0C   1dxz      -0.000383  0.000479  0.007901 -0.006915  0.000595 -0.008874
  0C   1dyz       0.000476  0.000004 -0.005559  0.005583 -0.000893  0.007500
  0C   1dx2y2     0.000128  0.000406  0.001382 -0.000531  0.000440 -0.000364
  0C   1dxy      -0.001030 -0.002364 -0.004722 -0.000235 -0.002308 -0.002350
  1C   1s         0.699071 -0.698313 -0.203185  0.158092 -0.000000  0.015222
  1C   2s         0.030694 -0.037982  0.388351 -0.322212  0.000000 -0.034273
  1C   3s        -0.016288  0.033549  0.109045 -0.096283 -0.000023  0.006813
  1C   1pz        0.001939  0.001323 -0.086427 -0.126388 -0.204273  0.322542
  1C   1px        0.001268  0.000866 -0.056527 -0.082664  0.185658  0.210959
  1C   1py       -0.000918 -0.000627  0.040924  0.059846 -0.174955 -0.152728
  1C   2pz       -0.000372 -0.002398 -0.016115 -0.050707 -0.070117  0.107401
  1C   2px       -0.000243 -0.001568 -0.010543 -0.033162  0.063752  0.070246
  1C   2py        0.000176  0.001135  0.007634  0.024007 -0.060073 -0.050861
  1C   1dz2       0.000441 -0.001466  0.005243  0.002175  0.004036 -0.001659
  1C   1dxz      -0.000383 -0.000479  0.007901  0.006915 -0.000595 -0.008874
  1C   1dyz       0.000476 -0.000004 -0.005559 -0.005583  0.000893  0.007500
  1C   1dx2y2     0.000128 -0.000406  0.001382  0.000531 -0.000440 -0.000364
  1C   1dxy      -0.001030  0.002364 -0.004722  0.000235  0.002308 -0.002350
  2H   1s        -0.002965 -0.003611  0.108252  0.190314  0.202296  0.166076
  2H   2s         0.004774  0.005943  0.013408  0.042168  0.059668  0.068393
  2H   1pz       -0.001396 -0.002460  0.015248  0.013351  0.010589  0.000914
  2H   1px        0.000670  0.000452 -0.002255 -0.006658  0.002183 -0.008381
  2H   1py       -0.000686 -0.000589  0.003185  0.006774 -0.000978  0.007208
  3H   1s        -0.002965 -0.003611  0.108252  0.190315 -0.202296  0.166078
  3H   2s         0.004774  0.005943  0.013411  0.042171 -0.059662  0.068389
  3H   1pz        0.000630  0.000177 -0.000399 -0.006342 -0.004521 -0.010575
  3H   1px       -0.001171 -0.001945  0.011966  0.011242 -0.007699  0.002062
  3H   1py        0.001049  0.001670 -0.010216 -0.010093  0.006176 -0.002633
  4H   1s        -0.002965  0.003611  0.108252 -0.190315  0.202296  0.166078
  4H   2s         0.004774 -0.005943  0.013411 -0.042171  0.059662  0.068389
  4H   1pz       -0.000630  0.000177  0.000399 -0.006342 -0.004521  0.010575
  4H   1px        0.001171 -0.001945 -0.011966  0.011242 -0.007699 -0.002062
  4H   1py       -0.001049  0.001670  0.010216 -0.010093  0.006176  0.002633
  5H   1s        -0.002965  0.003611  0.108252 -0.190314 -0.202296  0.166076
  5H   2s         0.004774 -0.005943  0.013408 -0.042168 -0.059668  0.068393
  5H   1pz        0.001396 -0.002460 -0.015248  0.013351  0.010589 -0.000914
  5H   1px       -0.000670  0.000452  0.002255 -0.006658  0.002183  0.008381
  5H   1py        0.000686 -0.000589 -0.003185  0.006774 -0.000978 -0.007208
                      6         7         8         9        10        11   
                  -0.31129  -0.24080  -0.02347   0.06413   0.08382   0.09955
                   2.00000   2.00000   0.00000   0.00000   0.00000   0.00000
                  --------  --------  --------  --------  --------  --------
  0C   1s        -0.000000  0.000000  0.000001 -0.090270 -0.000022  0.114795
  0C   2s         0.000002 -0.000002 -0.000000  0.203390  0.000044 -0.227253
  0C   3s         0.000008 -0.000018 -0.000055  1.400047  0.000477 -2.099761
  0C   1pz        0.190247 -0.026196  0.028032 -0.131376 -0.174290  0.082519
  0C   1px       -0.172905  0.268385 -0.287227 -0.085928  0.158374  0.054027
  0C   1py        0.162938  0.315390 -0.337524  0.062193 -0.149266 -0.039122
  0C   2pz        0.027539 -0.017069  0.038490 -0.387581 -0.426929  0.084838
  0C   2px       -0.025038  0.174653 -0.394144 -0.253495  0.388067  0.055621
  0C   2py        0.023594  0.205249 -0.463220  0.183512 -0.365681 -0.040284
  0C   1dz2      -0.019989 -0.001498 -0.002021 -0.000195 -0.022625  0.002800
  0C   1dxz       0.002940  0.008293  0.011194  0.008424  0.003328  0.002902
  0C   1dyz      -0.004420  0.010820  0.014605 -0.007645 -0.005003 -0.001781
  0C   1dx2y2     0.002180  0.010724  0.014474 -0.000152  0.002467  0.000755
  0C   1dxy      -0.011432  0.002615  0.003528  0.005437 -0.012938 -0.003329
  1C   1s        -0.000000 -0.000000  0.000001 -0.090270  0.000022 -0.114795
  1C   2s         0.000002  0.000002 -0.000000  0.203390 -0.000044  0.227253
  1C   3s         0.000008  0.000018 -0.000055  1.400046 -0.000477  2.099760
  1C   1pz       -0.190247 -0.026196 -0.028032  0.131376 -0.174290  0.082519
  1C   1px        0.172905  0.268385  0.287227  0.085928  0.158374  0.054027
  1C   1py       -0.162938  0.315390  0.337524 -0.062193 -0.149266 -0.039122
  1C   2pz       -0.027539 -0.017069 -0.038490  0.387581 -0.426929  0.084838
  1C   2px        0.025038  0.174653  0.394144  0.253495  0.388066  0.055621
  1C   2py       -0.023594  0.205249  0.463220 -0.183512 -0.365680 -0.040284
  1C   1dz2      -0.019989  0.001498 -0.002021 -0.000195  0.022625 -0.002800
  1C   1dxz       0.002940 -0.008293  0.011194  0.008424 -0.003328 -0.002902
  1C   1dyz      -0.004420 -0.010820  0.014605 -0.007645  0.005003  0.001781
  1C   1dx2y2     0.002180 -0.010724  0.014474 -0.000152 -0.002467 -0.000755
  1C   1dxy      -0.011432 -0.002615  0.003528  0.005437  0.012938  0.003329
  2H   1s        -0.273459 -0.000001  0.000004 -0.058182 -0.091393  0.062544
  2H   2s        -0.163860 -0.000016  0.000022 -1.004538 -1.039079  1.144780
  2H   1pz       -0.008159 -0.000874  0.001424  0.004889  0.009699 -0.009982
  2H   1px       -0.001275  0.008947 -0.014593 -0.009240  0.001273  0.000916
  2H   1py        0.000407  0.010514 -0.017148  0.008267 -0.000280 -0.001609
  3H   1s         0.273456  0.000000  0.000006 -0.058201  0.091388  0.062604
  3H   2s         0.163850  0.000007  0.000039 -1.004477  1.038635  1.145165
  3H   1pz        0.002963 -0.000873  0.001424 -0.011024 -0.003210 -0.000458
  3H   1px        0.005999  0.008947 -0.014593  0.005226 -0.007168 -0.007747
  3H   1py       -0.004858  0.010514 -0.017149 -0.005364  0.005833  0.006554
  4H   1s         0.273456 -0.000000  0.000006 -0.058201 -0.091388 -0.062604
  4H   2s         0.163850 -0.000007  0.000039 -1.004477 -1.038635 -1.145165
  4H   1pz       -0.002963 -0.000873 -0.001424  0.011024 -0.003210 -0.000458
  4H   1px       -0.005999  0.008947  0.014593 -0.005226 -0.007168 -0.007747
  4H   1py        0.004858  0.010514  0.017149  0.005364  0.005833  0.006554
  5H   1s        -0.273459  0.000001  0.000004 -0.058182  0.091393 -0.062544
  5H   2s        -0.163860  0.000016  0.000022 -1.004538  1.039079 -1.144780
  5H   1pz        0.008159 -0.000874 -0.001424 -0.004889  0.009699 -0.009982
  5H   1px        0.001275  0.008947  0.014593  0.009239  0.001273  0.000916
  5H   1py       -0.000407  0.010514  0.017148 -0.008267 -0.000280 -0.001609
                     12        13        14        15        16        17   
                   0.16830   0.29467   0.37341   0.40740   0.41203   0.46088
                   0.00000   0.00000   0.00000   0.00000   0.00000   0.00000
                  --------  --------  --------  --------  --------  --------
  0C   1s        -0.000002 -0.065466 -0.070229 -0.080238  0.000008  0.000001
  0C   2s         0.000004  0.143452  0.615555  0.717295 -0.000002 -0.000057
  0C   3s         0.000069  4.546723 -0.348083 -1.607118 -0.000270  0.000506
  0C   1pz        0.173156  0.188415  0.318828 -0.003831 -0.012986  0.043610
  0C   1px       -0.157369  0.123228  0.208530 -0.002493  0.011761 -0.446286
  0C   1py        0.148293 -0.089179 -0.151028  0.001883 -0.011129 -0.524445
  0C   2pz        0.875595  2.404560 -0.675393  0.371472  0.244284 -0.039321
  0C   2px       -0.795861  1.572704 -0.441726  0.242909 -0.222108  0.403590
  0C   2py        0.749981 -1.138619  0.319869 -0.175968  0.209336  0.474078
  0C   1dz2      -0.010463 -0.009196  0.019495  0.029970  0.093201  0.004312
  0C   1dxz       0.001540 -0.033289  0.038597 -0.019563 -0.013712 -0.023894
  0C   1dyz      -0.002314  0.027254 -0.028972  0.026525  0.020605 -0.031166
[...]
     10       0.000000   0.000000   0.000000   0.000000   0.000000   0.000000
     11       0.000000   0.000000   0.000000   0.000000   0.000000   0.000000
     12      -0.000015  -0.000005   0.000001   0.000010  -0.000016   0.000005
     13       0.000000   0.000000   0.000000   0.000000   0.000000   0.000000
     14       0.000000   0.000000   0.000000   0.000000   0.000000   0.000000
     15       0.000000   0.000000   0.000000   0.000000   0.000000   0.000000
     16       0.000000   0.000000   0.000000   0.000000   0.000000   0.000000
     17       0.000000   0.000000   0.000000   0.000000   0.000000   0.000000
                 12         13         14         15         16         17    
      0      -0.000089   0.000000   0.000000   0.000000   0.000000   0.000000
      1       0.000059   0.000000   0.000000   0.000000   0.000000   0.000000
      2      -0.000035   0.000000   0.000000   0.000000   0.000000   0.000000
      3      -0.000058   0.000000   0.000000   0.000000   0.000000   0.000000
      4       0.000088   0.000000   0.000000   0.000000   0.000000   0.000000
      5      -0.000002   0.000000   0.000000   0.000000   0.000000   0.000000
      6      -0.000015   0.000000   0.000000   0.000000   0.000000   0.000000
      7      -0.000005   0.000000   0.000000   0.000000   0.000000   0.000000
      8       0.000001   0.000000   0.000000   0.000000   0.000000   0.000000
      9       0.000010   0.000000   0.000000   0.000000   0.000000   0.000000
     10      -0.000016   0.000000   0.000000   0.000000   0.000000   0.000000
     11       0.000005   0.000000   0.000000   0.000000   0.000000   0.000000
     12       0.000122   0.000000   0.000000   0.000000   0.000000   0.000000
     13       0.000000   0.000000   0.000000   0.000000   0.000000   0.000000
     14       0.000000   0.000000   0.000000   0.000000   0.000000   0.000000
     15       0.000000   0.000000   0.000000   0.000000   0.000000   0.000000
     16       0.000000   0.000000   0.000000   0.000000   0.000000   0.000000
     17       0.000000   0.000000   0.000000   0.000000   0.000000   0.000000

done   (      0.3 sec)
gCP correction in the Hessian                    ...  
-----------------
gCP hessian 
from Numerical Differentiation: 
-----------------
                  0          1          2          3          4          5    
      0      -0.000643  -0.001546   0.000296   0.000164   0.000299  -0.000630
      1      -0.001546  -0.001171   0.000017   0.000299   0.000360   0.000456
      2       0.000296   0.000017   0.000743  -0.000630   0.000456  -0.000388
      3       0.000164   0.000299  -0.000630  -0.000643  -0.001546   0.000296
      4       0.000299   0.000360   0.000456  -0.001546  -0.001171   0.000017
      5      -0.000630   0.000456  -0.000388   0.000296   0.000017   0.000743
      6       0.000756   0.000108   0.000391   0.000090   0.000009  -0.000094
      7       0.000108   0.000714  -0.000476   0.000009   0.000106   0.000043
      8       0.000391  -0.000476  -0.000872  -0.000094   0.000043  -0.000327
      9      -0.000248   0.000945   0.000176  -0.000120   0.000185  -0.000139
     10       0.000945   0.000029  -0.000152   0.000185  -0.000037   0.000111
     11       0.000176  -0.000152   0.000817  -0.000139   0.000111   0.000027
     12      -0.000120   0.000185  -0.000139  -0.000248   0.000945   0.000176
     13       0.000185  -0.000037   0.000111   0.000945   0.000029  -0.000152
     14      -0.000139   0.000111   0.000027   0.000176  -0.000152   0.000817
     15       0.000090   0.000009  -0.000094   0.000756   0.000108   0.000391
     16       0.000009   0.000106   0.000043   0.000108   0.000714  -0.000476
     17      -0.000094   0.000043  -0.000327   0.000391  -0.000476  -0.000872
                  6          7          8          9         10         11    
      0       0.000756   0.000108   0.000391  -0.000248   0.000945   0.000176
      1       0.000108   0.000714  -0.000476   0.000945   0.000029  -0.000152
      2       0.000391  -0.000476  -0.000872   0.000176  -0.000152   0.000817
      3       0.000090   0.000009  -0.000094  -0.000120   0.000185  -0.000139
      4       0.000009   0.000106   0.000043   0.000185  -0.000037   0.000111
      5      -0.000094   0.000043  -0.000327  -0.000139   0.000111   0.000027
      6      -0.000835  -0.000192  -0.000334  -0.000010   0.000059   0.000069
      7      -0.000192  -0.000825   0.000476   0.000059  -0.000003  -0.000065
      8      -0.000334   0.000476   0.001278   0.000069  -0.000065  -0.000023
      9      -0.000010   0.000059   0.000069   0.000394  -0.001216  -0.000071
     10       0.000059  -0.000003  -0.000065  -0.001216   0.000014   0.000080
     11       0.000069  -0.000065  -0.000023  -0.000071   0.000080  -0.000791
     12      -0.000005   0.000015  -0.000031  -0.000011   0.000012  -0.000005
     13       0.000015   0.000004   0.000022   0.000012  -0.000006   0.000004
     14      -0.000031   0.000022  -0.000032  -0.000005   0.000004   0.000002
     15       0.000004  -0.000000  -0.000002  -0.000005   0.000015  -0.000031
     16      -0.000000   0.000004  -0.000001   0.000015   0.000004   0.000022
     17      -0.000002  -0.000001  -0.000023  -0.000031   0.000022  -0.000032
                 12         13         14         15         16         17    
      0      -0.000120   0.000185  -0.000139   0.000090   0.000009  -0.000094
      1       0.000185  -0.000037   0.000111   0.000009   0.000106   0.000043
      2      -0.000139   0.000111   0.000027  -0.000094   0.000043  -0.000327
      3      -0.000248   0.000945   0.000176   0.000756   0.000108   0.000391
      4       0.000945   0.000029  -0.000152   0.000108   0.000714  -0.000476
      5       0.000176  -0.000152   0.000817   0.000391  -0.000476  -0.000872
      6      -0.000005   0.000015  -0.000031   0.000004  -0.000000  -0.000002
      7       0.000015   0.000004   0.000022  -0.000000   0.000004  -0.000001
      8      -0.000031   0.000022  -0.000032  -0.000002  -0.000001  -0.000023
      9      -0.000011   0.000012  -0.000005  -0.000005   0.000015  -0.000031
     10       0.000012  -0.000006   0.000004   0.000015   0.000004   0.000022
     11      -0.000005   0.000004   0.000002  -0.000031   0.000022  -0.000032
     12       0.000394  -0.001216  -0.000071  -0.000010   0.000059   0.000069
     13      -0.001216   0.000014   0.000080   0.000059  -0.000003  -0.000065
     14      -0.000071   0.000080  -0.000791   0.000069  -0.000065  -0.000023
     15      -0.000010   0.000059   0.000069  -0.000835  -0.000192  -0.000334
     16       0.000059  -0.000003  -0.000065  -0.000192  -0.000825   0.000476
     17       0.000069  -0.000065  -0.000023  -0.000334   0.000476   0.001278

done   (      0.1 sec)
Dipol derivatives                                ... done   (      0.1 sec)

-------
TIMINGS
-------

Total SCF Hessian time: 0 days 0 hours 0 min 9 sec 
                   F(y)            G[Q(x)]           CPSCF         Total
Table01         0.5  0.05         0.3  0.03         3.5  0.35         9.9 
Table01a        0.5  0.05,        0.3, 0.03,        3.5  0.35         9.9 
Table01b        0.5   5.2,        0.3,  3.0,        3.5  35.1         9.9 

Writing the Hessian file to the disk             ... done


Maximum memory used throughout the entire calculation: 131.8 MB

-----------------------
VIBRATIONAL FREQUENCIES
-----------------------

Scaling factor for frequencies =  1.000000000  (already applied!)

   0:         0.00 cm**-1
   1:         0.00 cm**-1
   2:         0.00 cm**-1
   3:         0.00 cm**-1
   4:         0.00 cm**-1
   5:         0.00 cm**-1
   6:       796.63 cm**-1
   7:       917.19 cm**-1
   8:       925.64 cm**-1
   9:      1024.27 cm**-1
  10:      1180.76 cm**-1
  11:      1320.95 cm**-1
  12:      1395.03 cm**-1
  13:      1637.52 cm**-1
  14:      3035.68 cm**-1
  15:      3051.74 cm**-1
  16:      3118.88 cm**-1
  17:      3143.14 cm**-1


------------
NORMAL MODES
------------

These modes are the Cartesian displacements weighted by the diagonal matrix
M(i,i)=1/sqrt(m[i]) where m[i] is the mass of the displaced atom
Thus, these vectors are normalized but *not* orthogonal

                  0          1          2          3          4          5    
      0       0.000000   0.000000   0.000000   0.000000   0.000000   0.000000
      1       0.000000   0.000000   0.000000   0.000000   0.000000   0.000000
      2       0.000000   0.000000   0.000000   0.000000   0.000000   0.000000
      3       0.000000   0.000000   0.000000   0.000000   0.000000   0.000000
      4       0.000000   0.000000   0.000000   0.000000   0.000000   0.000000
      5       0.000000   0.000000   0.000000   0.000000   0.000000   0.000000
      6       0.000000   0.000000   0.000000   0.000000   0.000000   0.000000
      7       0.000000   0.000000   0.000000   0.000000   0.000000   0.000000
      8       0.000000   0.000000   0.000000   0.000000   0.000000   0.000000
      9       0.000000   0.000000   0.000000   0.000000   0.000000   0.000000
     10       0.000000   0.000000   0.000000   0.000000   0.000000   0.000000
     11       0.000000   0.000000   0.000000   0.000000   0.000000   0.000000
     12       0.000000   0.000000   0.000000   0.000000   0.000000   0.000000
     13       0.000000   0.000000   0.000000   0.000000   0.000000   0.000000
     14       0.000000   0.000000   0.000000   0.000000   0.000000   0.000000
     15       0.000000   0.000000   0.000000   0.000000   0.000000   0.000000
     16       0.000000   0.000000   0.000000   0.000000   0.000000   0.000000
     17       0.000000   0.000000   0.000000   0.000000   0.000000   0.000000
                  6          7          8          9         10         11    
      0      -0.022575   0.098929  -0.053905   0.000006   0.087541  -0.043565
      1       0.021284   0.116246  -0.063339   0.000012  -0.082493   0.031541
      2       0.024845  -0.009646   0.005262   0.000000  -0.096323  -0.066598
      3      -0.022575  -0.098929  -0.053905   0.000005  -0.087541   0.043565
      4       0.021284  -0.116246  -0.063339   0.000012   0.082493  -0.031541
      5       0.024845   0.009646   0.005262   0.000000   0.096323   0.066598
      6       0.358154  -0.315741   0.321129  -0.323405  -0.318507  -0.345992
      7      -0.288679  -0.371029   0.377275  -0.380114   0.248275   0.275747
      8       0.193891   0.030824  -0.031315   0.031586  -0.273986  -0.224872
      9      -0.089156  -0.315735   0.321188   0.323339   0.156474  -0.114656
     10       0.035065  -0.371030   0.377448   0.379972  -0.095602   0.057742
     11      -0.489936   0.030805  -0.031383  -0.031588   0.452188  -0.479455
     12      -0.089156   0.315735   0.321188   0.323339  -0.156474   0.114656
     13       0.035065   0.371030   0.377448   0.379972   0.095602  -0.057742
     14      -0.489936  -0.030805  -0.031383  -0.031588  -0.452188   0.479455
     15       0.358154   0.315741   0.321129  -0.323405   0.318507   0.345993
     16      -0.288679   0.371029   0.377275  -0.380114  -0.248275  -0.275747
     17       0.193891  -0.030824  -0.031315   0.031586   0.273986   0.224872
                 12         13         14         15         16         17    
      0       0.035004   0.172365   0.021652  -0.028358   0.039533   0.040149
      1      -0.025345  -0.124801  -0.015675   0.020532  -0.037256  -0.037835
      2       0.053520   0.263549   0.033109  -0.043341  -0.043510  -0.044173
      3       0.035004  -0.172365   0.021652   0.028358  -0.039533   0.040149
      4      -0.025345   0.124801  -0.015675  -0.020532   0.037256  -0.037835
      5       0.053520  -0.263549   0.033109   0.043341   0.043510  -0.044173
      6      -0.368901  -0.325325   0.115221  -0.113221  -0.103984  -0.104350
      7       0.302097   0.283531  -0.136753   0.135064   0.127501   0.127778
      8      -0.142445   0.080008  -0.465984   0.466164   0.469669   0.469321
      9      -0.048197   0.113925  -0.373216   0.373179  -0.374105  -0.374053
     10      -0.000088  -0.130400   0.323533  -0.323289   0.323042   0.323047
     11      -0.495283  -0.403295   0.071470  -0.068898   0.056462   0.057029
     12      -0.048197  -0.113925  -0.373216  -0.373180   0.374105  -0.374053
     13      -0.000088   0.130400   0.323533   0.323289  -0.323042   0.323047
     14      -0.495282   0.403295   0.071470   0.068898  -0.056462   0.057029
     15      -0.368900   0.325325   0.115220   0.113221   0.103984  -0.104350
     16       0.302097  -0.283531  -0.136753  -0.135065  -0.127500   0.127778
     17      -0.142444  -0.080008  -0.465983  -0.466164  -0.469669   0.469321


-----------
IR SPECTRUM
-----------

 Mode    freq (cm**-1)   T**2         TX         TY         TZ
-------------------------------------------------------------------
   6:       796.63    1.025533  (  0.575020  -0.543296  -0.632230)
   7:       917.19    0.000000  (  0.000001   0.000001   0.000000)
   8:       925.64   79.676548  (  5.772801   6.784783  -0.563952)
   9:      1024.27    0.000005  ( -0.000845  -0.001924  -0.000567)
  10:      1180.76    0.000000  ( -0.000000   0.000000   0.000000)
  11:      1320.95    0.000000  (  0.000001  -0.000001   0.000001)
  12:      1395.03    5.420870  ( -1.186040   0.859045  -1.810034)
  13:      1637.52    0.000000  (  0.000000  -0.000000   0.000000)
  14:      3035.68   15.885059  (  2.028420  -1.468689   3.100568)
  15:      3051.74    0.000000  (  0.000000  -0.000000   0.000001)
  16:      3118.88    0.000000  (  0.000001  -0.000001  -0.000000)
  17:      3143.14   20.142150  (  2.549176  -2.402226  -2.805915)

The first frequency considered to be a vibration is 6
The total number of vibrations considered is 12


--------------------------
THERMOCHEMISTRY AT 298.15K
--------------------------

Temperature         ... 298.15 K
Pressure            ... 1.00 atm
Total Mass          ... 28.05 AMU

Throughout the following assumptions are being made:
  (1) The electronic state is orbitally nondegenerate
  (2) There are no thermally accessible electronically excited states
  (3) Hindered rotations indicated by low frequency modes are not
      treated as such but are treated as vibrations and this may
      cause some error
  (4) All equations used are the standard statistical mechanics
      equations for an ideal gas
  (5) All vibrations are strictly harmonic

freq.     796.63  E(vib)   ...       0.05 
freq.     917.19  E(vib)   ...       0.03 
freq.     925.64  E(vib)   ...       0.03 
freq.    1024.27  E(vib)   ...       0.02 
freq.    1180.76  E(vib)   ...       0.01 
freq.    1320.95  E(vib)   ...       0.01 
freq.    1395.03  E(vib)   ...       0.00 
freq.    1637.52  E(vib)   ...       0.00 
freq.    3035.68  E(vib)   ...       0.00 
freq.    3051.74  E(vib)   ...       0.00 
freq.    3118.88  E(vib)   ...       0.00 
freq.    3143.14  E(vib)   ...       0.00 

------------
INNER ENERGY
------------

The inner energy is: U= E(el) + E(ZPE) + E(vib) + E(rot) + E(trans)
    E(el)   - is the total energy from the electronic structure calculation
              = E(kin-el) + E(nuc-el) + E(el-el) + E(nuc-nuc)
    E(ZPE)  - the the zero temperature vibrational energy from the frequency calculation
    E(vib)  - the the finite temperature correction to E(ZPE) due to population
              of excited vibrational states
    E(rot)  - is the rotational thermal energy
    E(trans)- is the translational thermal energy

Summary of contributions to the inner energy U:
Electronic energy                ...    -78.49913839 Eh
Zero point energy                ...      0.04908861 Eh      30.80 kcal/mol
Thermal vibrational correction   ...      0.00025128 Eh       0.16 kcal/mol
Thermal rotational correction    ...      0.00141627 Eh       0.89 kcal/mol
Thermal translational correction ...      0.00141627 Eh       0.89 kcal/mol
-----------------------------------------------------------------------
Total thermal energy                    -78.44696596 Eh


Summary of corrections to the electronic energy:
(perhaps to be used in another calculation)
Total thermal correction                  0.00308382 Eh       1.94 kcal/mol
Non-thermal (ZPE) correction              0.04908861 Eh      30.80 kcal/mol
-----------------------------------------------------------------------
Total correction                          0.05217243 Eh      32.74 kcal/mol


--------
ENTHALPY
--------

The enthalpy is H = U + kB*T
                kB is Boltzmann's constant
Total free energy                 ...    -78.44696596 Eh 
Thermal Enthalpy correction       ...      0.00094421 Eh       0.59 kcal/mol
-----------------------------------------------------------------------
Total Enthalpy                    ...    -78.44602175 Eh


Note: Rotational entropy computed according to Herzberg 
Infrared and Raman Spectra, Chapter V,1, Van Nostrand Reinhold, 1945 
Point Group:  Ci, Symmetry Number:   1  
Rotational constants in cm-1:     4.728678     0.977311     0.809919 

Vibrational entropy computed according to the QRRHO of S. Grimme
Chem.Eur.J. 2012 18 9955


-------
ENTROPY
-------

The entropy contributions are T*S = T*(S(el)+S(vib)+S(rot)+S(trans))
     S(el)   - electronic entropy
     S(vib)  - vibrational entropy
     S(rot)  - rotational entropy
     S(trans)- translational entropy
The entropies will be listed as mutliplied by the temperature to get
units of energy

Electronic entropy                ...      0.00000000 Eh      0.00 kcal/mol
Vibrational entropy               ...      0.00030716 Eh      0.19 kcal/mol
Rotational entropy                ...      0.00888771 Eh      5.58 kcal/mol
Translational entropy             ...      0.01707111 Eh     10.71 kcal/mol
-----------------------------------------------------------------------
Final entropy term                ...      0.02626598 Eh     16.48 kcal/mol

In case the symmetry of your molecule has not been determined correctly
or in case you have a reason to use a different symmetry number we print 
out the resulting rotational entropy values for sn=1,12 :
 --------------------------------------------------------
|  sn= 1 | S(rot)=       0.00888771 Eh      5.58 kcal/mol|
|  sn= 2 | S(rot)=       0.00823325 Eh      5.17 kcal/mol|
|  sn= 3 | S(rot)=       0.00785042 Eh      4.93 kcal/mol|
|  sn= 4 | S(rot)=       0.00757880 Eh      4.76 kcal/mol|
|  sn= 5 | S(rot)=       0.00736811 Eh      4.62 kcal/mol|
|  sn= 6 | S(rot)=       0.00719597 Eh      4.52 kcal/mol|
|  sn= 7 | S(rot)=       0.00705042 Eh      4.42 kcal/mol|
|  sn= 8 | S(rot)=       0.00692434 Eh      4.35 kcal/mol|
|  sn= 9 | S(rot)=       0.00681313 Eh      4.28 kcal/mol|
|  sn=10 | S(rot)=       0.00671365 Eh      4.21 kcal/mol|
|  sn=11 | S(rot)=       0.00662366 Eh      4.16 kcal/mol|
|  sn=12 | S(rot)=       0.00654151 Eh      4.10 kcal/mol|
 --------------------------------------------------------


-------------------
GIBBS FREE ENERGY
-------------------

The Gibbs free energy is G = H - T*S

Total enthalpy                    ...    -78.44602175 Eh 
Total entropy correction          ...     -0.02626598 Eh    -16.48 kcal/mol
-----------------------------------------------------------------------
Final Gibbs free energy         ...    -78.47228773 Eh

For completeness - the Gibbs free energy minus the electronic energy
G-E(el)                           ...      0.02685066 Eh     16.85 kcal/mol


Timings for individual modules:

Sum of individual times         ...       44.637 sec (=   0.744 min)
GTO integral calculation        ...        6.110 sec (=   0.102 min)  13.7 %
SCF iterations                  ...       20.420 sec (=   0.340 min)  45.7 %
SCF Gradient evaluation         ...        6.255 sec (=   0.104 min)  14.0 %
Geometry relaxation             ...        0.695 sec (=   0.012 min)   1.6 %
Analytical frequency calculation...       11.157 sec (=   0.186 min)  25.0 %
                             ****ORCA TERMINATED NORMALLY****
TOTAL RUN TIME: 0 days 0 hours 0 minutes 46 seconds 343 msec
