
                                 *****************
                                 * O   R   C   A *
                                 *****************

           --- An Ab Initio, DFT and Semiempirical electronic structure package ---

                  #######################################################
                  #                        -***-                        #
                  #          Department of theory and spectroscopy      #
                  #               Directorship: Frank Neese             #
                  #        Max Planck Institute fuer Kohlenforschung    #
                  #                Kaiser Wilhelm Platz 1               #
                  #                 D-45470 Muelheim/Ruhr               #
                  #                      Germany                        #
                  #                                                     #
                  #                  All rights reserved                #
                  #                        -***-                        #
                  #######################################################


                         Program Version 4.1.1  - RELEASE  -


 With contributions from (in alphabetic order):
   Daniel Aravena         : Magnetic Properties
   Michael Atanasov       : Ab Initio Ligand Field Theory
   Alexander A. Auer      : GIAO ZORA
   Ute Becker             : Parallelization
   Giovanni Bistoni       : ED, Open-shell LED
   Martin Brehm           : Molecular dynamics
   Dmytro Bykov           : SCF Hessian
   Vijay G. Chilkuri      : MRCI spin determinant printing
   Dipayan Datta          : RHF DLPNO-CCSD density
   Achintya Kumar Dutta   : EOM-CC, STEOM-CC
   Dmitry Ganyushin       : Spin-Orbit,Spin-Spin,Magnetic field MRCI
   Miquel Garcia          : C-PCM Hessian
   Yang Guo               : DLPNO-NEVPT2, CIM, IAO-localization
   Andreas Hansen         : Spin unrestricted coupled pair/coupled cluster methods
   Benjamin Helmich-Paris : CASSCF linear response (MC-RPA)
   Lee Huntington         : MR-EOM, pCC
   Robert Izsak           : Overlap fitted RIJCOSX, COSX-SCS-MP3, EOM
   Christian Kollmar      : KDIIS, OOCD, Brueckner-CCSD(T), CCSD density
   Simone Kossmann        : Meta GGA functionals, TD-DFT gradient, OOMP2, MP2 Hessian
   Martin Krupicka        : AUTO-CI
   Lucas Lang             : DCDCAS
   Dagmar Lenk            : GEPOL surface, SMD
   Dimitrios Liakos       : Extrapolation schemes; parallel MDCI
   Dimitrios Manganas     : ROCIS; embedding schemes
   Dimitrios Pantazis     : SARC Basis sets
   Taras Petrenko         : DFT Hessian,TD-DFT gradient, ASA, ECA, R-Raman, ABS, FL, XAS/XES, NRVS
   Peter Pinski           : DLPNO-MP2, DLPNO-MP2 Gradient
   Christoph Reimann      : Effective Core Potentials
   Marius Retegan         : Local ZFS, SOC
   Christoph Riplinger    : Optimizer, TS searches, QM/MM, DLPNO-CCSD(T), (RO)-DLPNO pert. Triples
   Tobias Risthaus        : Range-separated hybrids, TD-DFT gradient, RPA, STAB
   Michael Roemelt        : Restricted open shell CIS
   Masaaki Saitow         : Open-shell DLPNO
   Barbara Sandhoefer     : DKH picture change effects
   Avijit Sen             : IP-ROCIS
   Kantharuban Sivalingam : CASSCF convergence, NEVPT2, FIC-MRCI
   Bernardo de Souza      : ESD, SOC TD-DFT
   Georgi Stoychev        : AutoAux, RI-MP2 NMR
   Willem Van den Heuvel  : Paramagnetic NMR
   Boris Wezisla          : Elementary symmetry handling
   Frank Wennmohs         : Technical directorship


 We gratefully acknowledge several colleagues who have allowed us to
 interface, adapt or use parts of their codes:
   Stefan Grimme, W. Hujo, H. Kruse,             : VdW corrections, initial TS optimization,
                  C. Bannwarth                     DFT functionals, gCP, sTDA/sTD-DF
   Ed Valeev                                     : LibInt (2-el integral package), F12 methods
   Garnet Chan, S. Sharma, J. Yang, R. Olivares  : DMRG
   Ulf Ekstrom                                   : XCFun DFT Library
   Mihaly Kallay                                 : mrcc  (arbitrary order and MRCC methods)
   Andreas Klamt, Michael Diedenhofen            : otool_cosmo (COSMO solvation model)
   Jiri Pittner, Ondrej Demel                    : Mk-CCSD
   Frank Weinhold                                : gennbo (NPA and NBO analysis)
   Christopher J. Cramer and Donald G. Truhlar   : smd solvation model
   Lars Goerigk                                  : TD-DFT with DH, B97 family of functionals
   V. Asgeirsson, H. Jonsson                     : NEB implementation
   FAccTs GmbH                                   : IRC, NEB, NEB-TS, Multilevel


 Your calculation uses the libint2 library for the computation of 2-el integrals
 For citations please refer to: http://libint.valeyev.net

 This ORCA versions uses:
   CBLAS   interface :  Fast vector & matrix operations
   LAPACKE interface :  Fast linear algebra routines
   SCALAPACK package :  Parallel linear algebra routines


----- Orbital basis set information -----
Your calculation utilizes the basis: 6-311G**
   H, Li - Ne  : R. Krishnan, J. S. Binkley, R. Seeger and J. A. Pople, J. Chem. Phys. 72, 650 (1980).
   Na - Ar     : A. D. McLean and G. S. Chandler J. Chem. Phys. 72, 5639, (1980).
   K  - Ca     : J.-P. Blaudeau, M. P. McGrath, L. A. Curtiss and L. Radom, J. Chem. Phys. 107, 5016 (1997).
   Ga - Kr     : L. A. Curtiss, M. P. McGrath, J.-P. Blandeau, N. E. Davis, R. C. Binning and L. Radom, J. Chem. Phys. 103, 6104 (1995).
   Pol./Diff.
   H, Li - Cl  : T. Clark, J. Chandrasekhar and P. v. R. Schleyer, J. Comp. Chem. 4, 294 (1983).
   H - Ne      : M. J. Frisch, J. A. Pople and J. S. Binkley, J. Chem. Phys. 80, 3265 (1984).

================================================================================
                                        WARNINGS
                       Please study these warnings very carefully!
================================================================================


WARNING: Geometry Optimization
  ===> : Switching off AutoStart
         For restart on a previous wavefunction, please use MOREAD

WARNING: Post HF methods need fully converged wavefunctions
  ===> : Setting SCFConvForced true
         You can overwrite this default with %scf ConvForced false 


INFO   : the flag for use of LIBINT has been found!

================================================================================
                                       INPUT FILE
================================================================================
NAME = hcl.inp
|  1> ! UHF MP2 6-311G** Opt Freq NoFrozenCore TightOpt TightSCF
|  2> 
|  3> *xyz 0 1
|  4> Cl       0.000000000      0.000000000      0.035676156
|  5> H        0.000000000      0.000000000     -1.237867844
|  6> *
|  7> %pal
|  8>  nprocs 4
|  9> end
| 10> 
| 11>                          ****END OF INPUT****
================================================================================

                       *****************************
                       * Geometry Optimization Run *
                       *****************************

Geometry optimization settings:
Update method            Update   .... BFGS
Choice of coordinates    CoordSys .... Z-matrix Internals
Initial Hessian          InHess   .... Almoef's Model

Convergence Tolerances:
Energy Change            TolE     ....  1.0000e-06 Eh
Max. Gradient            TolMAXG  ....  1.0000e-04 Eh/bohr
RMS Gradient             TolRMSG  ....  3.0000e-05 Eh/bohr
Max. Displacement        TolMAXD  ....  1.0000e-03 bohr
RMS Displacement         TolRMSD  ....  6.0000e-04 bohr

------------------------------------------------------------------------------
                        ORCA OPTIMIZATION COORDINATE SETUP
------------------------------------------------------------------------------

The optimization will be done in new redundant internal coordinates
Making redundant internal coordinates   ...  (new redundants) done
Evaluating the initial hessian          ...  (Almloef) done
Evaluating the coordinates              ...  done
Calculating the B-matrix                .... done
Calculating the G-matrix                .... done
Diagonalizing the G-matrix              .... done
The first mode is                       ....    0
The number of degrees of freedom        ....    1

    -----------------------------------------------------------------
                    Redundant Internal Coordinates


    -----------------------------------------------------------------
         Definition                    Initial Value    Approx d2E/dq
    -----------------------------------------------------------------
      1. B(H   1,Cl  0)                  1.2735         0.411705   
    -----------------------------------------------------------------

Number of atoms                         .... 2
Number of degrees of freedom            .... 1

         *************************************************************
         *                GEOMETRY OPTIMIZATION CYCLE   1            *
         *************************************************************
---------------------------------
CARTESIAN COORDINATES (ANGSTROEM)
---------------------------------
  Cl     0.000000    0.000000    0.035676
  H      0.000000    0.000000   -1.237868

----------------------------
CARTESIAN COORDINATES (A.U.)
----------------------------
  NO LB      ZA    FRAG     MASS         X           Y           Z
   0 Cl   17.0000    0    35.453    0.000000    0.000000    0.067418
   1 H     1.0000    0     1.008    0.000000    0.000000   -2.339231

--------------------------------
INTERNAL COORDINATES (ANGSTROEM)
--------------------------------
 Cl     0   0   0     0.000000000000     0.00000000     0.00000000
 H      1   0   0     1.273544000000     0.00000000     0.00000000

---------------------------
INTERNAL COORDINATES (A.U.)
---------------------------
 Cl     0   0   0     0.000000000000     0.00000000     0.00000000
 H      1   0   0     2.406649379499     0.00000000     0.00000000

---------------------
BASIS SET INFORMATION
---------------------
There are 2 groups of distinct atoms

 Group   1 Type Cl  : 13s10p1d contracted to 6s5p1d pattern {631111/52111/1}
 Group   2 Type H   : 5s1p contracted to 3s1p pattern {311/1}

Atom   0Cl   basis set group =>   1
Atom   1H    basis set group =>   2


           ************************************************************
           *        Program running with 4 parallel MPI-processes     *
           *              working on a common directory               *
           ************************************************************
------------------------------------------------------------------------------
                           ORCA GTO INTEGRAL CALCULATION
------------------------------------------------------------------------------

                         BASIS SET STATISTICS AND STARTUP INFO

 # of primitive gaussian shells          ...   30
 # of primitive gaussian functions       ...   56
 # of contracted shells                  ...   16
 # of contracted basis functions         ...   32
 Highest angular momentum                ...    2
 Maximum contraction depth               ...    6
 Integral package used                   ... LIBINT
 Integral threshhold            Thresh   ...  2.500e-11
 Primitive cut-off              TCut     ...  2.500e-12


------------------------------ INTEGRAL EVALUATION ----------------------------


 * One electron integrals 
 Pre-screening matrix                    ... done
 Shell pair data                         ... done (   0.000 sec)



           ************************************************************
           *        Program running with 4 parallel MPI-processes     *
           *              working on a common directory               *
           ************************************************************
-------------------------------------------------------------------------------
                                 ORCA SCF
-------------------------------------------------------------------------------

------------
SCF SETTINGS
------------
Hamiltonian:
 Ab initio Hamiltonian  Method          .... Hartree-Fock(GTOs)


General Settings:
 Integral files         IntName         .... hcl
 Hartree-Fock type      HFTyp           .... UHF
 Total Charge           Charge          ....    0
 Multiplicity           Mult            ....    1
 Number of Electrons    NEL             ....   18
 Basis Dimension        Dim             ....   32
 Nuclear Repulsion      ENuc            ....      7.0637626506 Eh

Convergence Acceleration:
 DIIS                   CNVDIIS         .... on
   Start iteration      DIISMaxIt       ....    12
   Startup error        DIISStart       ....  0.200000
   # of expansion vecs  DIISMaxEq       ....     5
   Bias factor          DIISBfac        ....   1.050
   Max. coefficient     DIISMaxC        ....  10.000
 Newton-Raphson         CNVNR           .... off
 SOSCF                  CNVSOSCF        .... off
 Level Shifting         CNVShift        .... on
   Level shift para.    LevelShift      ....    0.2500
   Turn off err/grad.   ShiftErr        ....    0.0010
 Zerner damping         CNVZerner       .... off
 Static damping         CNVDamp         .... on
   Fraction old density DampFac         ....    0.7000
   Max. Damping (<1)    DampMax         ....    0.9800
   Min. Damping (>=0)   DampMin         ....    0.0000
   Turn off err/grad.   DampErr         ....    0.1000
 Fernandez-Rico         CNVRico         .... off

SCF Procedure:
 Maximum # iterations   MaxIter         ....   125
 SCF integral mode      SCFMode         .... Direct
   Integral package                     .... LIBINT
 Reset frequency        DirectResetFreq ....    20
 Integral Threshold     Thresh          ....  2.500e-11 Eh
 Primitive CutOff       TCut            ....  2.500e-12 Eh

Convergence Tolerance:
 Convergence Check Mode ConvCheckMode   .... Total+1el-Energy
 Convergence forced     ConvForced      .... 1
 Energy Change          TolE            ....  1.000e-08 Eh
 1-El. energy change                    ....  1.000e-05 Eh
 DIIS Error             TolErr          ....  5.000e-07


Diagonalization of the overlap matrix:
Smallest eigenvalue                        ... 2.644e-02
Time for diagonalization                   ...    0.002 sec
Threshold for overlap eigenvalues          ... 1.000e-08
Number of eigenvalues below threshold      ... 0
Time for construction of square roots      ...    0.004 sec
Total time needed                          ...    0.007 sec

-------------------
DFT GRID GENERATION
-------------------

General Integration Accuracy     IntAcc      ...  4.340
Radial Grid Type                 RadialGrid  ... Gauss-Chebyshev
Angular Grid (max. acc.)         AngularGrid ... Lebedev-110
Angular grid pruning method      GridPruning ... 3 (G Style)
Weight generation scheme         WeightScheme... Becke
Basis function cutoff            BFCut       ...    1.0000e-11
Integration weight cutoff        WCut        ...    1.0000e-14
Grids for H and He will be reduced by one unit

# of grid points (after initial pruning)     ...   2638 (   0.0 sec)
# of grid points (after weights+screening)   ...   2613 (   0.0 sec)
nearest neighbour list constructed           ...    0.0 sec
Grid point re-assignment to atoms done       ...    0.0 sec
Grid point division into batches done        ...    0.0 sec
Reduced shell lists constructed in    0.0 sec

Total number of grid points                  ...     2613
Total number of batches                      ...       42
Average number of points per batch           ...       62
Average number of grid points per atom       ...     1306
Average number of shells per batch           ...    10.25 (64.06%)
Average number of basis functions per batch  ...    22.58 (70.57%)
Average number of large shells per batch     ...     9.33 (91.06%)
Average number of large basis fcns per batch ...    20.83 (92.25%)
Maximum spatial batch extension              ...  16.81, 29.83, 17.35 au
Average spatial batch extension              ...   3.13,  3.85,  3.14 au

Time for grid setup =    0.049 sec

------------------------------
INITIAL GUESS: MODEL POTENTIAL
------------------------------
Loading Hartree-Fock densities                     ... done
Calculating cut-offs                               ... done
Setting up the integral package                    ... done
Initializing the effective Hamiltonian             ... done
Starting the Coulomb interaction                   ... done (   0.0 sec)
Reading the grid                                   ... done
Mapping shells                                     ... done
Starting the XC term evaluation                    ... done (   0.0 sec)
Transforming the Hamiltonian                       ... done (   0.0 sec)
Diagonalizing the Hamiltonian                      ... done (   0.0 sec)
Back transforming the eigenvectors                 ... done (   0.0 sec)
Now organizing SCF variables                       ... done
                      ------------------
                      INITIAL GUESS DONE (   0.4 sec)
                      ------------------
--------------
SCF ITERATIONS
--------------
ITER       Energy         Delta-E        Max-DP      RMS-DP      [F,P]     Damp
               ***  Starting incremental Fock matrix formation  ***
  0   -460.0666690731   0.000000000000 0.01500443  0.00104992  0.6475578 0.7000
  1   -460.0751898331  -0.008520760010 0.01139153  0.00080901  0.4558984 0.7000
  2   -460.0810521791  -0.005862345969 0.00732618  0.00054778  0.3208820 0.7000
  3   -460.0850854337  -0.004033254604 0.00456425  0.00036583  0.2257856 0.7000
                               ***Turning on DIIS***
  4   -460.0878963951  -0.002810961415 0.00283490  0.00024876  0.1588151 0.7000
  5   -460.1330056530  -0.045109257875 0.00180216  0.00017652  0.1116748 0.7000
  6   -460.1222895315   0.010716121473 0.00471300  0.00044628  0.0782639 0.0000
  7   -460.0947341944   0.027555337068 0.00049853  0.00004057  0.0016128 0.0000
  8   -460.0951992011  -0.000465006691 0.00037941  0.00003052  0.0006891 0.0000
  9   -460.0945253786   0.000673822548 0.00005966  0.00000506  0.0000868 0.0000
 10   -460.0945253082   0.000000070369 0.00001375  0.00000081  0.0000128 0.0000
 11   -460.0945821533  -0.000056845059 0.00000319  0.00000026  0.0000052 0.0000
                            ***DIIS convergence achieved***

               *****************************************************
               *                     SUCCESS                       *
               *           SCF CONVERGED AFTER  12 CYCLES          *
               *****************************************************


----------------
TOTAL SCF ENERGY
----------------

Total Energy       :         -460.09455842 Eh          -12519.80943 eV

Components:
Nuclear Repulsion  :            7.06376265 Eh             192.21475 eV
Electronic Energy  :         -467.15832107 Eh          -12712.02418 eV
One Electron Energy:         -649.78395031 Eh          -17681.52020 eV
Two Electron Energy:          182.62562924 Eh            4969.49602 eV

Virial components:
Potential Energy   :         -920.20648214 Eh          -25040.09139 eV
Kinetic Energy     :          460.11192373 Eh           12520.28196 eV
Virial Ratio       :            1.99996226


---------------
SCF CONVERGENCE
---------------

  Last Energy change         ...    2.3738e-05  Tolerance :   1.0000e-08
  Last MAX-Density change    ...    3.5207e-07  Tolerance :   1.0000e-07
  Last RMS-Density change    ...    3.0985e-08  Tolerance :   5.0000e-09
  Last DIIS Error            ...    6.0956e-07  Tolerance :   5.0000e-07

             **** THE GBW FILE WAS UPDATED (hcl.gbw) ****
             **** DENSITY FILE WAS UPDATED (hcl.scfp.tmp) ****
             **** ENERGY FILE WAS UPDATED (hcl.en.tmp) ****
----------------------
UHF SPIN CONTAMINATION
----------------------

Expectation value of <S**2>     :    -0.000000
Ideal value S*(S+1) for S=0.0   :     0.000000
Deviation                       :    -0.000000

----------------
ORBITAL ENERGIES
----------------
                 SPIN UP ORBITALS
  NO   OCC          E(Eh)            E(eV) 
   0   1.0000    -104.850629     -2853.1307 
   1   1.0000     -10.577338      -287.8240 
   2   1.0000      -8.045871      -218.9393 
   3   1.0000      -8.042613      -218.8506 
   4   1.0000      -8.042613      -218.8506 
   5   1.0000      -1.121363       -30.5138 
   6   1.0000      -0.629297       -17.1240 
   7   1.0000      -0.478312       -13.0155 
   8   1.0000      -0.478312       -13.0155 
   9   0.0000       0.123132         3.3506 
  10   0.0000       0.314858         8.5677 
  11   0.0000       0.417301        11.3553 
  12   0.0000       0.417301        11.3553 
  13   0.0000       0.458619        12.4797 
  14   0.0000       0.943687        25.6790 
  15   0.0000       0.992183        26.9987 
  16   0.0000       0.992183        26.9987 
  17   0.0000       1.136249        30.9189 
  18   0.0000       1.136249        30.9189 
  19   0.0000       1.275138        34.6983 
  20   0.0000       1.746149        47.5151 
  21   0.0000       1.746149        47.5151 
  22   0.0000       2.336179        63.5707 
  23   0.0000       2.464847        67.0719 
  24   0.0000       2.464847        67.0719 
  25   0.0000       2.587461        70.4084 
  26   0.0000       2.705381        73.6172 
  27   0.0000      10.249424       278.9010 
  28   0.0000      26.221007       713.5099 
  29   0.0000      26.221007       713.5099 
  30   0.0000      26.420006       718.9249 
  31   0.0000     219.071971      5961.2514 

                 SPIN DOWN ORBITALS
  NO   OCC          E(Eh)            E(eV) 
   0   1.0000    -104.850629     -2853.1307 
   1   1.0000     -10.577338      -287.8240 
   2   1.0000      -8.045871      -218.9393 
   3   1.0000      -8.042613      -218.8506 
   4   1.0000      -8.042613      -218.8506 
   5   1.0000      -1.121363       -30.5138 
   6   1.0000      -0.629297       -17.1240 
   7   1.0000      -0.478312       -13.0155 
   8   1.0000      -0.478312       -13.0155 
   9   0.0000       0.123132         3.3506 
  10   0.0000       0.314858         8.5677 
  11   0.0000       0.417301        11.3553 
  12   0.0000       0.417301        11.3553 
  13   0.0000       0.458619        12.4797 
  14   0.0000       0.943687        25.6790 
  15   0.0000       0.992183        26.9987 
  16   0.0000       0.992183        26.9987 
  17   0.0000       1.136249        30.9189 
  18   0.0000       1.136249        30.9189 
  19   0.0000       1.275138        34.6983 
  20   0.0000       1.746149        47.5151 
  21   0.0000       1.746149        47.5151 
  22   0.0000       2.336179        63.5707 
  23   0.0000       2.464847        67.0719 
  24   0.0000       2.464847        67.0719 
  25   0.0000       2.587461        70.4084 
  26   0.0000       2.705381        73.6172 
  27   0.0000      10.249424       278.9010 
  28   0.0000      26.221007       713.5099 
  29   0.0000      26.221007       713.5099 
  30   0.0000      26.420006       718.9249 
  31   0.0000     219.071971      5961.2514 

                    ********************************
                    * MULLIKEN POPULATION ANALYSIS *
                    ********************************

--------------------------------------------
MULLIKEN ATOMIC CHARGES AND SPIN POPULATIONS
--------------------------------------------
   0 Cl:   -0.167719    0.000000
   1 H :    0.167719    0.000000
Sum of atomic charges         :   -0.0000000
Sum of atomic spin populations:    0.0000000

-----------------------------------------------------
MULLIKEN REDUCED ORBITAL CHARGES AND SPIN POPULATIONS
-----------------------------------------------------
CHARGE
  0 Cls       :     5.930336  s :     5.930336
      pz      :     3.238658  p :    11.214577
      px      :     3.987959
      py      :     3.987959
      dz2     :     0.021784  d :     0.022806
      dxz     :     0.000511
      dyz     :     0.000511
      dx2y2   :     0.000000
      dxy     :     0.000000
  1 H s       :     0.779208  s :     0.779208
      pz      :     0.030013  p :     0.053073
      px      :     0.011530
      py      :     0.011530

SPIN
  0 Cls       :     0.000000  s :     0.000000
      pz      :     0.000000  p :     0.000000
      px      :     0.000000
      py      :     0.000000
      dz2     :     0.000000  d :     0.000000
      dxz     :     0.000000
      dyz     :     0.000000
      dx2y2   :     0.000000
      dxy     :     0.000000
  1 H s       :     0.000000  s :     0.000000
      pz      :     0.000000  p :     0.000000
      px      :     0.000000
      py      :     0.000000


                     *******************************
                     * LOEWDIN POPULATION ANALYSIS *
                     *******************************

-------------------------------------------
LOEWDIN ATOMIC CHARGES AND SPIN POPULATIONS
-------------------------------------------
   0 Cl:    0.033098    0.000000
   1 H :   -0.033098    0.000000

----------------------------------------------------
LOEWDIN REDUCED ORBITAL CHARGES AND SPIN POPULATIONS
----------------------------------------------------
CHARGE
  0 Cls       :     5.722189  s :     5.722189
      pz      :     3.274705  p :    11.221234
      px      :     3.973265
      py      :     3.973265
      dz2     :     0.022948  d :     0.023479
      dxz     :     0.000265
      dyz     :     0.000265
      dx2y2   :     0.000000
      dxy     :     0.000000
  1 H s       :     0.904442  s :     0.904442
      pz      :     0.075716  p :     0.128656
      px      :     0.026470
      py      :     0.026470

SPIN
  0 Cls       :     0.000000  s :     0.000000
      pz      :     0.000000  p :     0.000000
      px      :     0.000000
      py      :     0.000000
      dz2     :     0.000000  d :     0.000000
      dxz     :     0.000000
      dyz     :     0.000000
      dx2y2   :     0.000000
      dxy     :     0.000000
  1 H s       :     0.000000  s :     0.000000
      pz      :     0.000000  p :     0.000000
      px      :     0.000000
      py      :     0.000000


                      *****************************
                      * MAYER POPULATION ANALYSIS *
                      *****************************

  NA   - Mulliken gross atomic population
  ZA   - Total nuclear charge
  QA   - Mulliken gross atomic charge
  VA   - Mayer's total valence
  BVA  - Mayer's bonded valence
  FA   - Mayer's free valence

  ATOM       NA         ZA         QA         VA         BVA        FA
  0 Cl    17.1677    17.0000    -0.1677     0.9883     0.9883    -0.0000
  1 H      0.8323     1.0000     0.1677     0.9883     0.9883     0.0000

  Mayer bond orders larger than 0.1
B(  0-Cl,  1-H ) :   0.9883 

-------
TIMINGS
-------

Total SCF time: 0 days 0 hours 0 min 6 sec 

Total time                  ....       6.999 sec
Sum of individual times     ....       6.180 sec  ( 88.3%)

Fock matrix formation       ....       5.670 sec  ( 81.0%)
Diagonalization             ....       0.049 sec  (  0.7%)
Density matrix formation    ....       0.014 sec  (  0.2%)
Population analysis         ....       0.006 sec  (  0.1%)
Initial guess               ....       0.345 sec  (  4.9%)
Orbital Transformation      ....       0.000 sec  (  0.0%)
Orbital Orthonormalization  ....       0.000 sec  (  0.0%)
DIIS solution               ....       0.046 sec  (  0.7%)


           ************************************************************
           *        Program running with 4 parallel MPI-processes     *
           *              working on a common directory               *
           ************************************************************

------------------------------------------------------------------------------
                                ORCA  MP2 
------------------------------------------------------------------------------

MP2 will be done in the AO integral direct mode
The Q1-step will be done using symmetric double matrices
Dimension of the basis                    ...   32
Memory devoted for MP2                    ...  256 MB   
Memory needed for all in one shot         ...    1 MB
Number of MOs that can be treated together... 1984      
MP2 density construction                  ... relaxed
The MP2 gradient is requested => amplitudes will be stored on disk
Total number of MOs              ...    9
Number of MOs treated per batch  ...    3 
Number of batches necessary      ...    1 
OPERATORS   0/  0 PASS   0
OPERATORS   0/  1 PASS   0
Total number of MOs              ...    9
Number of MOs treated per batch  ...    3 
Number of batches necessary      ...    1 
OPERATORS   1/  0 PASS   0
OPERATORS   1/  1 PASS   0

Correlation energy components
 E2 and T2 for alpha/alpha pairs :     -0.023520345 Eh
 E2 and T2 for beta/beta   pairs :     -0.023520345 Eh
 E2 and T2 for alpha/beta  pairs :     -0.151372131 Eh

-----------------------------------------------
 MP2 CORRELATION ENERGY   :     -0.198412822 Eh
-----------------------------------------------


---------------------
MP2 DENSITY FORMATION
---------------------

Completing the external part of the density      ... done
Storing the unrelaxed density                    ... done

Calculating G(D)                                 ... done
Completing the Lagrangian                        ... done
Solving the Z-vector equations                   ... 

------------------------------------------------------------------------------
                           ORCA CP-SCF CALCULATION
------------------------------------------------------------------------------

Input orbitals are from        ... hcl.gbw
Input Perturbation             ... hcl.pin.tmp
Wavefunction output            ... hcl.pout.tmp
Perturbation mode              ... Real perturbation (singlet)
Solver                         ... POPLE
Max. number of iterations      ... 128
Convergence tolerance          ... 1.000e-08
Integral handling              ... Direct
Number of perturbations        ... 1
Number of operators            ... 2
Orbital ranges used for CP-SCF:
 Operator 0:  Orbitals   0...  8  to   9... 31
 Operator 1:  Orbitals   0...  8  to   9... 31
Variables per vector in CP-SCF ... 414
Number of vectors sought       ... 1
     CP-SCF ITERATION   0: 
     CP-SCF ITERATION   1:      0.000002866534
     CP-SCF ITERATION   2:      0.000000053903
     CP-SCF ITERATION   3:      0.000000003232
                                                 ... done
Finalizing the relaxed density                   ... done
Transforming P to the AO basis                   ... done
Storing the relaxed density                      ... done

------------------------------------
ENERGY WEIGHTED DENSITY FINALIZATION
------------------------------------

Gathering the parts of the W-matrix              ...                                                                                                           done
Forming the Z-density                            ... done
Transforming Z to the AO basis                   ... done
Calculating G(Z)                                 ... done
Finalizing the W-matrix                          ...                                                                                                           done
Transforming W to the AO basis and storing       ... done

                *********************************************
                * UNRELAXED MP2 DENSITY POPULATION ANALYSIS *
                *********************************************

------------------------------------------------------------------------------
                           ORCA POPULATION ANALYSIS
------------------------------------------------------------------------------
Input electron density              ... hcl.pmp2ur
Input spin density                  ... hcl.rmp2ur
BaseName (.gbw .S,...)              ... hcl

                    ********************************
                    * MULLIKEN POPULATION ANALYSIS *
                    ********************************

------------------------------------------
MULLIKEN ATOMIC CHARGES AND SPIN DENSITIES
------------------------------------------
   0 Cl:   -0.164177    0.000000
   1 H :    0.164177    0.000000
Sum of atomic charges       :   -0.0000000
Sum of atomic spin densities:    0.0000000

---------------------------------------------------
MULLIKEN REDUCED ORBITAL CHARGES AND SPIN DENSITIES
---------------------------------------------------
CHARGE
  0 Cls       :     5.922748  s :     5.922748
      pz      :     3.231454  p :    11.171866
      px      :     3.970206
      py      :     3.970206
      dz2     :     0.029614  d :     0.069563
      dxz     :     0.009959
      dyz     :     0.009959
      dx2y2   :     0.010016
      dxy     :     0.010016
  1 H s       :     0.778731  s :     0.778731
      pz      :     0.030348  p :     0.057093
      px      :     0.013372
      py      :     0.013372

SPIN
  0 Cls       :     0.000000  s :     0.000000
      pz      :    -0.000000  p :    -0.000000
      px      :    -0.000000
      py      :    -0.000000
      dz2     :    -0.000000  d :     0.000000
      dxz     :     0.000000
      dyz     :     0.000000
      dx2y2   :     0.000000
      dxy     :    -0.000000
  1 H s       :     0.000000  s :     0.000000
      pz      :    -0.000000  p :    -0.000000
      px      :    -0.000000
      py      :     0.000000


                     *******************************
                     * LOEWDIN POPULATION ANALYSIS *
                     *******************************

-----------------------------------------
LOEWDIN ATOMIC CHARGES AND SPIN DENSITIES
-----------------------------------------
   0 Cl:    0.036319    0.000000
   1 H :   -0.036319    0.000000

--------------------------------------------------
LOEWDIN REDUCED ORBITAL CHARGES AND SPIN DENSITIES
--------------------------------------------------
CHARGE
  0 Cls       :     5.715243  s :     5.715243
      pz      :     3.265906  p :    11.177294
      px      :     3.955694
      py      :     3.955694
      dz2     :     0.031883  d :     0.071144
      dxz     :     0.009615
      dyz     :     0.009615
      dx2y2   :     0.010016
      dxy     :     0.010016
  1 H s       :     0.902789  s :     0.902789
      pz      :     0.077073  p :     0.133530
      px      :     0.028229
      py      :     0.028229

SPIN
  0 Cls       :     0.000000  s :     0.000000
      pz      :    -0.000000  p :    -0.000000
      px      :    -0.000000
      py      :    -0.000000
      dz2     :    -0.000000  d :     0.000000
      dxz     :     0.000000
      dyz     :     0.000000
      dx2y2   :     0.000000
      dxy     :    -0.000000
  1 H s       :     0.000000  s :     0.000000
      pz      :     0.000000  p :     0.000000
      px      :    -0.000000
      py      :     0.000000


                      *****************************
                      * MAYER POPULATION ANALYSIS *
                      *****************************

  NA   - Mulliken gross atomic population
  ZA   - Total nuclear charge
  QA   - Mulliken gross atomic charge
  VA   - Mayer's total valence
  BVA  - Mayer's bonded valence
  FA   - Mayer's free valence

  ATOM       NA         ZA         QA         VA         BVA        FA
  0 Cl    17.1642    17.0000    -0.1642     1.2984     0.9440     0.3544
  1 H      0.8358     1.0000     0.1642     0.9989     0.9440     0.0549

  Mayer bond orders larger than 0.1
B(  0-Cl,  1-H ) :   0.9440 


                *******************************************
                * RELAXED MP2 DENSITY POPULATION ANALYSIS *
                *******************************************

------------------------------------------------------------------------------
                           ORCA POPULATION ANALYSIS
------------------------------------------------------------------------------
Input electron density              ... hcl.pmp2re
Input spin density                  ... hcl.rmp2re
BaseName (.gbw .S,...)              ... hcl

                    ********************************
                    * MULLIKEN POPULATION ANALYSIS *
                    ********************************

------------------------------------------
MULLIKEN ATOMIC CHARGES AND SPIN DENSITIES
------------------------------------------
   0 Cl:   -0.159555   -0.000000
   1 H :    0.159555   -0.000000
Sum of atomic charges       :   -0.0000000
Sum of atomic spin densities:   -0.0000000

---------------------------------------------------
MULLIKEN REDUCED ORBITAL CHARGES AND SPIN DENSITIES
---------------------------------------------------
CHARGE
  0 Cls       :     5.923692  s :     5.923692
      pz      :     3.231661  p :    11.169133
      px      :     3.968736
      py      :     3.968736
      dz2     :     0.026416  d :     0.066730
      dxz     :     0.010142
      dyz     :     0.010142
      dx2y2   :     0.010016
      dxy     :     0.010016
  1 H s       :     0.783203  s :     0.783203
      pz      :     0.027922  p :     0.057242
      px      :     0.014660
      py      :     0.014660

SPIN
  0 Cls       :     0.000000  s :     0.000000
      pz      :     0.000000  p :    -0.000000
      px      :    -0.000000
      py      :    -0.000000
      dz2     :    -0.000000  d :    -0.000000
      dxz     :     0.000000
      dyz     :     0.000000
      dx2y2   :     0.000000
      dxy     :    -0.000000
  1 H s       :    -0.000000  s :    -0.000000
      pz      :     0.000000  p :     0.000000
      px      :    -0.000000
      py      :     0.000000


                     *******************************
                     * LOEWDIN POPULATION ANALYSIS *
                     *******************************

-----------------------------------------
LOEWDIN ATOMIC CHARGES AND SPIN DENSITIES
-----------------------------------------
   0 Cl:    0.037618    0.000000
   1 H :   -0.037618   -0.000000

--------------------------------------------------
LOEWDIN REDUCED ORBITAL CHARGES AND SPIN DENSITIES
--------------------------------------------------
CHARGE
  0 Cls       :     5.717848  s :     5.717848
      pz      :     3.267280  p :    11.176167
      px      :     3.954444
      py      :     3.954444
      dz2     :     0.028840  d :     0.068366
      dxz     :     0.009747
      dyz     :     0.009747
      dx2y2   :     0.010016
      dxy     :     0.010016
  1 H s       :     0.903381  s :     0.903381
      pz      :     0.075545  p :     0.134238
      px      :     0.029346
      py      :     0.029346

SPIN
  0 Cls       :     0.000000  s :     0.000000
      pz      :     0.000000  p :    -0.000000
      px      :    -0.000000
      py      :    -0.000000
      dz2     :    -0.000000  d :    -0.000000
      dxz     :     0.000000
      dyz     :     0.000000
      dx2y2   :     0.000000
      dxy     :    -0.000000
  1 H s       :    -0.000000  s :    -0.000000
      pz      :    -0.000000  p :    -0.000000
      px      :    -0.000000
      py      :     0.000000


                      *****************************
                      * MAYER POPULATION ANALYSIS *
                      *****************************

  NA   - Mulliken gross atomic population
  ZA   - Total nuclear charge
  QA   - Mulliken gross atomic charge
  VA   - Mayer's total valence
  BVA  - Mayer's bonded valence
  FA   - Mayer's free valence

  ATOM       NA         ZA         QA         VA         BVA        FA
  0 Cl    17.1596    17.0000    -0.1596     1.3041     0.9511     0.3529
  1 H      0.8404     1.0000     0.1596     1.0060     0.9511     0.0549

  Mayer bond orders larger than 0.1
B(  0-Cl,  1-H ) :   0.9511 


----------------------------------
MP2 DERIVATIVE INTEGRAL GENERATION
----------------------------------


Input Wavefunction Amplitudes       ... hcl.mp2tbb.tmp
Input Correlated Electron Density   ... hcl.pmp2re
Input Energy Weighted Density       ... hcl.wmp2.tmp
Input SCF Electron Density          ... hcl.scfp.tmp

One-Electron Terms    ...
                        ... One-Electron Terms done
Prescreening matrices              ... done

Batch handling in the gradient evaluation:
Memory available                      ...  256.0 MB
Memory per occupied orbital in Q2     ...    0.1 MB
Memory per occupied orbital in Q3     ...    0.0 MB
Total memory requirement per |i>      ...    0.1 MB
Max. Number of orbitals possible      ...   1744
Number of orbitals treated per batch  ...     18
Number of batches to be done          ...      1
Batch   0: i=    0 ...    17

---------------------------------------
MP2 TOTAL ENERGY:     -460.292971237 Eh
---------------------------------------

-----------------------------------
NORM OF THE MP2 GRADIENT:  0.000003
-----------------------------------

-------------------------   --------------------
FINAL SINGLE POINT ENERGY      -460.292971237475
-------------------------   --------------------

------------------------------------------------------------------------------
                         ORCA GEOMETRY RELAXATION STEP
------------------------------------------------------------------------------

Reading the OPT-File                    .... done
Getting information on internals        .... done
Copying old internal coords+grads       .... done
Making the new internal coordinates     .... (new redundants).... done
Validating the new internal coordinates .... (new redundants).... done
Calculating the B-matrix                .... done
Calculating the G,G- and P matrices     .... done
Transforming gradient to internals      .... done
Projecting the internal gradient        .... done
Number of atoms                         ....   2
Number of internal coordinates          ....   1
Current Energy                          ....  -460.292971237 Eh
Current gradient norm                   ....     0.000002841 Eh/bohr
Maximum allowed component of the step   ....  0.300
Current trust radius                    ....  0.300
Evaluating the initial hessian          ....  (Almloef) done
Projecting the Hessian                  .... done
Forming the augmented Hessian           .... done
Diagonalizing the augmented Hessian     .... done
Last element of RFO vector              ....  1.000000000
Lowest eigenvalues of augmented Hessian:
 -0.000000000
Length of the computed step             ....  0.000004880
The final length of the internal step   ....  0.000004880
Converting the step to cartesian space:
 Initial RMS(Int)=    0.0000048803
Transforming coordinates:
 Iter   0:  RMS(Cart)=    0.0000014088 RMS(Int)=    0.0000048803
 Iter   1:  RMS(Cart)=    0.0000000000 RMS(Int)=    0.0000000000
done
Storing new coordinates                 .... done

                                .--------------------.
          ----------------------|Geometry convergence|-------------------------
          Item                value                   Tolerance       Converged
          ---------------------------------------------------------------------
          RMS gradient        0.0000020092            0.0000300000      YES
          MAX gradient        0.0000020092            0.0001000000      YES
          RMS step            0.0000048803            0.0006000000      YES
          MAX step            0.0000048803            0.0010000000      YES
          ........................................................
          Max(Bonds)      0.0000      Max(Angles)    0.00
          Max(Dihed)        0.00      Max(Improp)    0.00
          ---------------------------------------------------------------------

                    ***********************HURRAY********************
                    ***        THE OPTIMIZATION HAS CONVERGED     ***
                    *************************************************


    ---------------------------------------------------------------------------
                         Redundant Internal Coordinates

                          --- Optimized Parameters ---  
                            (Angstroem and degrees)

        Definition                    OldVal   dE/dq     Step     FinalVal
    ----------------------------------------------------------------------------
     1. B(H   1,Cl  0)                1.2735 -0.000002  0.0000    1.2735   
    ----------------------------------------------------------------------------
                 *******************************************************
                 *** FINAL ENERGY EVALUATION AT THE STATIONARY POINT ***
                 ***               (AFTER    1 CYCLES)               ***
                 *******************************************************
---------------------------------
CARTESIAN COORDINATES (ANGSTROEM)
---------------------------------
  Cl     0.000000    0.000000    0.035677
  H      0.000000    0.000000   -1.237869

----------------------------
CARTESIAN COORDINATES (A.U.)
----------------------------
  NO LB      ZA    FRAG     MASS         X           Y           Z
   0 Cl   17.0000    0    35.453    0.000000    0.000000    0.067421
   1 H     1.0000    0     1.008    0.000000    0.000000   -2.339234

--------------------------------
INTERNAL COORDINATES (ANGSTROEM)
--------------------------------
 Cl     0   0   0     0.000000000000     0.00000000     0.00000000
 H      1   0   0     1.273546582535     0.00000000     0.00000000

---------------------------
INTERNAL COORDINATES (A.U.)
---------------------------
 Cl     0   0   0     0.000000000000     0.00000000     0.00000000
 H      1   0   0     2.406654259782     0.00000000     0.00000000

---------------------
BASIS SET INFORMATION
---------------------
There are 2 groups of distinct atoms

 Group   1 Type Cl  : 13s10p1d contracted to 6s5p1d pattern {631111/52111/1}
 Group   2 Type H   : 5s1p contracted to 3s1p pattern {311/1}

Atom   0Cl   basis set group =>   1
Atom   1H    basis set group =>   2


           ************************************************************
           *        Program running with 4 parallel MPI-processes     *
           *              working on a common directory               *
           ************************************************************
------------------------------------------------------------------------------
                           ORCA GTO INTEGRAL CALCULATION
------------------------------------------------------------------------------

                         BASIS SET STATISTICS AND STARTUP INFO

 # of primitive gaussian shells          ...   30
 # of primitive gaussian functions       ...   56
 # of contracted shells                  ...   16
 # of contracted basis functions         ...   32
 Highest angular momentum                ...    2
 Maximum contraction depth               ...    6
 Integral package used                   ... LIBINT
 Integral threshhold            Thresh   ...  2.500e-11
 Primitive cut-off              TCut     ...  2.500e-12


------------------------------ INTEGRAL EVALUATION ----------------------------


 * One electron integrals 
 Pre-screening matrix                    ... done
 Shell pair data                         ... done (   0.000 sec)



           ************************************************************
           *        Program running with 4 parallel MPI-processes     *
           *              working on a common directory               *
           ************************************************************
-------------------------------------------------------------------------------
                                 ORCA SCF
-------------------------------------------------------------------------------

------------
SCF SETTINGS
------------
Hamiltonian:
 Ab initio Hamiltonian  Method          .... Hartree-Fock(GTOs)


General Settings:
 Integral files         IntName         .... hcl
 Hartree-Fock type      HFTyp           .... UHF
 Total Charge           Charge          ....    0
 Multiplicity           Mult            ....    1
 Number of Electrons    NEL             ....   18
 Basis Dimension        Dim             ....   32
 Nuclear Repulsion      ENuc            ....      7.0637483265 Eh

Convergence Acceleration:
 DIIS                   CNVDIIS         .... on
   Start iteration      DIISMaxIt       ....    12
   Startup error        DIISStart       ....  0.200000
   # of expansion vecs  DIISMaxEq       ....     5
   Bias factor          DIISBfac        ....   1.050
   Max. coefficient     DIISMaxC        ....  10.000
 Newton-Raphson         CNVNR           .... off
 SOSCF                  CNVSOSCF        .... off
 Level Shifting         CNVShift        .... on
   Level shift para.    LevelShift      ....    0.2500
   Turn off err/grad.   ShiftErr        ....    0.0010
 Zerner damping         CNVZerner       .... off
 Static damping         CNVDamp         .... on
   Fraction old density DampFac         ....    0.7000
   Max. Damping (<1)    DampMax         ....    0.9800
   Min. Damping (>=0)   DampMin         ....    0.0000
   Turn off err/grad.   DampErr         ....    0.1000
 Fernandez-Rico         CNVRico         .... off

SCF Procedure:
 Maximum # iterations   MaxIter         ....   125
 SCF integral mode      SCFMode         .... Direct
   Integral package                     .... LIBINT
 Reset frequency        DirectResetFreq ....    20
 Integral Threshold     Thresh          ....  2.500e-11 Eh
 Primitive CutOff       TCut            ....  2.500e-12 Eh

Convergence Tolerance:
 Convergence Check Mode ConvCheckMode   .... Total+1el-Energy
 Convergence forced     ConvForced      .... 1
 Energy Change          TolE            ....  1.000e-08 Eh
 1-El. energy change                    ....  1.000e-05 Eh
 DIIS Error             TolErr          ....  5.000e-07


Diagonalization of the overlap matrix:
Smallest eigenvalue                        ... 2.644e-02
Time for diagonalization                   ...    0.003 sec
Threshold for overlap eigenvalues          ... 1.000e-08
Number of eigenvalues below threshold      ... 0
Time for construction of square roots      ...    0.027 sec
Total time needed                          ...    0.030 sec

---------------------
INITIAL GUESS: MOREAD
---------------------
Guess MOs are being read from file: hcl.gbw
Input Geometry matches current geometry (good)
Input basis set matches current basis set (good)
MOs were renormalized
MOs were reorthogonalized (Cholesky)
                      ------------------
                      INITIAL GUESS DONE (   0.0 sec)
                      ------------------
--------------
SCF ITERATIONS
--------------
ITER       Energy         Delta-E        Max-DP      RMS-DP      [F,P]     Damp
               ***  Starting incremental Fock matrix formation  ***
  0   -460.0945581139   0.000000000000 0.00000005  0.00000001  0.0000012 0.7000
                 **** Energy Check signals convergence ****

               *****************************************************
               *                     SUCCESS                       *
               *           SCF CONVERGED AFTER   1 CYCLES          *
               *****************************************************


----------------
TOTAL SCF ENERGY
----------------

Total Energy       :         -460.09455811 Eh          -12519.80942 eV

Components:
Nuclear Repulsion  :            7.06374833 Eh             192.21436 eV
Electronic Energy  :         -467.15830644 Eh          -12712.02379 eV
One Electron Energy:         -649.78392379 Eh          -17681.51948 eV
Two Electron Energy:          182.62561735 Eh            4969.49569 eV

Virial components:
Potential Energy   :         -920.20647769 Eh          -25040.09127 eV
Kinetic Energy     :          460.11191957 Eh           12520.28185 eV
Virial Ratio       :            1.99996227


---------------
SCF CONVERGENCE
---------------

  Last Energy change         ...   -5.9913e-11  Tolerance :   1.0000e-08
  Last MAX-Density change    ...    4.5317e-08  Tolerance :   1.0000e-07
  Last RMS-Density change    ...    4.6630e-09  Tolerance :   5.0000e-09
  Last DIIS Error            ...    9.6482e-07  Tolerance :   5.0000e-07

             **** THE GBW FILE WAS UPDATED (hcl.gbw) ****
             **** DENSITY FILE WAS UPDATED (hcl.scfp.tmp) ****
             **** ENERGY FILE WAS UPDATED (hcl.en.tmp) ****
----------------------
UHF SPIN CONTAMINATION
----------------------

Expectation value of <S**2>     :     0.000000
Ideal value S*(S+1) for S=0.0   :     0.000000
Deviation                       :     0.000000

----------------
ORBITAL ENERGIES
----------------
                 SPIN UP ORBITALS
  NO   OCC          E(Eh)            E(eV) 
   0   1.0000    -104.850629     -2853.1307 
   1   1.0000     -10.577338      -287.8240 
   2   1.0000      -8.045870      -218.9393 
   3   1.0000      -8.042613      -218.8506 
   4   1.0000      -8.042613      -218.8506 
   5   1.0000      -1.121362       -30.5138 
   6   1.0000      -0.629296       -17.1240 
   7   1.0000      -0.478311       -13.0155 
   8   1.0000      -0.478311       -13.0155 
   9   0.0000       0.123132         3.3506 
  10   0.0000       0.314858         8.5677 
  11   0.0000       0.417301        11.3553 
  12   0.0000       0.417301        11.3553 
  13   0.0000       0.458619        12.4797 
  14   0.0000       0.943687        25.6790 
  15   0.0000       0.992183        26.9987 
  16   0.0000       0.992183        26.9987 
  17   0.0000       1.136250        30.9189 
  18   0.0000       1.136250        30.9189 
  19   0.0000       1.275137        34.6982 
  20   0.0000       1.746148        47.5151 
  21   0.0000       1.746148        47.5151 
  22   0.0000       2.336177        63.5706 
  23   0.0000       2.464847        67.0719 
  24   0.0000       2.464847        67.0719 
  25   0.0000       2.587461        70.4084 
  26   0.0000       2.705381        73.6171 
  27   0.0000      10.249422       278.9010 
  28   0.0000      26.221007       713.5099 
  29   0.0000      26.221007       713.5099 
  30   0.0000      26.420006       718.9249 
  31   0.0000     219.071968      5961.2513 

                 SPIN DOWN ORBITALS
  NO   OCC          E(Eh)            E(eV) 
   0   1.0000    -104.850629     -2853.1307 
   1   1.0000     -10.577338      -287.8240 
   2   1.0000      -8.045870      -218.9393 
   3   1.0000      -8.042613      -218.8506 
   4   1.0000      -8.042613      -218.8506 
   5   1.0000      -1.121362       -30.5138 
   6   1.0000      -0.629296       -17.1240 
   7   1.0000      -0.478311       -13.0155 
   8   1.0000      -0.478311       -13.0155 
   9   0.0000       0.123132         3.3506 
  10   0.0000       0.314858         8.5677 
  11   0.0000       0.417301        11.3553 
  12   0.0000       0.417301        11.3553 
  13   0.0000       0.458619        12.4797 
  14   0.0000       0.943687        25.6790 
  15   0.0000       0.992183        26.9987 
  16   0.0000       0.992183        26.9987 
  17   0.0000       1.136250        30.9189 
  18   0.0000       1.136250        30.9189 
  19   0.0000       1.275137        34.6982 
  20   0.0000       1.746148        47.5151 
  21   0.0000       1.746148        47.5151 
  22   0.0000       2.336177        63.5706 
  23   0.0000       2.464847        67.0719 
  24   0.0000       2.464847        67.0719 
  25   0.0000       2.587461        70.4084 
  26   0.0000       2.705381        73.6171 
  27   0.0000      10.249422       278.9010 
  28   0.0000      26.221007       713.5099 
  29   0.0000      26.221007       713.5099 
  30   0.0000      26.420006       718.9249 
  31   0.0000     219.071968      5961.2513 

                    ********************************
                    * MULLIKEN POPULATION ANALYSIS *
                    ********************************

--------------------------------------------
MULLIKEN ATOMIC CHARGES AND SPIN POPULATIONS
--------------------------------------------
   0 Cl:   -0.167719    0.000000
   1 H :    0.167719    0.000000
Sum of atomic charges         :   -0.0000000
Sum of atomic spin populations:    0.0000000

-----------------------------------------------------
MULLIKEN REDUCED ORBITAL CHARGES AND SPIN POPULATIONS
-----------------------------------------------------
CHARGE
  0 Cls       :     5.930337  s :     5.930337
      pz      :     3.238658  p :    11.214577
      px      :     3.987959
      py      :     3.987959
      dz2     :     0.021784  d :     0.022806
      dxz     :     0.000511
      dyz     :     0.000511
      dx2y2   :     0.000000
      dxy     :     0.000000
  1 H s       :     0.779208  s :     0.779208
      pz      :     0.030013  p :     0.053073
      px      :     0.011530
      py      :     0.011530

SPIN
  0 Cls       :     0.000000  s :     0.000000
      pz      :     0.000000  p :     0.000000
      px      :     0.000000
      py      :     0.000000
      dz2     :     0.000000  d :     0.000000
      dxz     :     0.000000
      dyz     :     0.000000
      dx2y2   :     0.000000
      dxy     :     0.000000
  1 H s       :     0.000000  s :     0.000000
      pz      :     0.000000  p :     0.000000
      px      :     0.000000
      py      :     0.000000


                     *******************************
                     * LOEWDIN POPULATION ANALYSIS *
                     *******************************

-------------------------------------------
LOEWDIN ATOMIC CHARGES AND SPIN POPULATIONS
-------------------------------------------
   0 Cl:    0.033096    0.000000
   1 H :   -0.033096    0.000000

----------------------------------------------------
LOEWDIN REDUCED ORBITAL CHARGES AND SPIN POPULATIONS
----------------------------------------------------
CHARGE
  0 Cls       :     5.722191  s :     5.722191
      pz      :     3.274704  p :    11.221234
      px      :     3.973265
      py      :     3.973265
      dz2     :     0.022948  d :     0.023479
      dxz     :     0.000265
      dyz     :     0.000265
      dx2y2   :     0.000000
      dxy     :     0.000000
  1 H s       :     0.904441  s :     0.904441
      pz      :     0.075716  p :     0.128655
      px      :     0.026470
      py      :     0.026470

SPIN
  0 Cls       :     0.000000  s :     0.000000
      pz      :     0.000000  p :     0.000000
      px      :     0.000000
      py      :     0.000000
      dz2     :     0.000000  d :     0.000000
      dxz     :     0.000000
      dyz     :     0.000000
      dx2y2   :     0.000000
      dxy     :     0.000000
  1 H s       :     0.000000  s :     0.000000
      pz      :     0.000000  p :     0.000000
      px      :     0.000000
      py      :     0.000000


                      *****************************
                      * MAYER POPULATION ANALYSIS *
                      *****************************

  NA   - Mulliken gross atomic population
  ZA   - Total nuclear charge
  QA   - Mulliken gross atomic charge
  VA   - Mayer's total valence
  BVA  - Mayer's bonded valence
  FA   - Mayer's free valence

  ATOM       NA         ZA         QA         VA         BVA        FA
  0 Cl    17.1677    17.0000    -0.1677     0.9883     0.9883     0.0000
  1 H      0.8323     1.0000     0.1677     0.9883     0.9883     0.0000

  Mayer bond orders larger than 0.1
B(  0-Cl,  1-H ) :   0.9883 

-------
TIMINGS
-------

Total SCF time: 0 days 0 hours 0 min 1 sec 

Total time                  ....       1.774 sec
Sum of individual times     ....       0.970 sec  ( 54.7%)

Fock matrix formation       ....       0.934 sec  ( 52.7%)
Diagonalization             ....       0.007 sec  (  0.4%)
Density matrix formation    ....       0.001 sec  (  0.0%)
Population analysis         ....       0.018 sec  (  1.0%)
Initial guess               ....       0.010 sec  (  0.6%)
Orbital Transformation      ....       0.000 sec  (  0.0%)
Orbital Orthonormalization  ....       0.004 sec  (  0.2%)
DIIS solution               ....       0.000 sec  (  0.0%)


           ************************************************************
           *        Program running with 4 parallel MPI-processes     *
           *              working on a common directory               *
           ************************************************************

------------------------------------------------------------------------------
                                ORCA  MP2 
------------------------------------------------------------------------------

MP2 will be done in the AO integral direct mode
The Q1-step will be done using symmetric double matrices
Dimension of the basis                    ...   32
Memory devoted for MP2                    ...  256 MB   
Memory needed for all in one shot         ...    1 MB
Number of MOs that can be treated together... 1984      
MP2 density construction                  ... relaxed
The MP2 gradient is requested => amplitudes will be stored on disk
Total number of MOs              ...    9
Number of MOs treated per batch  ...    3 
Number of batches necessary      ...    1 
OPERATORS   0/  0 PASS   0
OPERATORS   0/  1 PASS   0
Total number of MOs              ...    9
Number of MOs treated per batch  ...    3 
Number of batches necessary      ...    1 
OPERATORS   1/  0 PASS   0
OPERATORS   1/  1 PASS   0

Correlation energy components
 E2 and T2 for alpha/alpha pairs :     -0.023520342 Eh
 E2 and T2 for beta/beta   pairs :     -0.023520342 Eh
 E2 and T2 for alpha/beta  pairs :     -0.151372146 Eh

-----------------------------------------------
 MP2 CORRELATION ENERGY   :     -0.198412830 Eh
-----------------------------------------------


---------------------
MP2 DENSITY FORMATION
---------------------

Completing the external part of the density      ... done
Storing the unrelaxed density                    ... done

Calculating G(D)                                 ... done
Completing the Lagrangian                        ... done
Solving the Z-vector equations                   ... 

------------------------------------------------------------------------------
                           ORCA CP-SCF CALCULATION
------------------------------------------------------------------------------

Input orbitals are from        ... hcl.gbw
Input Perturbation             ... hcl.pin.tmp
Wavefunction output            ... hcl.pout.tmp
Perturbation mode              ... Real perturbation (singlet)
Solver                         ... POPLE
Max. number of iterations      ... 128
Convergence tolerance          ... 1.000e-08
Integral handling              ... Direct
Number of perturbations        ... 1
Number of operators            ... 2
Orbital ranges used for CP-SCF:
 Operator 0:  Orbitals   0...  8  to   9... 31
 Operator 1:  Orbitals   0...  8  to   9... 31
Variables per vector in CP-SCF ... 414
Number of vectors sought       ... 1
     CP-SCF ITERATION   0: 
     CP-SCF ITERATION   1:      0.000002866532
     CP-SCF ITERATION   2:      0.000000053903
     CP-SCF ITERATION   3:      0.000000003232
                                                 ... done
Finalizing the relaxed density                   ... done
Transforming P to the AO basis                   ... done
Storing the relaxed density                      ... done

------------------------------------
ENERGY WEIGHTED DENSITY FINALIZATION
------------------------------------

Gathering the parts of the W-matrix              ...                                                                                                           done
Forming the Z-density                            ... done
Transforming Z to the AO basis                   ... done
Calculating G(Z)                                 ... done
Finalizing the W-matrix                          ...                                                                                                           done
Transforming W to the AO basis and storing       ... done

                *********************************************
                * UNRELAXED MP2 DENSITY POPULATION ANALYSIS *
                *********************************************

------------------------------------------------------------------------------
                           ORCA POPULATION ANALYSIS
------------------------------------------------------------------------------
Input electron density              ... hcl.pmp2ur
Input spin density                  ... hcl.rmp2ur
BaseName (.gbw .S,...)              ... hcl

                    ********************************
                    * MULLIKEN POPULATION ANALYSIS *
                    ********************************

------------------------------------------
MULLIKEN ATOMIC CHARGES AND SPIN DENSITIES
------------------------------------------
   0 Cl:   -0.164178   -0.000000
   1 H :    0.164178   -0.000000
Sum of atomic charges       :   -0.0000000
Sum of atomic spin densities:   -0.0000000

---------------------------------------------------
MULLIKEN REDUCED ORBITAL CHARGES AND SPIN DENSITIES
---------------------------------------------------
CHARGE
  0 Cls       :     5.922748  s :     5.922748
      pz      :     3.231454  p :    11.171867
      px      :     3.970206
      py      :     3.970206
      dz2     :     0.029614  d :     0.069563
      dxz     :     0.009959
      dyz     :     0.009959
      dx2y2   :     0.010016
      dxy     :     0.010016
  1 H s       :     0.778730  s :     0.778730
      pz      :     0.030348  p :     0.057092
      px      :     0.013372
      py      :     0.013372

SPIN
  0 Cls       :    -0.000000  s :    -0.000000
      pz      :    -0.000000  p :    -0.000000
      px      :    -0.000000
      py      :     0.000000
      dz2     :    -0.000000  d :    -0.000000
      dxz     :     0.000000
      dyz     :    -0.000000
      dx2y2   :     0.000000
      dxy     :     0.000000
  1 H s       :    -0.000000  s :    -0.000000
      pz      :     0.000000  p :    -0.000000
      px      :    -0.000000
      py      :    -0.000000


                     *******************************
                     * LOEWDIN POPULATION ANALYSIS *
                     *******************************

-----------------------------------------
LOEWDIN ATOMIC CHARGES AND SPIN DENSITIES
-----------------------------------------
   0 Cl:    0.036318   -0.000000
   1 H :   -0.036318   -0.000000

--------------------------------------------------
LOEWDIN REDUCED ORBITAL CHARGES AND SPIN DENSITIES
--------------------------------------------------
CHARGE
  0 Cls       :     5.715244  s :     5.715244
      pz      :     3.265906  p :    11.177294
      px      :     3.955694
      py      :     3.955694
      dz2     :     0.031883  d :     0.071144
      dxz     :     0.009615
      dyz     :     0.009615
      dx2y2   :     0.010016
      dxy     :     0.010016
  1 H s       :     0.902788  s :     0.902788
      pz      :     0.077072  p :     0.133530
      px      :     0.028229
      py      :     0.028229

SPIN
  0 Cls       :    -0.000000  s :    -0.000000
      pz      :    -0.000000  p :    -0.000000
      px      :    -0.000000
      py      :     0.000000
      dz2     :    -0.000000  d :    -0.000000
      dxz     :     0.000000
      dyz     :    -0.000000
      dx2y2   :     0.000000
      dxy     :    -0.000000
  1 H s       :    -0.000000  s :    -0.000000
      pz      :     0.000000  p :     0.000000
      px      :    -0.000000
      py      :    -0.000000


                      *****************************
                      * MAYER POPULATION ANALYSIS *
                      *****************************

  NA   - Mulliken gross atomic population
  ZA   - Total nuclear charge
  QA   - Mulliken gross atomic charge
  VA   - Mayer's total valence
  BVA  - Mayer's bonded valence
  FA   - Mayer's free valence

  ATOM       NA         ZA         QA         VA         BVA        FA
  0 Cl    17.1642    17.0000    -0.1642     1.2984     0.9440     0.3544
  1 H      0.8358     1.0000     0.1642     0.9989     0.9440     0.0549

  Mayer bond orders larger than 0.1
B(  0-Cl,  1-H ) :   0.9440 


                *******************************************
                * RELAXED MP2 DENSITY POPULATION ANALYSIS *
                *******************************************

------------------------------------------------------------------------------
                           ORCA POPULATION ANALYSIS
------------------------------------------------------------------------------
Input electron density              ... hcl.pmp2re
Input spin density                  ... hcl.rmp2re
BaseName (.gbw .S,...)              ... hcl

                    ********************************
                    * MULLIKEN POPULATION ANALYSIS *
                    ********************************

------------------------------------------
MULLIKEN ATOMIC CHARGES AND SPIN DENSITIES
------------------------------------------
   0 Cl:   -0.159556   -0.000000
   1 H :    0.159556    0.000000
Sum of atomic charges       :   -0.0000000
Sum of atomic spin densities:   -0.0000000

---------------------------------------------------
MULLIKEN REDUCED ORBITAL CHARGES AND SPIN DENSITIES
---------------------------------------------------
CHARGE
  0 Cls       :     5.923692  s :     5.923692
      pz      :     3.231661  p :    11.169133
      px      :     3.968736
      py      :     3.968736
      dz2     :     0.026416  d :     0.066730
      dxz     :     0.010142
      dyz     :     0.010142
      dx2y2   :     0.010016
      dxy     :     0.010016
  1 H s       :     0.783203  s :     0.783203
      pz      :     0.027922  p :     0.057241
      px      :     0.014660
      py      :     0.014660

SPIN
  0 Cls       :    -0.000000  s :    -0.000000
      pz      :     0.000000  p :     0.000000
      px      :    -0.000000
      py      :    -0.000000
      dz2     :    -0.000000  d :    -0.000000
      dxz     :     0.000000
      dyz     :    -0.000000
      dx2y2   :     0.000000
      dxy     :     0.000000
  1 H s       :     0.000000  s :     0.000000
      pz      :    -0.000000  p :    -0.000000
      px      :    -0.000000
      py      :    -0.000000


                     *******************************
                     * LOEWDIN POPULATION ANALYSIS *
                     *******************************

-----------------------------------------
LOEWDIN ATOMIC CHARGES AND SPIN DENSITIES
-----------------------------------------
   0 Cl:    0.037617   -0.000000
   1 H :   -0.037617    0.000000

--------------------------------------------------
LOEWDIN REDUCED ORBITAL CHARGES AND SPIN DENSITIES
--------------------------------------------------
CHARGE
  0 Cls       :     5.717850  s :     5.717850
      pz      :     3.267279  p :    11.176168
      px      :     3.954444
      py      :     3.954444
      dz2     :     0.028840  d :     0.068366
      dxz     :     0.009747
      dyz     :     0.009747
      dx2y2   :     0.010016
      dxy     :     0.010016
  1 H s       :     0.903380  s :     0.903380
      pz      :     0.075545  p :     0.134237
      px      :     0.029346
      py      :     0.029346

SPIN
  0 Cls       :    -0.000000  s :    -0.000000
      pz      :     0.000000  p :     0.000000
      px      :    -0.000000
      py      :    -0.000000
      dz2     :    -0.000000  d :    -0.000000
      dxz     :     0.000000
      dyz     :    -0.000000
      dx2y2   :     0.000000
      dxy     :    -0.000000
  1 H s       :     0.000000  s :     0.000000
      pz      :     0.000000  p :     0.000000
      px      :    -0.000000
      py      :    -0.000000


                      *****************************
                      * MAYER POPULATION ANALYSIS *
                      *****************************

  NA   - Mulliken gross atomic population
  ZA   - Total nuclear charge
  QA   - Mulliken gross atomic charge
  VA   - Mayer's total valence
  BVA  - Mayer's bonded valence
  FA   - Mayer's free valence

  ATOM       NA         ZA         QA         VA         BVA        FA
  0 Cl    17.1596    17.0000    -0.1596     1.3041     0.9511     0.3529
  1 H      0.8404     1.0000     0.1596     1.0060     0.9511     0.0549

  Mayer bond orders larger than 0.1
B(  0-Cl,  1-H ) :   0.9511 


----------------------------------
MP2 DERIVATIVE INTEGRAL GENERATION
----------------------------------


Input Wavefunction Amplitudes       ... hcl.mp2tbb.tmp
Input Correlated Electron Density   ... hcl.pmp2re
Input Energy Weighted Density       ... hcl.wmp2.tmp
Input SCF Electron Density          ... hcl.scfp.tmp

One-Electron Terms    ...
                        ... One-Electron Terms done
Prescreening matrices              ... done

Batch handling in the gradient evaluation:
Memory available                      ...  256.0 MB
Memory per occupied orbital in Q2     ...    0.1 MB
Memory per occupied orbital in Q3     ...    0.0 MB
Total memory requirement per |i>      ...    0.1 MB
Max. Number of orbitals possible      ...   1744
Number of orbitals treated per batch  ...     18
Number of batches to be done          ...      1
Batch   0: i=    0 ...    17

---------------------------------------
MP2 TOTAL ENERGY:     -460.292970944 Eh
---------------------------------------

-----------------------------------
NORM OF THE MP2 GRADIENT:  0.000000
-----------------------------------

-------------------------   --------------------
FINAL SINGLE POINT ENERGY      -460.292970943920
-------------------------   --------------------

                                *** OPTIMIZATION RUN DONE ***

                            ***************************************
                            *     ORCA property calculations      *
                            ***************************************

                                    ---------------------
                                    Active property flags
                                    ---------------------
   (+) Dipole Moment


------------------------------------------------------------------------------
                       ORCA ELECTRIC PROPERTIES CALCULATION
------------------------------------------------------------------------------

Dipole Moment Calculation                       ... on
Quadrupole Moment Calculation                   ... off
Polarizability Calculation                      ... off
GBWName                                         ... hcl.gbw
Electron density file                           ... hcl.scfp.tmp
The origin for moment calculation is the CENTER OF MASS  = ( 0.000000,  0.000000  0.000886)

-------------
DIPOLE MOMENT
-------------
                                X             Y             Z
Electronic contribution:     -0.00000      -0.00000       0.63556
Nuclear contribution   :      0.00000       0.00000      -1.20904
                        -----------------------------------------
Total Dipole Moment    :     -0.00000      -0.00000      -0.57347
                        -----------------------------------------
Magnitude (a.u.)       :      0.57347
Magnitude (Debye)      :      1.45766



--------------------
Rotational spectrum 
--------------------
 
Rotational constants in cm-1:     0.000000    10.604307    10.604307 
Rotational constants in MHz :     0.000000 317909.120287 317909.120287 

 Dipole components along the rotational axes: 
x,y,z [a.u.] :    -0.573474    -0.000000    -0.000000 
x,y,z [Debye]:    -1.457656    -0.000000    -0.000000 

 

                         *** MP2 UNRELAXED DENSITY ***

------------------------------------------------------------------------------
                       ORCA ELECTRIC PROPERTIES CALCULATION
------------------------------------------------------------------------------

Dipole Moment Calculation                       ... on
Quadrupole Moment Calculation                   ... off
Polarizability Calculation                      ... off
GBWName                                         ... hcl.gbw
Electron density file                           ... hcl.pmp2ur
The origin for moment calculation is the CENTER OF MASS  = ( 0.000000,  0.000000  0.000886)

-------------
DIPOLE MOMENT
-------------
                                X             Y             Z
Electronic contribution:     -0.00000      -0.00000       0.64201
Nuclear contribution   :      0.00000       0.00000      -1.20904
                        -----------------------------------------
Total Dipole Moment    :     -0.00000      -0.00000      -0.56703
                        -----------------------------------------
Magnitude (a.u.)       :      0.56703
Magnitude (Debye)      :      1.44127



--------------------
Rotational spectrum 
--------------------
 
Rotational constants in cm-1:     0.000000    10.604307    10.604307 
Rotational constants in MHz :     0.000000 317909.120287 317909.120287 

 Dipole components along the rotational axes: 
x,y,z [a.u.] :    -0.567029    -0.000000    -0.000000 
x,y,z [Debye]:    -1.441274    -0.000000    -0.000000 

 

                           *** MP2 RELAXED DENSITY ***

------------------------------------------------------------------------------
                       ORCA ELECTRIC PROPERTIES CALCULATION
------------------------------------------------------------------------------

Dipole Moment Calculation                       ... on
Quadrupole Moment Calculation                   ... off
Polarizability Calculation                      ... off
GBWName                                         ... hcl.gbw
Electron density file                           ... hcl.pmp2re
The origin for moment calculation is the CENTER OF MASS  = ( 0.000000,  0.000000  0.000886)

-------------
DIPOLE MOMENT
-------------
                                X             Y             Z
Electronic contribution:     -0.00000      -0.00000       0.66254
Nuclear contribution   :      0.00000       0.00000      -1.20904
                        -----------------------------------------
Total Dipole Moment    :     -0.00000      -0.00000      -0.54649
                        -----------------------------------------
Magnitude (a.u.)       :      0.54649
Magnitude (Debye)      :      1.38908



--------------------
Rotational spectrum 
--------------------
 
Rotational constants in cm-1:     0.000000    10.604307    10.604307 
Rotational constants in MHz :     0.000000 317909.120287 317909.120287 

 Dipole components along the rotational axes: 
x,y,z [a.u.] :    -0.546494    -0.000000    -0.000000 
x,y,z [Debye]:    -1.389077    -0.000000    -0.000000 

 
------------------------------------------------------------------------------
                         ORCA MP2 H E S S I A N CALCULATION
------------------------------------------------------------------------------

Calculating analytic MP2 second derivatives ... (>hcl.last_mp2) done
Warning: T+R mode no 5 is zero 

-----------------------
VIBRATIONAL FREQUENCIES
-----------------------

Scaling factor for frequencies =  1.000000000  (already applied!)

   0:         0.00 cm**-1
   1:         0.00 cm**-1
   2:         0.00 cm**-1
   3:         0.00 cm**-1
   4:         0.00 cm**-1
   5:      3083.91 cm**-1


------------
NORMAL MODES
------------

These modes are the Cartesian displacements weighted by the diagonal matrix
M(i,i)=1/sqrt(m[i]) where m[i] is the mass of the displaced atom
Thus, these vectors are normalized but *not* orthogonal

                  0          1          2          3          4          5    
      0       0.000000   0.000000   0.000000   0.000000   0.000000   0.000000
      1       0.000000   0.000000   0.000000   0.000000   0.000000   0.000000
      2       0.000000   0.000000   0.000000   0.000000   0.000000   0.028421
      3       0.000000   0.000000   0.000000   0.000000   0.000000   0.000000
      4       0.000000   0.000000   0.000000   0.000000   0.000000   0.000000
      5       0.000000   0.000000   0.000000   0.000000   0.000000  -0.999596


-----------
IR SPECTRUM
-----------

 Mode    freq (cm**-1)   T**2         TX         TY         TZ
-------------------------------------------------------------------
   5:      3083.91   35.239257  (  0.000000   0.000000  -5.936266)

The first frequency considered to be a vibration is 5
The total number of vibrations considered is 1


--------------------------
THERMOCHEMISTRY AT 298.15K
--------------------------

Temperature         ... 298.15 K
Pressure            ... 1.00 atm
Total Mass          ... 36.46 AMU
The molecule is recognized as being linear

Throughout the following assumptions are being made:
  (1) The electronic state is orbitally nondegenerate
  (2) There are no thermally accessible electronically excited states
  (3) Hindered rotations indicated by low frequency modes are not
      treated as such but are treated as vibrations and this may
      cause some error
  (4) All equations used are the standard statistical mechanics
      equations for an ideal gas
  (5) All vibrations are strictly harmonic

freq.    3083.91  E(vib)   ...       0.00 

------------
INNER ENERGY
------------

The inner energy is: U= E(el) + E(ZPE) + E(vib) + E(rot) + E(trans)
    E(el)   - is the total energy from the electronic structure calculation
              = E(kin-el) + E(nuc-el) + E(el-el) + E(nuc-nuc)
    E(ZPE)  - the the zero temperature vibrational energy from the frequency calculation
    E(vib)  - the the finite temperature correction to E(ZPE) due to population
              of excited vibrational states
    E(rot)  - is the rotational thermal energy
    E(trans)- is the translational thermal energy

Summary of contributions to the inner energy U:
Electronic energy                ...   -460.29297094 Eh
Zero point energy                ...      0.00702566 Eh       4.41 kcal/mol
Thermal vibrational correction   ...      0.00000000 Eh       0.00 kcal/mol
Thermal rotational correction    ...      0.00094418 Eh       0.59 kcal/mol
Thermal translational correction ...      0.00141627 Eh       0.89 kcal/mol
-----------------------------------------------------------------------
Total thermal energy                   -460.28358483 Eh


Summary of corrections to the electronic energy:
(perhaps to be used in another calculation)
Total thermal correction                  0.00236046 Eh       1.48 kcal/mol
Non-thermal (ZPE) correction              0.00702566 Eh       4.41 kcal/mol
-----------------------------------------------------------------------
Total correction                          0.00938612 Eh       5.89 kcal/mol


--------
ENTHALPY
--------

The enthalpy is H = U + kB*T
                kB is Boltzmann's constant
Total free energy                 ...   -460.28358483 Eh 
Thermal Enthalpy correction       ...      0.00094421 Eh       0.59 kcal/mol
-----------------------------------------------------------------------
Total Enthalpy                    ...   -460.28264062 Eh


Note: Rotational entropy computed according to Herzberg 
Infrared and Raman Spectra, Chapter V,1, Van Nostrand Reinhold, 1945 
Point Group:  Cinfv, Symmetry Number:   1  
Rotational constants in cm-1:     0.000000    10.604307    10.604307 

Vibrational entropy computed according to the QRRHO of S. Grimme
Chem.Eur.J. 2012 18 9955


-------
ENTROPY
-------

The entropy contributions are T*S = T*(S(el)+S(vib)+S(rot)+S(trans))
     S(el)   - electronic entropy
     S(vib)  - vibrational entropy
     S(rot)  - rotational entropy
     S(trans)- translational entropy
The entropies will be listed as mutliplied by the temperature to get
units of energy

Electronic entropy                ...      0.00000000 Eh      0.00 kcal/mol
Vibrational entropy               ...      0.00000000 Eh      0.00 kcal/mol
Rotational entropy                ...      0.00375081 Eh      2.35 kcal/mol
Translational entropy             ...      0.01744233 Eh     10.95 kcal/mol
-----------------------------------------------------------------------
Final entropy term                ...      0.02119314 Eh     13.30 kcal/mol


-------------------
GIBBS FREE ENTHALPY
-------------------

The Gibbs free enthalpy is G = H - T*S

Total enthalpy                    ...   -460.28264062 Eh 
Total entropy correction          ...     -0.02119314 Eh    -13.30 kcal/mol
-----------------------------------------------------------------------
Final Gibbs free enthalpy         ...   -460.30383376 Eh

For completeness - the Gibbs free enthalpy minus the electronic energy
G-E(el)                           ...     -0.01086281 Eh     -6.82 kcal/mol


Timings for individual modules:

Sum of individual times         ...       47.995 sec (=   0.800 min)
GTO integral calculation        ...        3.477 sec (=   0.058 min)   7.2 %
SCF iterations                  ...       10.025 sec (=   0.167 min)  20.9 %
MP2 module                      ...        9.717 sec (=   0.162 min)  20.2 %
Geometry relaxation             ...        0.167 sec (=   0.003 min)   0.3 %
Analytical frequency calculation...       24.609 sec (=   0.410 min)  51.3 %
                             ****ORCA TERMINATED NORMALLY****
TOTAL RUN TIME: 0 days 0 hours 0 minutes 49 seconds 161 msec
