
                                 *****************
                                 * O   R   C   A *
                                 *****************

           --- An Ab Initio, DFT and Semiempirical electronic structure package ---

                  #######################################################
                  #                        -***-                        #
                  #          Department of theory and spectroscopy      #
                  #               Directorship: Frank Neese             #
                  #        Max Planck Institute fuer Kohlenforschung    #
                  #                Kaiser Wilhelm Platz 1               #
                  #                 D-45470 Muelheim/Ruhr               #
                  #                      Germany                        #
                  #                                                     #
                  #                  All rights reserved                #
                  #                        -***-                        #
                  #######################################################


                         Program Version 4.1.1  - RELEASE  -


 With contributions from (in alphabetic order):
   Daniel Aravena         : Magnetic Properties
   Michael Atanasov       : Ab Initio Ligand Field Theory
   Alexander A. Auer      : GIAO ZORA
   Ute Becker             : Parallelization
   Giovanni Bistoni       : ED, Open-shell LED
   Martin Brehm           : Molecular dynamics
   Dmytro Bykov           : SCF Hessian
   Vijay G. Chilkuri      : MRCI spin determinant printing
   Dipayan Datta          : RHF DLPNO-CCSD density
   Achintya Kumar Dutta   : EOM-CC, STEOM-CC
   Dmitry Ganyushin       : Spin-Orbit,Spin-Spin,Magnetic field MRCI
   Miquel Garcia          : C-PCM Hessian
   Yang Guo               : DLPNO-NEVPT2, CIM, IAO-localization
   Andreas Hansen         : Spin unrestricted coupled pair/coupled cluster methods
   Benjamin Helmich-Paris : CASSCF linear response (MC-RPA)
   Lee Huntington         : MR-EOM, pCC
   Robert Izsak           : Overlap fitted RIJCOSX, COSX-SCS-MP3, EOM
   Christian Kollmar      : KDIIS, OOCD, Brueckner-CCSD(T), CCSD density
   Simone Kossmann        : Meta GGA functionals, TD-DFT gradient, OOMP2, MP2 Hessian
   Martin Krupicka        : AUTO-CI
   Lucas Lang             : DCDCAS
   Dagmar Lenk            : GEPOL surface, SMD
   Dimitrios Liakos       : Extrapolation schemes; parallel MDCI
   Dimitrios Manganas     : ROCIS; embedding schemes
   Dimitrios Pantazis     : SARC Basis sets
   Taras Petrenko         : DFT Hessian,TD-DFT gradient, ASA, ECA, R-Raman, ABS, FL, XAS/XES, NRVS
   Peter Pinski           : DLPNO-MP2, DLPNO-MP2 Gradient
   Christoph Reimann      : Effective Core Potentials
   Marius Retegan         : Local ZFS, SOC
   Christoph Riplinger    : Optimizer, TS searches, QM/MM, DLPNO-CCSD(T), (RO)-DLPNO pert. Triples
   Tobias Risthaus        : Range-separated hybrids, TD-DFT gradient, RPA, STAB
   Michael Roemelt        : Restricted open shell CIS
   Masaaki Saitow         : Open-shell DLPNO
   Barbara Sandhoefer     : DKH picture change effects
   Avijit Sen             : IP-ROCIS
   Kantharuban Sivalingam : CASSCF convergence, NEVPT2, FIC-MRCI
   Bernardo de Souza      : ESD, SOC TD-DFT
   Georgi Stoychev        : AutoAux, RI-MP2 NMR
   Willem Van den Heuvel  : Paramagnetic NMR
   Boris Wezisla          : Elementary symmetry handling
   Frank Wennmohs         : Technical directorship


 We gratefully acknowledge several colleagues who have allowed us to
 interface, adapt or use parts of their codes:
   Stefan Grimme, W. Hujo, H. Kruse,             : VdW corrections, initial TS optimization,
                  C. Bannwarth                     DFT functionals, gCP, sTDA/sTD-DF
   Ed Valeev                                     : LibInt (2-el integral package), F12 methods
   Garnet Chan, S. Sharma, J. Yang, R. Olivares  : DMRG
   Ulf Ekstrom                                   : XCFun DFT Library
   Mihaly Kallay                                 : mrcc  (arbitrary order and MRCC methods)
   Andreas Klamt, Michael Diedenhofen            : otool_cosmo (COSMO solvation model)
   Jiri Pittner, Ondrej Demel                    : Mk-CCSD
   Frank Weinhold                                : gennbo (NPA and NBO analysis)
   Christopher J. Cramer and Donald G. Truhlar   : smd solvation model
   Lars Goerigk                                  : TD-DFT with DH, B97 family of functionals
   V. Asgeirsson, H. Jonsson                     : NEB implementation
   FAccTs GmbH                                   : IRC, NEB, NEB-TS, Multilevel


 Your calculation uses the libint2 library for the computation of 2-el integrals
 For citations please refer to: http://libint.valeyev.net

 This ORCA versions uses:
   CBLAS   interface :  Fast vector & matrix operations
   LAPACKE interface :  Fast linear algebra routines
   SCALAPACK package :  Parallel linear algebra routines


----- Orbital basis set information -----
Your calculation utilizes the basis: 6-311G**
   H, Li - Ne  : R. Krishnan, J. S. Binkley, R. Seeger and J. A. Pople, J. Chem. Phys. 72, 650 (1980).
   Na - Ar     : A. D. McLean and G. S. Chandler J. Chem. Phys. 72, 5639, (1980).
   K  - Ca     : J.-P. Blaudeau, M. P. McGrath, L. A. Curtiss and L. Radom, J. Chem. Phys. 107, 5016 (1997).
   Ga - Kr     : L. A. Curtiss, M. P. McGrath, J.-P. Blandeau, N. E. Davis, R. C. Binning and L. Radom, J. Chem. Phys. 103, 6104 (1995).
   Pol./Diff.
   H, Li - Cl  : T. Clark, J. Chandrasekhar and P. v. R. Schleyer, J. Comp. Chem. 4, 294 (1983).
   H - Ne      : M. J. Frisch, J. A. Pople and J. S. Binkley, J. Chem. Phys. 80, 3265 (1984).

================================================================================
                                        WARNINGS
                       Please study these warnings very carefully!
================================================================================


WARNING: Geometry Optimization
  ===> : Switching off AutoStart
         For restart on a previous wavefunction, please use MOREAD

WARNING: Post HF methods need fully converged wavefunctions
  ===> : Setting SCFConvForced true
         You can overwrite this default with %scf ConvForced false 


INFO   : the flag for use of LIBINT has been found!

================================================================================
                                       INPUT FILE
================================================================================
NAME = ch4.inp
|  1> ! UHF MP2 6-311G** Opt Freq NoFrozenCore TightOpt TightSCF
|  2> 
|  3> *xyz 0 1
|  4> C        0.000000000      0.000000000      0.000000000
|  5> H       -0.629155000     -0.629155000      0.629155000
|  6> H        0.629155000     -0.629155000     -0.629155000
|  7> H       -0.629155000      0.629155000     -0.629155000
|  8> H        0.629155000      0.629155000      0.629155000
|  9> *
| 10> %pal
| 11>  nprocs 4
| 12> end
| 13> 
| 14>                          ****END OF INPUT****
================================================================================

                       *****************************
                       * Geometry Optimization Run *
                       *****************************

Geometry optimization settings:
Update method            Update   .... BFGS
Choice of coordinates    CoordSys .... Z-matrix Internals
Initial Hessian          InHess   .... Almoef's Model

Convergence Tolerances:
Energy Change            TolE     ....  1.0000e-06 Eh
Max. Gradient            TolMAXG  ....  1.0000e-04 Eh/bohr
RMS Gradient             TolRMSG  ....  3.0000e-05 Eh/bohr
Max. Displacement        TolMAXD  ....  1.0000e-03 bohr
RMS Displacement         TolRMSD  ....  6.0000e-04 bohr

------------------------------------------------------------------------------
                        ORCA OPTIMIZATION COORDINATE SETUP
------------------------------------------------------------------------------

The optimization will be done in new redundant internal coordinates
Making redundant internal coordinates   ...  (new redundants) done
Evaluating the initial hessian          ...  (Almloef) done
Evaluating the coordinates              ...  done
Calculating the B-matrix                .... done
Calculating the G-matrix                .... done
Diagonalizing the G-matrix              .... done
The first mode is                       ....    1
The number of degrees of freedom        ....    9

    -----------------------------------------------------------------
                    Redundant Internal Coordinates


    -----------------------------------------------------------------
         Definition                    Initial Value    Approx d2E/dq
    -----------------------------------------------------------------
      1. B(H   1,C   0)                  1.0897         0.360459   
      2. B(H   2,C   0)                  1.0897         0.360459   
      3. B(H   3,C   0)                  1.0897         0.360459   
      4. B(H   4,C   0)                  1.0897         0.360459   
      5. A(H   1,C   0,H   3)          109.4712         0.290931   
      6. A(H   2,C   0,H   3)          109.4712         0.290931   
      7. A(H   1,C   0,H   4)          109.4712         0.290931   
      8. A(H   2,C   0,H   4)          109.4712         0.290931   
      9. A(H   3,C   0,H   4)          109.4712         0.290931   
     10. A(H   1,C   0,H   2)          109.4712         0.290931   
    -----------------------------------------------------------------

Number of atoms                         .... 5
Number of degrees of freedom            .... 10

         *************************************************************
         *                GEOMETRY OPTIMIZATION CYCLE   1            *
         *************************************************************
---------------------------------
CARTESIAN COORDINATES (ANGSTROEM)
---------------------------------
  C      0.000000    0.000000    0.000000
  H     -0.629155   -0.629155    0.629155
  H      0.629155   -0.629155   -0.629155
  H     -0.629155    0.629155   -0.629155
  H      0.629155    0.629155    0.629155

----------------------------
CARTESIAN COORDINATES (A.U.)
----------------------------
  NO LB      ZA    FRAG     MASS         X           Y           Z
   0 C     6.0000    0    12.011    0.000000    0.000000    0.000000
   1 H     1.0000    0     1.008   -1.188931   -1.188931    1.188931
   2 H     1.0000    0     1.008    1.188931   -1.188931   -1.188931
   3 H     1.0000    0     1.008   -1.188931    1.188931   -1.188931
   4 H     1.0000    0     1.008    1.188931    1.188931    1.188931

--------------------------------
INTERNAL COORDINATES (ANGSTROEM)
--------------------------------
 C      0   0   0     0.000000000000     0.00000000     0.00000000
 H      1   0   0     1.089728425836     0.00000000     0.00000000
 H      1   2   0     1.089728425836   109.47122063     0.00000000
 H      1   2   3     1.089728425836   109.47122063   120.00000000
 H      1   2   3     1.089728425836   109.47122063   240.00000000

---------------------------
INTERNAL COORDINATES (A.U.)
---------------------------
 C      0   0   0     0.000000000000     0.00000000     0.00000000
 H      1   0   0     2.059288285179     0.00000000     0.00000000
 H      1   2   0     2.059288285179   109.47122063     0.00000000
 H      1   2   3     2.059288285179   109.47122063   120.00000000
 H      1   2   3     2.059288285179   109.47122063   240.00000000

---------------------
BASIS SET INFORMATION
---------------------
There are 2 groups of distinct atoms

 Group   1 Type C   : 11s5p1d contracted to 4s3p1d pattern {6311/311/1}
 Group   2 Type H   : 5s1p contracted to 3s1p pattern {311/1}

Atom   0C    basis set group =>   1
Atom   1H    basis set group =>   2
Atom   2H    basis set group =>   2
Atom   3H    basis set group =>   2
Atom   4H    basis set group =>   2


           ************************************************************
           *        Program running with 4 parallel MPI-processes     *
           *              working on a common directory               *
           ************************************************************
------------------------------------------------------------------------------
                           ORCA GTO INTEGRAL CALCULATION
------------------------------------------------------------------------------

                         BASIS SET STATISTICS AND STARTUP INFO

 # of primitive gaussian shells          ...   41
 # of primitive gaussian functions       ...   63
 # of contracted shells                  ...   24
 # of contracted basis functions         ...   42
 Highest angular momentum                ...    2
 Maximum contraction depth               ...    6
 Integral package used                   ... LIBINT
 Integral threshhold            Thresh   ...  2.500e-11
 Primitive cut-off              TCut     ...  2.500e-12


------------------------------ INTEGRAL EVALUATION ----------------------------


 * One electron integrals 
 Pre-screening matrix                    ... done
 Shell pair data                         ... done (   0.000 sec)



           ************************************************************
           *        Program running with 4 parallel MPI-processes     *
           *              working on a common directory               *
           ************************************************************
-------------------------------------------------------------------------------
                                 ORCA SCF
-------------------------------------------------------------------------------

------------
SCF SETTINGS
------------
Hamiltonian:
 Ab initio Hamiltonian  Method          .... Hartree-Fock(GTOs)


General Settings:
 Integral files         IntName         .... ch4
 Hartree-Fock type      HFTyp           .... UHF
 Total Charge           Charge          ....    0
 Multiplicity           Mult            ....    1
 Number of Electrons    NEL             ....   10
 Basis Dimension        Dim             ....   42
 Nuclear Repulsion      ENuc            ....     13.4387374577 Eh

Convergence Acceleration:
 DIIS                   CNVDIIS         .... on
   Start iteration      DIISMaxIt       ....    12
   Startup error        DIISStart       ....  0.200000
   # of expansion vecs  DIISMaxEq       ....     5
   Bias factor          DIISBfac        ....   1.050
   Max. coefficient     DIISMaxC        ....  10.000
 Newton-Raphson         CNVNR           .... off
 SOSCF                  CNVSOSCF        .... off
 Level Shifting         CNVShift        .... on
   Level shift para.    LevelShift      ....    0.2500
   Turn off err/grad.   ShiftErr        ....    0.0010
 Zerner damping         CNVZerner       .... off
 Static damping         CNVDamp         .... on
   Fraction old density DampFac         ....    0.7000
   Max. Damping (<1)    DampMax         ....    0.9800
   Min. Damping (>=0)   DampMin         ....    0.0000
   Turn off err/grad.   DampErr         ....    0.1000
 Fernandez-Rico         CNVRico         .... off

SCF Procedure:
 Maximum # iterations   MaxIter         ....   125
 SCF integral mode      SCFMode         .... Direct
   Integral package                     .... LIBINT
 Reset frequency        DirectResetFreq ....    20
 Integral Threshold     Thresh          ....  2.500e-11 Eh
 Primitive CutOff       TCut            ....  2.500e-12 Eh

Convergence Tolerance:
 Convergence Check Mode ConvCheckMode   .... Total+1el-Energy
 Convergence forced     ConvForced      .... 1
 Energy Change          TolE            ....  1.000e-08 Eh
 1-El. energy change                    ....  1.000e-05 Eh
 DIIS Error             TolErr          ....  5.000e-07


Diagonalization of the overlap matrix:
Smallest eigenvalue                        ... 1.279e-02
Time for diagonalization                   ...    0.001 sec
Threshold for overlap eigenvalues          ... 1.000e-08
Number of eigenvalues below threshold      ... 0
Time for construction of square roots      ...    0.003 sec
Total time needed                          ...    0.005 sec

-------------------
DFT GRID GENERATION
-------------------

General Integration Accuracy     IntAcc      ...  4.340
Radial Grid Type                 RadialGrid  ... Gauss-Chebyshev
Angular Grid (max. acc.)         AngularGrid ... Lebedev-110
Angular grid pruning method      GridPruning ... 3 (G Style)
Weight generation scheme         WeightScheme... Becke
Basis function cutoff            BFCut       ...    1.0000e-11
Integration weight cutoff        WCut        ...    1.0000e-14
Grids for H and He will be reduced by one unit

# of grid points (after initial pruning)     ...   4832 (   0.0 sec)
# of grid points (after weights+screening)   ...   4636 (   0.0 sec)
nearest neighbour list constructed           ...    0.0 sec
Grid point re-assignment to atoms done       ...    0.0 sec
Grid point division into batches done        ...    0.0 sec
Reduced shell lists constructed in    0.0 sec

Total number of grid points                  ...     4636
Total number of batches                      ...       75
Average number of points per batch           ...       61
Average number of grid points per atom       ...      927
Average number of shells per batch           ...    21.80 (90.83%)
Average number of basis functions per batch  ...    38.30 (91.19%)
Average number of large shells per batch     ...    20.90 (95.87%)
Average number of large basis fcns per batch ...    36.70 (95.82%)
Maximum spatial batch extension              ...  18.87, 18.87, 18.87 au
Average spatial batch extension              ...   1.11,  1.07,  1.06 au

Time for grid setup =    0.064 sec

------------------------------
INITIAL GUESS: MODEL POTENTIAL
------------------------------
Loading Hartree-Fock densities                     ... done
Calculating cut-offs                               ... done
Setting up the integral package                    ... done
Initializing the effective Hamiltonian             ... done
Starting the Coulomb interaction                   ... done (   0.0 sec)
Reading the grid                                   ... done
Mapping shells                                     ... done
Starting the XC term evaluation                    ... done (   0.0 sec)
Transforming the Hamiltonian                       ... done (   0.0 sec)
Diagonalizing the Hamiltonian                      ... done (   0.0 sec)
Back transforming the eigenvectors                 ... done (   0.0 sec)
Now organizing SCF variables                       ... done
                      ------------------
                      INITIAL GUESS DONE (   0.4 sec)
                      ------------------
--------------
SCF ITERATIONS
--------------
ITER       Energy         Delta-E        Max-DP      RMS-DP      [F,P]     Damp
               ***  Starting incremental Fock matrix formation  ***
  0    -40.0960730776   0.000000000000 0.03128361  0.00119880  0.3085855 0.7000
  1    -40.1372251573  -0.041152079727 0.02164555  0.00091724  0.1971758 0.7000
                               ***Turning on DIIS***
  2    -40.1616627757  -0.024437618391 0.01247680  0.00058443  0.1154758 0.7000
  3    -40.3397142624  -0.178051486659 0.01558579  0.00107071  0.0659093 0.0000
  4    -40.1816198789   0.158094383481 0.00451785  0.00019469  0.0109094 0.0000
  5    -40.2063356075  -0.024715728606 0.00096588  0.00008917  0.0027860 0.0000
  6    -40.2085181458  -0.002182538261 0.00056627  0.00004883  0.0008402 0.0000
  7    -40.2089264004  -0.000408254627 0.00007257  0.00000643  0.0000636 0.0000
  8    -40.2089401204  -0.000013719988 0.00000689  0.00000067  0.0000039 0.0000
                            ***DIIS convergence achieved***

               *****************************************************
               *                     SUCCESS                       *
               *           SCF CONVERGED AFTER   9 CYCLES          *
               *****************************************************


----------------
TOTAL SCF ENERGY
----------------

Total Energy       :          -40.20893171 Eh           -1094.14066 eV

Components:
Nuclear Repulsion  :           13.43873746 Eh             365.68664 eV
Electronic Energy  :          -53.64766916 Eh           -1459.82729 eV
One Electron Energy:          -79.72632910 Eh           -2169.46371 eV
Two Electron Energy:           26.07865994 Eh             709.63641 eV

Virial components:
Potential Energy   :          -80.36501771 Eh           -2186.84331 eV
Kinetic Energy     :           40.15608601 Eh            1092.70265 eV
Virial Ratio       :            2.00131601


---------------
SCF CONVERGENCE
---------------

  Last Energy change         ...    8.4144e-06  Tolerance :   1.0000e-08
  Last MAX-Density change    ...    1.0034e-06  Tolerance :   1.0000e-07
  Last RMS-Density change    ...    7.3395e-08  Tolerance :   5.0000e-09
  Last DIIS Error            ...    2.0901e-07  Tolerance :   5.0000e-07

             **** THE GBW FILE WAS UPDATED (ch4.gbw) ****
             **** DENSITY FILE WAS UPDATED (ch4.scfp.tmp) ****
             **** ENERGY FILE WAS UPDATED (ch4.en.tmp) ****
----------------------
UHF SPIN CONTAMINATION
----------------------

Expectation value of <S**2>     :    -0.000000
Ideal value S*(S+1) for S=0.0   :     0.000000
Deviation                       :    -0.000000

----------------
ORBITAL ENERGIES
----------------
                 SPIN UP ORBITALS
  NO   OCC          E(Eh)            E(eV) 
   0   1.0000     -11.207722      -304.9776 
   1   1.0000      -0.942745       -25.6534 
   2   1.0000      -0.544679       -14.8215 
   3   1.0000      -0.544679       -14.8215 
   4   1.0000      -0.544679       -14.8215 
   5   0.0000       0.161718         4.4006 
   6   0.0000       0.237053         6.4505 
   7   0.0000       0.237053         6.4505 
   8   0.0000       0.237053         6.4505 
   9   0.0000       0.427116        11.6224 
  10   0.0000       0.427116        11.6224 
  11   0.0000       0.427116        11.6224 
  12   0.0000       0.753197        20.4955 
  13   0.0000       0.812067        22.0975 
  14   0.0000       0.812067        22.0975 
  15   0.0000       0.812067        22.0975 
  16   0.0000       0.936099        25.4725 
  17   0.0000       1.202073        32.7101 
  18   0.0000       1.202073        32.7101 
  19   0.0000       1.720827        46.8261 
  20   0.0000       1.720827        46.8261 
  21   0.0000       1.720827        46.8261 
  22   0.0000       1.723695        46.9041 
  23   0.0000       1.723695        46.9041 
  24   0.0000       1.723695        46.9041 
  25   0.0000       2.180585        59.3367 
  26   0.0000       2.180585        59.3367 
  27   0.0000       2.180585        59.3367 
  28   0.0000       2.521492        68.6133 
  29   0.0000       2.621506        71.3348 
  30   0.0000       2.621506        71.3348 
  31   0.0000       2.702100        73.5279 
  32   0.0000       2.702100        73.5279 
  33   0.0000       2.702100        73.5279 
  34   0.0000       2.901544        78.9550 
  35   0.0000       2.901544        78.9550 
  36   0.0000       2.901544        78.9550 
  37   0.0000       3.188544        86.7647 
  38   0.0000       4.192141       114.0740 
  39   0.0000       4.192141       114.0740 
  40   0.0000       4.192141       114.0740 
  41   0.0000      25.158294       684.5920 

                 SPIN DOWN ORBITALS
  NO   OCC          E(Eh)            E(eV) 
   0   1.0000     -11.207722      -304.9776 
   1   1.0000      -0.942745       -25.6534 
   2   1.0000      -0.544679       -14.8215 
   3   1.0000      -0.544679       -14.8215 
   4   1.0000      -0.544679       -14.8215 
   5   0.0000       0.161718         4.4006 
   6   0.0000       0.237053         6.4505 
   7   0.0000       0.237053         6.4505 
   8   0.0000       0.237053         6.4505 
   9   0.0000       0.427116        11.6224 
  10   0.0000       0.427116        11.6224 
  11   0.0000       0.427116        11.6224 
  12   0.0000       0.753197        20.4955 
  13   0.0000       0.812067        22.0975 
  14   0.0000       0.812067        22.0975 
  15   0.0000       0.812067        22.0975 
  16   0.0000       0.936099        25.4725 
  17   0.0000       1.202073        32.7101 
  18   0.0000       1.202073        32.7101 
  19   0.0000       1.720827        46.8261 
  20   0.0000       1.720827        46.8261 
  21   0.0000       1.720827        46.8261 
  22   0.0000       1.723695        46.9041 
  23   0.0000       1.723695        46.9041 
  24   0.0000       1.723695        46.9041 
  25   0.0000       2.180585        59.3367 
  26   0.0000       2.180585        59.3367 
  27   0.0000       2.180585        59.3367 
  28   0.0000       2.521492        68.6133 
  29   0.0000       2.621506        71.3348 
  30   0.0000       2.621506        71.3348 
  31   0.0000       2.702100        73.5279 
  32   0.0000       2.702100        73.5279 
  33   0.0000       2.702100        73.5279 
  34   0.0000       2.901544        78.9550 
  35   0.0000       2.901544        78.9550 
  36   0.0000       2.901544        78.9550 
  37   0.0000       3.188544        86.7647 
  38   0.0000       4.192141       114.0740 
  39   0.0000       4.192141       114.0740 
  40   0.0000       4.192141       114.0740 
  41   0.0000      25.158294       684.5920 

                    ********************************
                    * MULLIKEN POPULATION ANALYSIS *
                    ********************************

--------------------------------------------
MULLIKEN ATOMIC CHARGES AND SPIN POPULATIONS
--------------------------------------------
   0 C :   -0.361414    0.000000
   1 H :    0.090353    0.000000
   2 H :    0.090353    0.000000
   3 H :    0.090353    0.000000
   4 H :    0.090353    0.000000
Sum of atomic charges         :   -0.0000000
Sum of atomic spin populations:    0.0000000

-----------------------------------------------------
MULLIKEN REDUCED ORBITAL CHARGES AND SPIN POPULATIONS
-----------------------------------------------------
CHARGE
  0 C s       :     3.188101  s :     3.188101
      pz      :     1.042622  p :     3.127865
      px      :     1.042622
      py      :     1.042622
      dz2     :     0.000000  d :     0.045448
      dxz     :     0.015149
      dyz     :     0.015149
      dx2y2   :    -0.000000
      dxy     :     0.015149
  1 H s       :     0.884647  s :     0.884647
      pz      :     0.008333  p :     0.025000
      px      :     0.008333
      py      :     0.008333
  2 H s       :     0.884647  s :     0.884647
      pz      :     0.008333  p :     0.025000
      px      :     0.008333
      py      :     0.008333
  3 H s       :     0.884647  s :     0.884647
      pz      :     0.008333  p :     0.025000
      px      :     0.008333
      py      :     0.008333
  4 H s       :     0.884647  s :     0.884647
      pz      :     0.008333  p :     0.025000
      px      :     0.008333
      py      :     0.008333

SPIN
  0 C s       :     0.000000  s :     0.000000
      pz      :     0.000000  p :     0.000000
      px      :     0.000000
      py      :     0.000000
      dz2     :     0.000000  d :     0.000000
      dxz     :     0.000000
      dyz     :     0.000000
      dx2y2   :     0.000000
      dxy     :     0.000000
  1 H s       :     0.000000  s :     0.000000
      pz      :     0.000000  p :     0.000000
      px      :     0.000000
      py      :     0.000000
  2 H s       :     0.000000  s :     0.000000
      pz      :     0.000000  p :     0.000000
      px      :     0.000000
      py      :     0.000000
  3 H s       :     0.000000  s :     0.000000
      pz      :     0.000000  p :     0.000000
      px      :     0.000000
      py      :     0.000000
  4 H s       :     0.000000  s :     0.000000
      pz      :     0.000000  p :     0.000000
      px      :     0.000000
      py      :     0.000000


                     *******************************
                     * LOEWDIN POPULATION ANALYSIS *
                     *******************************

-------------------------------------------
LOEWDIN ATOMIC CHARGES AND SPIN POPULATIONS
-------------------------------------------
   0 C :   -0.012414    0.000000
   1 H :    0.003104    0.000000
   2 H :    0.003104    0.000000
   3 H :    0.003104    0.000000
   4 H :    0.003104    0.000000

----------------------------------------------------
LOEWDIN REDUCED ORBITAL CHARGES AND SPIN POPULATIONS
----------------------------------------------------
CHARGE
  0 C s       :     2.763794  s :     2.763794
      pz      :     1.057305  p :     3.171916
      px      :     1.057305
      py      :     1.057305
      dz2     :    -0.000000  d :     0.076705
      dxz     :     0.025568
      dyz     :     0.025568
      dx2y2   :    -0.000000
      dxy     :     0.025568
  1 H s       :     0.930031  s :     0.930031
      pz      :     0.022288  p :     0.066865
      px      :     0.022288
      py      :     0.022288
  2 H s       :     0.930031  s :     0.930031
      pz      :     0.022288  p :     0.066865
      px      :     0.022288
      py      :     0.022288
  3 H s       :     0.930031  s :     0.930031
      pz      :     0.022288  p :     0.066865
      px      :     0.022288
      py      :     0.022288
  4 H s       :     0.930031  s :     0.930031
      pz      :     0.022288  p :     0.066865
      px      :     0.022288
      py      :     0.022288

SPIN
  0 C s       :     0.000000  s :     0.000000
      pz      :     0.000000  p :     0.000000
      px      :     0.000000
      py      :     0.000000
      dz2     :     0.000000  d :     0.000000
      dxz     :     0.000000
      dyz     :     0.000000
      dx2y2   :     0.000000
      dxy     :     0.000000
  1 H s       :     0.000000  s :     0.000000
      pz      :     0.000000  p :     0.000000
      px      :     0.000000
      py      :     0.000000
  2 H s       :     0.000000  s :     0.000000
      pz      :     0.000000  p :     0.000000
      px      :     0.000000
      py      :     0.000000
  3 H s       :     0.000000  s :     0.000000
      pz      :     0.000000  p :     0.000000
      px      :     0.000000
      py      :     0.000000
  4 H s       :     0.000000  s :     0.000000
      pz      :     0.000000  p :     0.000000
      px      :     0.000000
      py      :     0.000000


                      *****************************
                      * MAYER POPULATION ANALYSIS *
                      *****************************

  NA   - Mulliken gross atomic population
  ZA   - Total nuclear charge
  QA   - Mulliken gross atomic charge
  VA   - Mayer's total valence
  BVA  - Mayer's bonded valence
  FA   - Mayer's free valence

  ATOM       NA         ZA         QA         VA         BVA        FA
  0 C      6.3614     6.0000    -0.3614     3.9545     3.9545    -0.0000
  1 H      0.9096     1.0000     0.0904     0.9685     0.9685    -0.0000
  2 H      0.9096     1.0000     0.0904     0.9685     0.9685     0.0000
  3 H      0.9096     1.0000     0.0904     0.9685     0.9685    -0.0000
  4 H      0.9096     1.0000     0.0904     0.9685     0.9685    -0.0000

  Mayer bond orders larger than 0.1
B(  0-C ,  1-H ) :   0.9886 B(  0-C ,  2-H ) :   0.9886 B(  0-C ,  3-H ) :   0.9886 
B(  0-C ,  4-H ) :   0.9886 

-------
TIMINGS
-------

Total SCF time: 0 days 0 hours 0 min 7 sec 

Total time                  ....       7.118 sec
Sum of individual times     ....       6.117 sec  ( 85.9%)

Fock matrix formation       ....       5.550 sec  ( 78.0%)
Diagonalization             ....       0.075 sec  (  1.1%)
Density matrix formation    ....       0.021 sec  (  0.3%)
Population analysis         ....       0.015 sec  (  0.2%)
Initial guess               ....       0.378 sec  (  5.3%)
Orbital Transformation      ....       0.000 sec  (  0.0%)
Orbital Orthonormalization  ....       0.000 sec  (  0.0%)
DIIS solution               ....       0.013 sec  (  0.2%)


           ************************************************************
           *        Program running with 4 parallel MPI-processes     *
           *              working on a common directory               *
           ************************************************************

------------------------------------------------------------------------------
                                ORCA  MP2 
------------------------------------------------------------------------------

MP2 will be done in the AO integral direct mode
The Q1-step will be done using symmetric double matrices
Dimension of the basis                    ...   42
Memory devoted for MP2                    ...  256 MB   
Memory needed for all in one shot         ...    2 MB
Number of MOs that can be treated together...  883      
MP2 density construction                  ... relaxed
The MP2 gradient is requested => amplitudes will be stored on disk
Total number of MOs              ...    5
Number of MOs treated per batch  ...    2 
Number of batches necessary      ...    1 
OPERATORS   0/  0 PASS   0
OPERATORS   0/  1 PASS   0
Total number of MOs              ...    5
Number of MOs treated per batch  ...    2 
Number of batches necessary      ...    1 
OPERATORS   1/  0 PASS   0
OPERATORS   1/  1 PASS   0

Correlation energy components
 E2 and T2 for alpha/alpha pairs :     -0.016999844 Eh
 E2 and T2 for beta/beta   pairs :     -0.016999844 Eh
 E2 and T2 for alpha/beta  pairs :     -0.155111802 Eh

-----------------------------------------------
 MP2 CORRELATION ENERGY   :     -0.189111490 Eh
-----------------------------------------------


---------------------
MP2 DENSITY FORMATION
---------------------

Completing the external part of the density      ... done
Storing the unrelaxed density                    ... done

Calculating G(D)                                 ... done
Completing the Lagrangian                        ... done
Solving the Z-vector equations                   ... 

------------------------------------------------------------------------------
                           ORCA CP-SCF CALCULATION
------------------------------------------------------------------------------

Input orbitals are from        ... ch4.gbw
Input Perturbation             ... ch4.pin.tmp
Wavefunction output            ... ch4.pout.tmp
Perturbation mode              ... Real perturbation (singlet)
Solver                         ... POPLE
Max. number of iterations      ... 128
Convergence tolerance          ... 1.000e-08
Integral handling              ... Direct
Number of perturbations        ... 1
Number of operators            ... 2
Orbital ranges used for CP-SCF:
 Operator 0:  Orbitals   0...  4  to   5... 41
 Operator 1:  Orbitals   0...  4  to   5... 41
Variables per vector in CP-SCF ... 370
Number of vectors sought       ... 1
     CP-SCF ITERATION   0: 
     CP-SCF ITERATION   1:      0.000005992375
     CP-SCF ITERATION   2:      0.000000057637
     CP-SCF ITERATION   3:      0.000000000203
                                                 ... done
Finalizing the relaxed density                   ... done
Transforming P to the AO basis                   ... done
Storing the relaxed density                      ... done

------------------------------------
ENERGY WEIGHTED DENSITY FINALIZATION
------------------------------------

Gathering the parts of the W-matrix              ...                                                                                                           done
Forming the Z-density                            ... done
Transforming Z to the AO basis                   ... done
Calculating G(Z)                                 ... done
Finalizing the W-matrix                          ...                                                                                                           done
Transforming W to the AO basis and storing       ... done

                *********************************************
                * UNRELAXED MP2 DENSITY POPULATION ANALYSIS *
                *********************************************

------------------------------------------------------------------------------
                           ORCA POPULATION ANALYSIS
------------------------------------------------------------------------------
Input electron density              ... ch4.pmp2ur
Input spin density                  ... ch4.rmp2ur
BaseName (.gbw .S,...)              ... ch4

                    ********************************
                    * MULLIKEN POPULATION ANALYSIS *
                    ********************************

------------------------------------------
MULLIKEN ATOMIC CHARGES AND SPIN DENSITIES
------------------------------------------
   0 C :   -0.367881    0.000000
   1 H :    0.091970   -0.000000
   2 H :    0.091970   -0.000000
   3 H :    0.091970   -0.000000
   4 H :    0.091970   -0.000000
Sum of atomic charges       :   -0.0000000
Sum of atomic spin densities:   -0.0000000

---------------------------------------------------
MULLIKEN REDUCED ORBITAL CHARGES AND SPIN DENSITIES
---------------------------------------------------
CHARGE
  0 C s       :     3.186075  s :     3.186075
      pz      :     1.039362  p :     3.118087
      px      :     1.039362
      py      :     1.039362
      dz2     :     0.004096  d :     0.063720
      dxz     :     0.018509
      dyz     :     0.018509
      dx2y2   :     0.004096
      dxy     :     0.018509
  1 H s       :     0.879772  s :     0.879772
      pz      :     0.009419  p :     0.028258
      px      :     0.009419
      py      :     0.009419
  2 H s       :     0.879772  s :     0.879772
      pz      :     0.009419  p :     0.028258
      px      :     0.009419
      py      :     0.009419
  3 H s       :     0.879772  s :     0.879772
      pz      :     0.009419  p :     0.028258
      px      :     0.009419
      py      :     0.009419
  4 H s       :     0.879772  s :     0.879772
      pz      :     0.009419  p :     0.028258
      px      :     0.009419
      py      :     0.009419

SPIN
  0 C s       :     0.000000  s :     0.000000
      pz      :     0.000000  p :     0.000000
      px      :    -0.000000
      py      :     0.000000
      dz2     :     0.000000  d :    -0.000000
      dxz     :    -0.000000
      dyz     :    -0.000000
      dx2y2   :    -0.000000
      dxy     :    -0.000000
  1 H s       :    -0.000000  s :    -0.000000
      pz      :     0.000000  p :     0.000000
      px      :    -0.000000
      py      :     0.000000
  2 H s       :    -0.000000  s :    -0.000000
      pz      :    -0.000000  p :    -0.000000
      px      :    -0.000000
      py      :    -0.000000
  3 H s       :    -0.000000  s :    -0.000000
      pz      :     0.000000  p :     0.000000
      px      :    -0.000000
      py      :     0.000000
  4 H s       :    -0.000000  s :    -0.000000
      pz      :    -0.000000  p :    -0.000000
      px      :    -0.000000
      py      :    -0.000000


                     *******************************
                     * LOEWDIN POPULATION ANALYSIS *
                     *******************************

-----------------------------------------
LOEWDIN ATOMIC CHARGES AND SPIN DENSITIES
-----------------------------------------
   0 C :   -0.014508   -0.000000
   1 H :    0.003627   -0.000000
   2 H :    0.003627   -0.000000
   3 H :    0.003627   -0.000000
   4 H :    0.003627   -0.000000

--------------------------------------------------
LOEWDIN REDUCED ORBITAL CHARGES AND SPIN DENSITIES
--------------------------------------------------
CHARGE
  0 C s       :     2.762571  s :     2.762571
      pz      :     1.051935  p :     3.155805
      px      :     1.051935
      py      :     1.051935
      dz2     :     0.003815  d :     0.096132
      dxz     :     0.029500
      dyz     :     0.029500
      dx2y2   :     0.003815
      dxy     :     0.029500
  1 H s       :     0.923739  s :     0.923739
      pz      :     0.024211  p :     0.072634
      px      :     0.024211
      py      :     0.024211
  2 H s       :     0.923739  s :     0.923739
      pz      :     0.024211  p :     0.072634
      px      :     0.024211
      py      :     0.024211
  3 H s       :     0.923739  s :     0.923739
      pz      :     0.024211  p :     0.072634
      px      :     0.024211
      py      :     0.024211
  4 H s       :     0.923739  s :     0.923739
      pz      :     0.024211  p :     0.072634
      px      :     0.024211
      py      :     0.024211

SPIN
  0 C s       :    -0.000000  s :    -0.000000
      pz      :     0.000000  p :    -0.000000
      px      :    -0.000000
      py      :     0.000000
      dz2     :     0.000000  d :    -0.000000
      dxz     :    -0.000000
      dyz     :    -0.000000
      dx2y2   :    -0.000000
      dxy     :    -0.000000
  1 H s       :    -0.000000  s :    -0.000000
      pz      :    -0.000000  p :    -0.000000
      px      :    -0.000000
      py      :     0.000000
  2 H s       :    -0.000000  s :    -0.000000
      pz      :    -0.000000  p :     0.000000
      px      :     0.000000
      py      :     0.000000
  3 H s       :    -0.000000  s :    -0.000000
      pz      :     0.000000  p :     0.000000
      px      :    -0.000000
      py      :    -0.000000
  4 H s       :    -0.000000  s :    -0.000000
      pz      :     0.000000  p :     0.000000
      px      :     0.000000
      py      :     0.000000


                      *****************************
                      * MAYER POPULATION ANALYSIS *
                      *****************************

  NA   - Mulliken gross atomic population
  ZA   - Total nuclear charge
  QA   - Mulliken gross atomic charge
  VA   - Mayer's total valence
  BVA  - Mayer's bonded valence
  FA   - Mayer's free valence

  ATOM       NA         ZA         QA         VA         BVA        FA
  0 C      6.3679     6.0000    -0.3679     4.0596     3.8066     0.2530
  1 H      0.9080     1.0000     0.0920     0.9783     0.9311     0.0473
  2 H      0.9080     1.0000     0.0920     0.9783     0.9311     0.0473
  3 H      0.9080     1.0000     0.0920     0.9783     0.9311     0.0473
  4 H      0.9080     1.0000     0.0920     0.9783     0.9311     0.0473

  Mayer bond orders larger than 0.1
B(  0-C ,  1-H ) :   0.9517 B(  0-C ,  2-H ) :   0.9517 B(  0-C ,  3-H ) :   0.9517 
B(  0-C ,  4-H ) :   0.9517 


                *******************************************
                * RELAXED MP2 DENSITY POPULATION ANALYSIS *
                *******************************************

------------------------------------------------------------------------------
                           ORCA POPULATION ANALYSIS
------------------------------------------------------------------------------
Input electron density              ... ch4.pmp2re
Input spin density                  ... ch4.rmp2re
BaseName (.gbw .S,...)              ... ch4

                    ********************************
                    * MULLIKEN POPULATION ANALYSIS *
                    ********************************

------------------------------------------
MULLIKEN ATOMIC CHARGES AND SPIN DENSITIES
------------------------------------------
   0 C :   -0.423512    0.000000
   1 H :    0.105878   -0.000000
   2 H :    0.105878   -0.000000
   3 H :    0.105878   -0.000000
   4 H :    0.105878   -0.000000
Sum of atomic charges       :   -0.0000000
Sum of atomic spin densities:   -0.0000000

---------------------------------------------------
MULLIKEN REDUCED ORBITAL CHARGES AND SPIN DENSITIES
---------------------------------------------------
CHARGE
  0 C s       :     3.194199  s :     3.194199
      pz      :     1.057223  p :     3.171670
      px      :     1.057223
      py      :     1.057223
      dz2     :     0.004096  d :     0.057643
      dxz     :     0.016484
      dyz     :     0.016484
      dx2y2   :     0.004096
      dxy     :     0.016484
  1 H s       :     0.867478  s :     0.867478
      pz      :     0.008881  p :     0.026644
      px      :     0.008881
      py      :     0.008881
  2 H s       :     0.867478  s :     0.867478
      pz      :     0.008881  p :     0.026644
      px      :     0.008881
      py      :     0.008881
  3 H s       :     0.867478  s :     0.867478
      pz      :     0.008881  p :     0.026644
      px      :     0.008881
      py      :     0.008881
  4 H s       :     0.867478  s :     0.867478
      pz      :     0.008881  p :     0.026644
      px      :     0.008881
      py      :     0.008881

SPIN
  0 C s       :     0.000000  s :     0.000000
      pz      :     0.000000  p :     0.000000
      px      :     0.000000
      py      :     0.000000
      dz2     :     0.000000  d :    -0.000000
      dxz     :    -0.000000
      dyz     :    -0.000000
      dx2y2   :    -0.000000
      dxy     :    -0.000000
  1 H s       :    -0.000000  s :    -0.000000
      pz      :    -0.000000  p :    -0.000000
      px      :    -0.000000
      py      :     0.000000
  2 H s       :    -0.000000  s :    -0.000000
      pz      :    -0.000000  p :    -0.000000
      px      :    -0.000000
      py      :    -0.000000
  3 H s       :    -0.000000  s :    -0.000000
      pz      :     0.000000  p :    -0.000000
      px      :    -0.000000
      py      :     0.000000
  4 H s       :    -0.000000  s :    -0.000000
      pz      :    -0.000000  p :    -0.000000
      px      :    -0.000000
      py      :    -0.000000


                     *******************************
                     * LOEWDIN POPULATION ANALYSIS *
                     *******************************

-----------------------------------------
LOEWDIN ATOMIC CHARGES AND SPIN DENSITIES
-----------------------------------------
   0 C :   -0.039826    0.000000
   1 H :    0.009956   -0.000000
   2 H :    0.009956   -0.000000
   3 H :    0.009956   -0.000000
   4 H :    0.009956   -0.000000

--------------------------------------------------
LOEWDIN REDUCED ORBITAL CHARGES AND SPIN DENSITIES
--------------------------------------------------
CHARGE
  0 C s       :     2.764318  s :     2.764318
      pz      :     1.062490  p :     3.187471
      px      :     1.062490
      py      :     1.062490
      dz2     :     0.003815  d :     0.088038
      dxz     :     0.026802
      dyz     :     0.026802
      dx2y2   :     0.003815
      dxy     :     0.026802
  1 H s       :     0.917104  s :     0.917104
      pz      :     0.024313  p :     0.072940
      px      :     0.024313
      py      :     0.024313
  2 H s       :     0.917104  s :     0.917104
      pz      :     0.024313  p :     0.072940
      px      :     0.024313
      py      :     0.024313
  3 H s       :     0.917104  s :     0.917104
      pz      :     0.024313  p :     0.072940
      px      :     0.024313
      py      :     0.024313
  4 H s       :     0.917104  s :     0.917104
      pz      :     0.024313  p :     0.072940
      px      :     0.024313
      py      :     0.024313

SPIN
  0 C s       :     0.000000  s :     0.000000
      pz      :     0.000000  p :     0.000000
      px      :    -0.000000
      py      :    -0.000000
      dz2     :     0.000000  d :    -0.000000
      dxz     :    -0.000000
      dyz     :    -0.000000
      dx2y2   :    -0.000000
      dxy     :    -0.000000
  1 H s       :    -0.000000  s :    -0.000000
      pz      :     0.000000  p :     0.000000
      px      :     0.000000
      py      :     0.000000
  2 H s       :    -0.000000  s :    -0.000000
      pz      :     0.000000  p :     0.000000
      px      :     0.000000
      py      :     0.000000
  3 H s       :    -0.000000  s :    -0.000000
      pz      :     0.000000  p :     0.000000
      px      :     0.000000
      py      :     0.000000
  4 H s       :    -0.000000  s :    -0.000000
      pz      :     0.000000  p :     0.000000
      px      :     0.000000
      py      :     0.000000


                      *****************************
                      * MAYER POPULATION ANALYSIS *
                      *****************************

  NA   - Mulliken gross atomic population
  ZA   - Total nuclear charge
  QA   - Mulliken gross atomic charge
  VA   - Mayer's total valence
  BVA  - Mayer's bonded valence
  FA   - Mayer's free valence

  ATOM       NA         ZA         QA         VA         BVA        FA
  0 C      6.4235     6.0000    -0.4235     4.0499     3.7974     0.2525
  1 H      0.8941     1.0000     0.1059     0.9762     0.9294     0.0468
  2 H      0.8941     1.0000     0.1059     0.9762     0.9294     0.0468
  3 H      0.8941     1.0000     0.1059     0.9762     0.9294     0.0468
  4 H      0.8941     1.0000     0.1059     0.9762     0.9294     0.0468

  Mayer bond orders larger than 0.1
B(  0-C ,  1-H ) :   0.9493 B(  0-C ,  2-H ) :   0.9493 B(  0-C ,  3-H ) :   0.9493 
B(  0-C ,  4-H ) :   0.9493 


----------------------------------
MP2 DERIVATIVE INTEGRAL GENERATION
----------------------------------


Input Wavefunction Amplitudes       ... ch4.mp2tbb.tmp
Input Correlated Electron Density   ... ch4.pmp2re
Input Energy Weighted Density       ... ch4.wmp2.tmp
Input SCF Electron Density          ... ch4.scfp.tmp

One-Electron Terms    ...
                        ... One-Electron Terms done
Prescreening matrices              ... done

Batch handling in the gradient evaluation:
Memory available                      ...  256.0 MB
Memory per occupied orbital in Q2     ...    0.1 MB
Memory per occupied orbital in Q3     ...    0.0 MB
Total memory requirement per |i>      ...    0.1 MB
Max. Number of orbitals possible      ...   1795
Number of orbitals treated per batch  ...     10
Number of batches to be done          ...      1
Batch   0: i=    0 ...     9

---------------------------------------
MP2 TOTAL ENERGY:      -40.398043196 Eh
---------------------------------------

-----------------------------------
NORM OF THE MP2 GRADIENT:  0.000000
-----------------------------------

-------------------------   --------------------
FINAL SINGLE POINT ENERGY       -40.398043195559
-------------------------   --------------------

------------------------------------------------------------------------------
                         ORCA GEOMETRY RELAXATION STEP
------------------------------------------------------------------------------

Reading the OPT-File                    .... done
Getting information on internals        .... done
Copying old internal coords+grads       .... done
Making the new internal coordinates     .... (new redundants).... done
Validating the new internal coordinates .... (new redundants).... done
Calculating the B-matrix                .... done
Calculating the G,G- and P matrices     .... done
Transforming gradient to internals      .... done
Projecting the internal gradient        .... done
Number of atoms                         ....   5
Number of internal coordinates          ....  10
Current Energy                          ....   -40.398043196 Eh
Current gradient norm                   ....     0.000000009 Eh/bohr
Maximum allowed component of the step   ....  0.300
Current trust radius                    ....  0.300
Evaluating the initial hessian          ....  (Almloef) done
Projecting the Hessian                  .... done
Forming the augmented Hessian           .... done
Diagonalizing the augmented Hessian     .... done
Last element of RFO vector              ....  1.000000000
Lowest eigenvalues of augmented Hessian:
 -0.000000000  0.290930596  0.290930596  0.290930596  0.290930596
Length of the computed step             ....  0.000000025
The final length of the internal step   ....  0.000000025
Converting the step to cartesian space:
 Initial RMS(Int)=    0.0000000080
Transforming coordinates:
 Iter   0:  RMS(Cart)=    0.0000000066 RMS(Int)=    0.0000000080
done
Storing new coordinates                 .... done

                                .--------------------.
          ----------------------|Geometry convergence|-------------------------
          Item                value                   Tolerance       Converged
          ---------------------------------------------------------------------
          RMS gradient        0.0000000029            0.0000300000      YES
          MAX gradient        0.0000000046            0.0001000000      YES
          RMS step            0.0000000080            0.0006000000      YES
          MAX step            0.0000000127            0.0010000000      YES
          ........................................................
          Max(Bonds)      0.0000      Max(Angles)    0.00
          Max(Dihed)        0.00      Max(Improp)    0.00
          ---------------------------------------------------------------------

                    ***********************HURRAY********************
                    ***        THE OPTIMIZATION HAS CONVERGED     ***
                    *************************************************


    ---------------------------------------------------------------------------
                         Redundant Internal Coordinates

                          --- Optimized Parameters ---  
                            (Angstroem and degrees)

        Definition                    OldVal   dE/dq     Step     FinalVal
    ----------------------------------------------------------------------------
     1. B(H   1,C   0)                1.0897 -0.000000  0.0000    1.0897   
     2. B(H   2,C   0)                1.0897 -0.000000  0.0000    1.0897   
     3. B(H   3,C   0)                1.0897 -0.000000  0.0000    1.0897   
     4. B(H   4,C   0)                1.0897 -0.000000  0.0000    1.0897   
     5. A(H   1,C   0,H   3)          109.47 -0.000000    0.00    109.47   
     6. A(H   2,C   0,H   3)          109.47 -0.000000    0.00    109.47   
     7. A(H   1,C   0,H   4)          109.47  0.000000   -0.00    109.47   
     8. A(H   2,C   0,H   4)          109.47 -0.000000    0.00    109.47   
     9. A(H   3,C   0,H   4)          109.47  0.000000   -0.00    109.47   
    10. A(H   1,C   0,H   2)          109.47  0.000000   -0.00    109.47   
    ----------------------------------------------------------------------------
                 *******************************************************
                 *** FINAL ENERGY EVALUATION AT THE STATIONARY POINT ***
                 ***               (AFTER    1 CYCLES)               ***
                 *******************************************************
---------------------------------
CARTESIAN COORDINATES (ANGSTROEM)
---------------------------------
  C     -0.000000   -0.000000   -0.000000
  H     -0.629155   -0.629155    0.629155
  H      0.629155   -0.629155   -0.629155
  H     -0.629155    0.629155   -0.629155
  H      0.629155    0.629155    0.629155

----------------------------
CARTESIAN COORDINATES (A.U.)
----------------------------
  NO LB      ZA    FRAG     MASS         X           Y           Z
   0 C     6.0000    0    12.011   -0.000000   -0.000000   -0.000000
   1 H     1.0000    0     1.008   -1.188931   -1.188931    1.188931
   2 H     1.0000    0     1.008    1.188931   -1.188931   -1.188931
   3 H     1.0000    0     1.008   -1.188931    1.188931   -1.188931
   4 H     1.0000    0     1.008    1.188931    1.188931    1.188931

--------------------------------
INTERNAL COORDINATES (ANGSTROEM)
--------------------------------
 C      0   0   0     0.000000000000     0.00000000     0.00000000
 H      1   0   0     1.089728432559     0.00000000     0.00000000
 H      1   2   0     1.089728432559   109.47122063     0.00000000
 H      1   2   3     1.089728432548   109.47122063   120.00000000
 H      1   2   3     1.089728432556   109.47122063   240.00000000

---------------------------
INTERNAL COORDINATES (A.U.)
---------------------------
 C      0   0   0     0.000000000000     0.00000000     0.00000000
 H      1   0   0     2.059288297884     0.00000000     0.00000000
 H      1   2   0     2.059288297884   109.47122063     0.00000000
 H      1   2   3     2.059288297863   109.47122063   120.00000000
 H      1   2   3     2.059288297879   109.47122063   240.00000000

---------------------
BASIS SET INFORMATION
---------------------
There are 2 groups of distinct atoms

 Group   1 Type C   : 11s5p1d contracted to 4s3p1d pattern {6311/311/1}
 Group   2 Type H   : 5s1p contracted to 3s1p pattern {311/1}

Atom   0C    basis set group =>   1
Atom   1H    basis set group =>   2
Atom   2H    basis set group =>   2
Atom   3H    basis set group =>   2
Atom   4H    basis set group =>   2


           ************************************************************
           *        Program running with 4 parallel MPI-processes     *
           *              working on a common directory               *
           ************************************************************
------------------------------------------------------------------------------
                           ORCA GTO INTEGRAL CALCULATION
------------------------------------------------------------------------------

                         BASIS SET STATISTICS AND STARTUP INFO

 # of primitive gaussian shells          ...   41
 # of primitive gaussian functions       ...   63
 # of contracted shells                  ...   24
 # of contracted basis functions         ...   42
 Highest angular momentum                ...    2
 Maximum contraction depth               ...    6
 Integral package used                   ... LIBINT
 Integral threshhold            Thresh   ...  2.500e-11
 Primitive cut-off              TCut     ...  2.500e-12


------------------------------ INTEGRAL EVALUATION ----------------------------


 * One electron integrals 
 Pre-screening matrix                    ... done
 Shell pair data                         ... done (   0.000 sec)



           ************************************************************
           *        Program running with 4 parallel MPI-processes     *
           *              working on a common directory               *
           ************************************************************
-------------------------------------------------------------------------------
                                 ORCA SCF
-------------------------------------------------------------------------------

------------
SCF SETTINGS
------------
Hamiltonian:
 Ab initio Hamiltonian  Method          .... Hartree-Fock(GTOs)


General Settings:
 Integral files         IntName         .... ch4
 Hartree-Fock type      HFTyp           .... UHF
 Total Charge           Charge          ....    0
 Multiplicity           Mult            ....    1
 Number of Electrons    NEL             ....   10
 Basis Dimension        Dim             ....   42
 Nuclear Repulsion      ENuc            ....     13.4387373748 Eh

Convergence Acceleration:
 DIIS                   CNVDIIS         .... on
   Start iteration      DIISMaxIt       ....    12
   Startup error        DIISStart       ....  0.200000
   # of expansion vecs  DIISMaxEq       ....     5
   Bias factor          DIISBfac        ....   1.050
   Max. coefficient     DIISMaxC        ....  10.000
 Newton-Raphson         CNVNR           .... off
 SOSCF                  CNVSOSCF        .... off
 Level Shifting         CNVShift        .... on
   Level shift para.    LevelShift      ....    0.2500
   Turn off err/grad.   ShiftErr        ....    0.0010
 Zerner damping         CNVZerner       .... off
 Static damping         CNVDamp         .... on
   Fraction old density DampFac         ....    0.7000
   Max. Damping (<1)    DampMax         ....    0.9800
   Min. Damping (>=0)   DampMin         ....    0.0000
   Turn off err/grad.   DampErr         ....    0.1000
 Fernandez-Rico         CNVRico         .... off

SCF Procedure:
 Maximum # iterations   MaxIter         ....   125
 SCF integral mode      SCFMode         .... Direct
   Integral package                     .... LIBINT
 Reset frequency        DirectResetFreq ....    20
 Integral Threshold     Thresh          ....  2.500e-11 Eh
 Primitive CutOff       TCut            ....  2.500e-12 Eh

Convergence Tolerance:
 Convergence Check Mode ConvCheckMode   .... Total+1el-Energy
 Convergence forced     ConvForced      .... 1
 Energy Change          TolE            ....  1.000e-08 Eh
 1-El. energy change                    ....  1.000e-05 Eh
 DIIS Error             TolErr          ....  5.000e-07


Diagonalization of the overlap matrix:
Smallest eigenvalue                        ... 1.279e-02
Time for diagonalization                   ...    0.001 sec
Threshold for overlap eigenvalues          ... 1.000e-08
Number of eigenvalues below threshold      ... 0
Time for construction of square roots      ...    0.000 sec
Total time needed                          ...    0.002 sec

---------------------
INITIAL GUESS: MOREAD
---------------------
Guess MOs are being read from file: ch4.gbw
Input Geometry matches current geometry (good)
Input basis set matches current basis set (good)
MOs were renormalized
MOs were reorthogonalized (Cholesky)
                      ------------------
                      INITIAL GUESS DONE (   0.0 sec)
                      ------------------
--------------
SCF ITERATIONS
--------------
ITER       Energy         Delta-E        Max-DP      RMS-DP      [F,P]     Damp
               ***  Starting incremental Fock matrix formation  ***
  0    -40.2089311875   0.000000000000 0.00000004  0.00000000  0.0000000 0.7000
                 **** Energy Check signals convergence ****

               *****************************************************
               *                     SUCCESS                       *
               *           SCF CONVERGED AFTER   1 CYCLES          *
               *****************************************************


----------------
TOTAL SCF ENERGY
----------------

Total Energy       :          -40.20893119 Eh           -1094.14064 eV

Components:
Nuclear Repulsion  :           13.43873737 Eh             365.68664 eV
Electronic Energy  :          -53.64766856 Eh           -1459.82728 eV
One Electron Energy:          -79.72632889 Eh           -2169.46370 eV
Two Electron Energy:           26.07866032 Eh             709.63642 eV

Virial components:
Potential Energy   :          -80.36501721 Eh           -2186.84330 eV
Kinetic Energy     :           40.15608602 Eh            1092.70265 eV
Virial Ratio       :            2.00131599


---------------
SCF CONVERGENCE
---------------

  Last Energy change         ...   -6.1931e-11  Tolerance :   1.0000e-08
  Last MAX-Density change    ...    3.7895e-08  Tolerance :   1.0000e-07
  Last RMS-Density change    ...    2.2352e-09  Tolerance :   5.0000e-09
  Last DIIS Error            ...    3.4606e-08  Tolerance :   5.0000e-07

             **** THE GBW FILE WAS UPDATED (ch4.gbw) ****
             **** DENSITY FILE WAS UPDATED (ch4.scfp.tmp) ****
             **** ENERGY FILE WAS UPDATED (ch4.en.tmp) ****
----------------------
UHF SPIN CONTAMINATION
----------------------

Expectation value of <S**2>     :     0.000000
Ideal value S*(S+1) for S=0.0   :     0.000000
Deviation                       :     0.000000

----------------
ORBITAL ENERGIES
----------------
                 SPIN UP ORBITALS
  NO   OCC          E(Eh)            E(eV) 
   0   1.0000     -11.207722      -304.9776 
   1   1.0000      -0.942745       -25.6534 
   2   1.0000      -0.544679       -14.8215 
   3   1.0000      -0.544679       -14.8215 
   4   1.0000      -0.544679       -14.8215 
   5   0.0000       0.161718         4.4006 
   6   0.0000       0.237053         6.4505 
   7   0.0000       0.237053         6.4505 
   8   0.0000       0.237053         6.4505 
   9   0.0000       0.427116        11.6224 
  10   0.0000       0.427116        11.6224 
  11   0.0000       0.427116        11.6224 
  12   0.0000       0.753196        20.4955 
  13   0.0000       0.812067        22.0975 
  14   0.0000       0.812067        22.0975 
  15   0.0000       0.812067        22.0975 
  16   0.0000       0.936099        25.4725 
  17   0.0000       1.202073        32.7101 
  18   0.0000       1.202073        32.7101 
  19   0.0000       1.720827        46.8261 
  20   0.0000       1.720827        46.8261 
  21   0.0000       1.720827        46.8261 
  22   0.0000       1.723695        46.9041 
  23   0.0000       1.723695        46.9041 
  24   0.0000       1.723695        46.9041 
  25   0.0000       2.180585        59.3367 
  26   0.0000       2.180585        59.3367 
  27   0.0000       2.180585        59.3367 
  28   0.0000       2.521492        68.6133 
  29   0.0000       2.621506        71.3348 
  30   0.0000       2.621506        71.3348 
  31   0.0000       2.702099        73.5279 
  32   0.0000       2.702099        73.5279 
  33   0.0000       2.702099        73.5279 
  34   0.0000       2.901544        78.9550 
  35   0.0000       2.901544        78.9550 
  36   0.0000       2.901544        78.9550 
  37   0.0000       3.188544        86.7647 
  38   0.0000       4.192141       114.0740 
  39   0.0000       4.192141       114.0740 
  40   0.0000       4.192141       114.0740 
  41   0.0000      25.158294       684.5920 

                 SPIN DOWN ORBITALS
  NO   OCC          E(Eh)            E(eV) 
   0   1.0000     -11.207722      -304.9776 
   1   1.0000      -0.942745       -25.6534 
   2   1.0000      -0.544679       -14.8215 
   3   1.0000      -0.544679       -14.8215 
   4   1.0000      -0.544679       -14.8215 
   5   0.0000       0.161718         4.4006 
   6   0.0000       0.237053         6.4505 
   7   0.0000       0.237053         6.4505 
   8   0.0000       0.237053         6.4505 
   9   0.0000       0.427116        11.6224 
  10   0.0000       0.427116        11.6224 
  11   0.0000       0.427116        11.6224 
  12   0.0000       0.753196        20.4955 
  13   0.0000       0.812067        22.0975 
  14   0.0000       0.812067        22.0975 
  15   0.0000       0.812067        22.0975 
  16   0.0000       0.936099        25.4725 
  17   0.0000       1.202073        32.7101 
  18   0.0000       1.202073        32.7101 
  19   0.0000       1.720827        46.8261 
  20   0.0000       1.720827        46.8261 
  21   0.0000       1.720827        46.8261 
  22   0.0000       1.723695        46.9041 
  23   0.0000       1.723695        46.9041 
  24   0.0000       1.723695        46.9041 
  25   0.0000       2.180585        59.3367 
  26   0.0000       2.180585        59.3367 
  27   0.0000       2.180585        59.3367 
  28   0.0000       2.521492        68.6133 
  29   0.0000       2.621506        71.3348 
  30   0.0000       2.621506        71.3348 
  31   0.0000       2.702099        73.5279 
  32   0.0000       2.702099        73.5279 
  33   0.0000       2.702099        73.5279 
  34   0.0000       2.901544        78.9550 
  35   0.0000       2.901544        78.9550 
  36   0.0000       2.901544        78.9550 
  37   0.0000       3.188544        86.7647 
  38   0.0000       4.192141       114.0740 
  39   0.0000       4.192141       114.0740 
  40   0.0000       4.192141       114.0740 
  41   0.0000      25.158294       684.5920 

                    ********************************
                    * MULLIKEN POPULATION ANALYSIS *
                    ********************************

--------------------------------------------
MULLIKEN ATOMIC CHARGES AND SPIN POPULATIONS
--------------------------------------------
   0 C :   -0.361413    0.000000
   1 H :    0.090353    0.000000
   2 H :    0.090353    0.000000
   3 H :    0.090353    0.000000
   4 H :    0.090353    0.000000
Sum of atomic charges         :   -0.0000000
Sum of atomic spin populations:    0.0000000

-----------------------------------------------------
MULLIKEN REDUCED ORBITAL CHARGES AND SPIN POPULATIONS
-----------------------------------------------------
CHARGE
  0 C s       :     3.188101  s :     3.188101
      pz      :     1.042622  p :     3.127865
      px      :     1.042622
      py      :     1.042622
      dz2     :     0.000000  d :     0.045448
      dxz     :     0.015149
      dyz     :     0.015149
      dx2y2   :     0.000000
      dxy     :     0.015149
  1 H s       :     0.884647  s :     0.884647
      pz      :     0.008333  p :     0.025000
      px      :     0.008333
      py      :     0.008333
  2 H s       :     0.884647  s :     0.884647
      pz      :     0.008333  p :     0.025000
      px      :     0.008333
      py      :     0.008333
  3 H s       :     0.884647  s :     0.884647
      pz      :     0.008333  p :     0.025000
      px      :     0.008333
      py      :     0.008333
  4 H s       :     0.884647  s :     0.884647
      pz      :     0.008333  p :     0.025000
      px      :     0.008333
      py      :     0.008333

SPIN
  0 C s       :     0.000000  s :     0.000000
      pz      :     0.000000  p :     0.000000
      px      :     0.000000
      py      :     0.000000
      dz2     :     0.000000  d :     0.000000
      dxz     :     0.000000
      dyz     :     0.000000
      dx2y2   :     0.000000
      dxy     :     0.000000
  1 H s       :     0.000000  s :     0.000000
      pz      :     0.000000  p :     0.000000
      px      :     0.000000
      py      :     0.000000
  2 H s       :     0.000000  s :     0.000000
      pz      :     0.000000  p :     0.000000
      px      :     0.000000
      py      :     0.000000
  3 H s       :     0.000000  s :     0.000000
      pz      :     0.000000  p :     0.000000
      px      :     0.000000
      py      :     0.000000
  4 H s       :     0.000000  s :     0.000000
      pz      :     0.000000  p :     0.000000
      px      :     0.000000
      py      :     0.000000


                     *******************************
                     * LOEWDIN POPULATION ANALYSIS *
                     *******************************

-------------------------------------------
LOEWDIN ATOMIC CHARGES AND SPIN POPULATIONS
-------------------------------------------
   0 C :   -0.012414    0.000000
   1 H :    0.003104    0.000000
   2 H :    0.003104    0.000000
   3 H :    0.003104    0.000000
   4 H :    0.003104    0.000000

----------------------------------------------------
LOEWDIN REDUCED ORBITAL CHARGES AND SPIN POPULATIONS
----------------------------------------------------
CHARGE
  0 C s       :     2.763794  s :     2.763794
      pz      :     1.057305  p :     3.171916
      px      :     1.057305
      py      :     1.057305
      dz2     :    -0.000000  d :     0.076705
      dxz     :     0.025568
      dyz     :     0.025568
      dx2y2   :    -0.000000
      dxy     :     0.025568
  1 H s       :     0.930031  s :     0.930031
      pz      :     0.022288  p :     0.066865
      px      :     0.022288
      py      :     0.022288
  2 H s       :     0.930031  s :     0.930031
      pz      :     0.022288  p :     0.066865
      px      :     0.022288
      py      :     0.022288
  3 H s       :     0.930031  s :     0.930031
      pz      :     0.022288  p :     0.066865
      px      :     0.022288
      py      :     0.022288
  4 H s       :     0.930031  s :     0.930031
      pz      :     0.022288  p :     0.066865
      px      :     0.022288
      py      :     0.022288

SPIN
  0 C s       :     0.000000  s :     0.000000
      pz      :     0.000000  p :     0.000000
      px      :     0.000000
      py      :     0.000000
      dz2     :     0.000000  d :     0.000000
      dxz     :     0.000000
      dyz     :     0.000000
      dx2y2   :     0.000000
      dxy     :     0.000000
  1 H s       :     0.000000  s :     0.000000
      pz      :     0.000000  p :     0.000000
      px      :     0.000000
      py      :     0.000000
  2 H s       :     0.000000  s :     0.000000
      pz      :     0.000000  p :     0.000000
      px      :     0.000000
      py      :     0.000000
  3 H s       :     0.000000  s :     0.000000
      pz      :     0.000000  p :     0.000000
      px      :     0.000000
      py      :     0.000000
  4 H s       :     0.000000  s :     0.000000
      pz      :     0.000000  p :     0.000000
      px      :     0.000000
      py      :     0.000000


                      *****************************
                      * MAYER POPULATION ANALYSIS *
                      *****************************

  NA   - Mulliken gross atomic population
  ZA   - Total nuclear charge
  QA   - Mulliken gross atomic charge
  VA   - Mayer's total valence
  BVA  - Mayer's bonded valence
  FA   - Mayer's free valence

  ATOM       NA         ZA         QA         VA         BVA        FA
  0 C      6.3614     6.0000    -0.3614     3.9545     3.9545     0.0000
  1 H      0.9096     1.0000     0.0904     0.9685     0.9685     0.0000
  2 H      0.9096     1.0000     0.0904     0.9685     0.9685     0.0000
  3 H      0.9096     1.0000     0.0904     0.9685     0.9685     0.0000
  4 H      0.9096     1.0000     0.0904     0.9685     0.9685     0.0000

  Mayer bond orders larger than 0.1
B(  0-C ,  1-H ) :   0.9886 B(  0-C ,  2-H ) :   0.9886 B(  0-C ,  3-H ) :   0.9886 
B(  0-C ,  4-H ) :   0.9886 

-------
TIMINGS
-------

Total SCF time: 0 days 0 hours 0 min 2 sec 

Total time                  ....       2.207 sec
Sum of individual times     ....       1.318 sec  ( 59.7%)

Fock matrix formation       ....       1.120 sec  ( 50.8%)
Diagonalization             ....       0.020 sec  (  0.9%)
Density matrix formation    ....       0.012 sec  (  0.5%)
Population analysis         ....       0.150 sec  (  6.8%)
Initial guess               ....       0.015 sec  (  0.7%)
Orbital Transformation      ....       0.000 sec  (  0.0%)
Orbital Orthonormalization  ....       0.011 sec  (  0.5%)
DIIS solution               ....       0.000 sec  (  0.0%)


           ************************************************************
           *        Program running with 4 parallel MPI-processes     *
           *              working on a common directory               *
           ************************************************************

------------------------------------------------------------------------------
                                ORCA  MP2 
------------------------------------------------------------------------------

MP2 will be done in the AO integral direct mode
The Q1-step will be done using symmetric double matrices
Dimension of the basis                    ...   42
Memory devoted for MP2                    ...  256 MB   
Memory needed for all in one shot         ...    2 MB
Number of MOs that can be treated together...  883      
MP2 density construction                  ... relaxed
The MP2 gradient is requested => amplitudes will be stored on disk
Total number of MOs              ...    5
Number of MOs treated per batch  ...    2 
Number of batches necessary      ...    1 
OPERATORS   0/  0 PASS   0
OPERATORS   0/  1 PASS   0
Total number of MOs              ...    5
Number of MOs treated per batch  ...    2 
Number of batches necessary      ...    1 
OPERATORS   1/  0 PASS   0
OPERATORS   1/  1 PASS   0

Correlation energy components
 E2 and T2 for alpha/alpha pairs :     -0.016999844 Eh
 E2 and T2 for beta/beta   pairs :     -0.016999844 Eh
 E2 and T2 for alpha/beta  pairs :     -0.155111803 Eh

-----------------------------------------------
 MP2 CORRELATION ENERGY   :     -0.189111490 Eh
-----------------------------------------------


---------------------
MP2 DENSITY FORMATION
---------------------

Completing the external part of the density      ... done
Storing the unrelaxed density                    ... done

Calculating G(D)                                 ... done
Completing the Lagrangian                        ... done
Solving the Z-vector equations                   ... 

------------------------------------------------------------------------------
                           ORCA CP-SCF CALCULATION
------------------------------------------------------------------------------

Input orbitals are from        ... ch4.gbw
Input Perturbation             ... ch4.pin.tmp
Wavefunction output            ... ch4.pout.tmp
Perturbation mode              ... Real perturbation (singlet)
Solver                         ... POPLE
Max. number of iterations      ... 128
Convergence tolerance          ... 1.000e-08
Integral handling              ... Direct
Number of perturbations        ... 1
Number of operators            ... 2
Orbital ranges used for CP-SCF:
 Operator 0:  Orbitals   0...  4  to   5... 41
 Operator 1:  Orbitals   0...  4  to   5... 41
Variables per vector in CP-SCF ... 370
Number of vectors sought       ... 1
     CP-SCF ITERATION   0: 
     CP-SCF ITERATION   1:      0.000005992376
     CP-SCF ITERATION   2:      0.000000057637
     CP-SCF ITERATION   3:      0.000000000203
                                                 ... done
Finalizing the relaxed density                   ... done
Transforming P to the AO basis                   ... done
Storing the relaxed density                      ... done

------------------------------------
ENERGY WEIGHTED DENSITY FINALIZATION
------------------------------------

Gathering the parts of the W-matrix              ...                                                                                                           done
Forming the Z-density                            ... done
Transforming Z to the AO basis                   ... done
Calculating G(Z)                                 ... done
Finalizing the W-matrix                          ...                                                                                                           done
Transforming W to the AO basis and storing       ... done

                *********************************************
                * UNRELAXED MP2 DENSITY POPULATION ANALYSIS *
                *********************************************

------------------------------------------------------------------------------
                           ORCA POPULATION ANALYSIS
------------------------------------------------------------------------------
Input electron density              ... ch4.pmp2ur
Input spin density                  ... ch4.rmp2ur
BaseName (.gbw .S,...)              ... ch4

                    ********************************
                    * MULLIKEN POPULATION ANALYSIS *
                    ********************************

------------------------------------------
MULLIKEN ATOMIC CHARGES AND SPIN DENSITIES
------------------------------------------
   0 C :   -0.367880    0.000000
   1 H :    0.091970   -0.000000
   2 H :    0.091970    0.000000
   3 H :    0.091970   -0.000000
   4 H :    0.091970   -0.000000
Sum of atomic charges       :   -0.0000000
Sum of atomic spin densities:   -0.0000000

---------------------------------------------------
MULLIKEN REDUCED ORBITAL CHARGES AND SPIN DENSITIES
---------------------------------------------------
CHARGE
  0 C s       :     3.186074  s :     3.186074
      pz      :     1.039362  p :     3.118086
      px      :     1.039362
      py      :     1.039362
      dz2     :     0.004096  d :     0.063720
      dxz     :     0.018509
      dyz     :     0.018509
      dx2y2   :     0.004096
      dxy     :     0.018509
  1 H s       :     0.879772  s :     0.879772
      pz      :     0.009419  p :     0.028258
      px      :     0.009419
      py      :     0.009419
  2 H s       :     0.879772  s :     0.879772
      pz      :     0.009419  p :     0.028258
      px      :     0.009419
      py      :     0.009419
  3 H s       :     0.879772  s :     0.879772
      pz      :     0.009419  p :     0.028258
[...]


                     *******************************
                     * LOEWDIN POPULATION ANALYSIS *
                     *******************************

-----------------------------------------
LOEWDIN ATOMIC CHARGES AND SPIN DENSITIES
-----------------------------------------
   0 C :   -0.039826   -0.000000
   1 H :    0.009956   -0.000000
   2 H :    0.009956    0.000000
   3 H :    0.009956    0.000000
   4 H :    0.009956    0.000000

--------------------------------------------------
LOEWDIN REDUCED ORBITAL CHARGES AND SPIN DENSITIES
--------------------------------------------------
CHARGE
  0 C s       :     2.764318  s :     2.764318
      pz      :     1.062490  p :     3.187471
      px      :     1.062490
      py      :     1.062490
      dz2     :     0.003815  d :     0.088038
      dxz     :     0.026802
      dyz     :     0.026802
      dx2y2   :     0.003815
      dxy     :     0.026802
  1 H s       :     0.917104  s :     0.917104
      pz      :     0.024313  p :     0.072940
      px      :     0.024313
      py      :     0.024313
  2 H s       :     0.917104  s :     0.917104
      pz      :     0.024313  p :     0.072940
      px      :     0.024313
      py      :     0.024313
  3 H s       :     0.917104  s :     0.917104
      pz      :     0.024313  p :     0.072940
      px      :     0.024313
      py      :     0.024313
  4 H s       :     0.917104  s :     0.917104
      pz      :     0.024313  p :     0.072940
      px      :     0.024313
      py      :     0.024313

SPIN
  0 C s       :    -0.000000  s :    -0.000000
      pz      :    -0.000000  p :    -0.000000
      px      :    -0.000000
      py      :    -0.000000
      dz2     :    -0.000000  d :     0.000000
      dxz     :    -0.000000
      dyz     :     0.000000
      dx2y2   :     0.000000
      dxy     :     0.000000
  1 H s       :    -0.000000  s :    -0.000000
      pz      :    -0.000000  p :    -0.000000
      px      :    -0.000000
      py      :    -0.000000
  2 H s       :     0.000000  s :     0.000000
      pz      :    -0.000000  p :    -0.000000
      px      :    -0.000000
      py      :    -0.000000
  3 H s       :     0.000000  s :     0.000000
      pz      :     0.000000  p :     0.000000
      px      :    -0.000000
      py      :     0.000000
  4 H s       :     0.000000  s :     0.000000
      pz      :    -0.000000  p :    -0.000000
      px      :    -0.000000
      py      :    -0.000000


                      *****************************
                      * MAYER POPULATION ANALYSIS *
                      *****************************

  NA   - Mulliken gross atomic population
  ZA   - Total nuclear charge
  QA   - Mulliken gross atomic charge
  VA   - Mayer's total valence
  BVA  - Mayer's bonded valence
  FA   - Mayer's free valence

  ATOM       NA         ZA         QA         VA         BVA        FA
  0 C      6.4235     6.0000    -0.4235     4.0499     3.7974     0.2525
  1 H      0.8941     1.0000     0.1059     0.9762     0.9294     0.0468
  2 H      0.8941     1.0000     0.1059     0.9762     0.9294     0.0468
  3 H      0.8941     1.0000     0.1059     0.9762     0.9294     0.0468
  4 H      0.8941     1.0000     0.1059     0.9762     0.9294     0.0468

  Mayer bond orders larger than 0.1
B(  0-C ,  1-H ) :   0.9493 B(  0-C ,  2-H ) :   0.9493 B(  0-C ,  3-H ) :   0.9493 
B(  0-C ,  4-H ) :   0.9493 


----------------------------------
MP2 DERIVATIVE INTEGRAL GENERATION
----------------------------------


Input Wavefunction Amplitudes       ... ch4.mp2tbb.tmp
Input Correlated Electron Density   ... ch4.pmp2re
Input Energy Weighted Density       ... ch4.wmp2.tmp
Input SCF Electron Density          ... ch4.scfp.tmp

One-Electron Terms    ...
                        ... One-Electron Terms done
Prescreening matrices              ... done

Batch handling in the gradient evaluation:
Memory available                      ...  256.0 MB
Memory per occupied orbital in Q2     ...    0.1 MB
Memory per occupied orbital in Q3     ...    0.0 MB
Total memory requirement per |i>      ...    0.1 MB
Max. Number of orbitals possible      ...   1795
Number of orbitals treated per batch  ...     10
Number of batches to be done          ...      1
Batch   0: i=    0 ...     9

---------------------------------------
MP2 TOTAL ENERGY:      -40.398042678 Eh
---------------------------------------

-----------------------------------
NORM OF THE MP2 GRADIENT:  0.000000
-----------------------------------

-------------------------   --------------------
FINAL SINGLE POINT ENERGY       -40.398042677937
-------------------------   --------------------

                                *** OPTIMIZATION RUN DONE ***

                            ***************************************
                            *     ORCA property calculations      *
                            ***************************************

                                    ---------------------
                                    Active property flags
                                    ---------------------
   (+) Dipole Moment


------------------------------------------------------------------------------
                       ORCA ELECTRIC PROPERTIES CALCULATION
------------------------------------------------------------------------------

Dipole Moment Calculation                       ... on
Quadrupole Moment Calculation                   ... off
Polarizability Calculation                      ... off
GBWName                                         ... ch4.gbw
Electron density file                           ... ch4.scfp.tmp
The origin for moment calculation is the CENTER OF MASS  = (-0.000000, -0.000000 -0.000000)

-------------
DIPOLE MOMENT
-------------
                                X             Y             Z
Electronic contribution:     -0.00000      -0.00000      -0.00000
Nuclear contribution   :      0.00000       0.00000       0.00000
                        -----------------------------------------
Total Dipole Moment    :      0.00000       0.00000       0.00000
                        -----------------------------------------
Magnitude (a.u.)       :      0.00000
Magnitude (Debye)      :      0.00000



--------------------
Rotational spectrum 
--------------------
 
Rotational constants in cm-1:     5.281181     5.281181     5.281181 
Rotational constants in MHz : 158325.830487 158325.830486 158325.830484 

 Dipole components along the rotational axes: 
x,y,z [a.u.] :     0.000000     0.000000     0.000000 
x,y,z [Debye]:     0.000000     0.000000     0.000000 

 

                         *** MP2 UNRELAXED DENSITY ***

------------------------------------------------------------------------------
                       ORCA ELECTRIC PROPERTIES CALCULATION
------------------------------------------------------------------------------

Dipole Moment Calculation                       ... on
Quadrupole Moment Calculation                   ... off
Polarizability Calculation                      ... off
GBWName                                         ... ch4.gbw
Electron density file                           ... ch4.pmp2ur
The origin for moment calculation is the CENTER OF MASS  = (-0.000000, -0.000000 -0.000000)

-------------
DIPOLE MOMENT
-------------
                                X             Y             Z
Electronic contribution:     -0.00000      -0.00000      -0.00000
Nuclear contribution   :      0.00000       0.00000       0.00000
                        -----------------------------------------
Total Dipole Moment    :     -0.00000       0.00000       0.00000
                        -----------------------------------------
Magnitude (a.u.)       :      0.00000
Magnitude (Debye)      :      0.00000



--------------------
Rotational spectrum 
--------------------
 
Rotational constants in cm-1:     5.281181     5.281181     5.281181 
Rotational constants in MHz : 158325.830487 158325.830486 158325.830484 

 Dipole components along the rotational axes: 
x,y,z [a.u.] :     0.000000     0.000000     0.000000 
x,y,z [Debye]:     0.000000     0.000000     0.000000 

 

                           *** MP2 RELAXED DENSITY ***

------------------------------------------------------------------------------
                       ORCA ELECTRIC PROPERTIES CALCULATION
------------------------------------------------------------------------------

Dipole Moment Calculation                       ... on
Quadrupole Moment Calculation                   ... off
Polarizability Calculation                      ... off
GBWName                                         ... ch4.gbw
Electron density file                           ... ch4.pmp2re
The origin for moment calculation is the CENTER OF MASS  = (-0.000000, -0.000000 -0.000000)

-------------
DIPOLE MOMENT
-------------
                                X             Y             Z
Electronic contribution:     -0.00000      -0.00000      -0.00000
Nuclear contribution   :      0.00000       0.00000       0.00000
                        -----------------------------------------
Total Dipole Moment    :      0.00000       0.00000       0.00000
                        -----------------------------------------
Magnitude (a.u.)       :      0.00000
Magnitude (Debye)      :      0.00000



--------------------
Rotational spectrum 
--------------------
 
Rotational constants in cm-1:     5.281181     5.281181     5.281181 
Rotational constants in MHz : 158325.830487 158325.830486 158325.830484 

 Dipole components along the rotational axes: 
x,y,z [a.u.] :     0.000000     0.000000     0.000000 
x,y,z [Debye]:     0.000000     0.000000     0.000000 

 
------------------------------------------------------------------------------
                         ORCA MP2 H E S S I A N CALCULATION
------------------------------------------------------------------------------

Calculating analytic MP2 second derivatives ... (>ch4.last_mp2) done

-----------------------
VIBRATIONAL FREQUENCIES
-----------------------

Scaling factor for frequencies =  1.000000000  (already applied!)

   0:         0.00 cm**-1
   1:         0.00 cm**-1
   2:         0.00 cm**-1
   3:         0.00 cm**-1
   4:         0.00 cm**-1
   5:         0.00 cm**-1
   6:      1362.83 cm**-1
   7:      1362.83 cm**-1
   8:      1362.83 cm**-1
   9:      1579.19 cm**-1
  10:      1579.19 cm**-1
  11:      3081.73 cm**-1
  12:      3219.97 cm**-1
  13:      3219.97 cm**-1
  14:      3219.97 cm**-1


------------
NORMAL MODES
------------

These modes are the Cartesian displacements weighted by the diagonal matrix
M(i,i)=1/sqrt(m[i]) where m[i] is the mass of the displaced atom
Thus, these vectors are normalized but *not* orthogonal

                  0          1          2          3          4          5    
      0       0.000000   0.000000   0.000000   0.000000   0.000000   0.000000
      1       0.000000   0.000000   0.000000   0.000000   0.000000   0.000000
      2       0.000000   0.000000   0.000000   0.000000   0.000000   0.000000
      3       0.000000   0.000000   0.000000   0.000000   0.000000   0.000000
      4       0.000000   0.000000   0.000000   0.000000   0.000000   0.000000
      5       0.000000   0.000000   0.000000   0.000000   0.000000   0.000000
      6       0.000000   0.000000   0.000000   0.000000   0.000000   0.000000
      7       0.000000   0.000000   0.000000   0.000000   0.000000   0.000000
      8       0.000000   0.000000   0.000000   0.000000   0.000000   0.000000
      9       0.000000   0.000000   0.000000   0.000000   0.000000   0.000000
     10       0.000000   0.000000   0.000000   0.000000   0.000000   0.000000
     11       0.000000   0.000000   0.000000   0.000000   0.000000   0.000000
     12       0.000000   0.000000   0.000000   0.000000   0.000000   0.000000
     13       0.000000   0.000000   0.000000   0.000000   0.000000   0.000000
     14       0.000000   0.000000   0.000000   0.000000   0.000000   0.000000
                  6          7          8          9         10         11    
      0       0.041572  -0.075516  -0.089949   0.000000  -0.000000   0.000000
      1      -0.072136  -0.091717   0.043661   0.000000  -0.000000   0.000000
      2      -0.092682   0.037511  -0.074328  -0.000000  -0.000000  -0.000000
      3      -0.085450  -0.016503   0.488411   0.059354   0.403911  -0.288675
      4       0.465738   0.062026  -0.159250  -0.379474  -0.150553  -0.288675
      5       0.333199   0.200729   0.307905  -0.320120   0.253358   0.288675
      6       0.184119   0.326239   0.325251  -0.059354  -0.403911   0.288675
      7      -0.035966   0.484407  -0.100877  -0.379474  -0.150553  -0.288675
      8       0.063631  -0.142013   0.471066   0.320120  -0.253358  -0.288675
      9      -0.162231   0.466418   0.047489   0.059354   0.403911  -0.288675
     10       0.310384   0.344228   0.176886   0.379474   0.150553   0.288675
     11       0.488554  -0.081474  -0.028230   0.320120  -0.253358  -0.288675
     12      -0.431799   0.123676   0.210649  -0.059354  -0.403911   0.288675
     13       0.119388   0.202204  -0.437012   0.379474   0.150553   0.288675
     14       0.218986  -0.424215   0.134930  -0.320120   0.253358   0.288675
                  12         13         14    
      0       0.018169  -0.084685  -0.032357
      1      -0.035331  -0.037006   0.077012
      2       0.083488   0.002769   0.039633
      3       0.322745   0.378427  -0.022172
      4       0.312426   0.387623  -0.001078
      5      -0.303138  -0.394226   0.023576
      6       0.098618   0.143679   0.466362
      7      -0.101928  -0.167150  -0.457749
      8      -0.079011  -0.159478  -0.464959
      9      -0.430994   0.126112   0.214949
     10       0.427684  -0.149583  -0.206336
     11      -0.418395   0.142979   0.228834
     12      -0.206867   0.360860  -0.273585
     13      -0.217186   0.370056  -0.252491
     14      -0.194269   0.377727  -0.259701


-----------
IR SPECTRUM
-----------

 Mode    freq (cm**-1)   T**2         TX         TY         TZ
-------------------------------------------------------------------
   6:      1362.83   14.364826  ( -1.264689   2.194466   2.819523)
   7:      1362.83   14.364826  (  2.297318   2.790149  -1.141149)
   8:      1362.83   14.364826  (  2.736369  -1.328236   2.261172)
   9:      1579.19    0.000000  ( -0.000000  -0.000000   0.000000)
  10:      1579.19    0.000000  (  0.000000   0.000000   0.000000)
  11:      3081.73    0.000000  (  0.000000   0.000000  -0.000000)
  12:      3219.97   21.196911  (  0.904740  -1.759329   4.157297)
  13:      3219.97   21.196911  ( -4.216911  -1.842704   0.137898)
  14:      3219.97   21.196911  ( -1.611217   3.834855   1.973519)

The first frequency considered to be a vibration is 6
The total number of vibrations considered is 9


--------------------------
THERMOCHEMISTRY AT 298.15K
--------------------------

Temperature         ... 298.15 K
Pressure            ... 1.00 atm
Total Mass          ... 16.04 AMU

Throughout the following assumptions are being made:
  (1) The electronic state is orbitally nondegenerate
  (2) There are no thermally accessible electronically excited states
  (3) Hindered rotations indicated by low frequency modes are not
      treated as such but are treated as vibrations and this may
      cause some error
  (4) All equations used are the standard statistical mechanics
      equations for an ideal gas
  (5) All vibrations are strictly harmonic

freq.    1362.83  E(vib)   ...       0.01 
freq.    1362.83  E(vib)   ...       0.01 
freq.    1362.83  E(vib)   ...       0.01 
freq.    1579.19  E(vib)   ...       0.00 
freq.    1579.19  E(vib)   ...       0.00 
freq.    3081.73  E(vib)   ...       0.00 
freq.    3219.97  E(vib)   ...       0.00 
freq.    3219.97  E(vib)   ...       0.00 
freq.    3219.97  E(vib)   ...       0.00 

------------
INNER ENERGY
------------

The inner energy is: U= E(el) + E(ZPE) + E(vib) + E(rot) + E(trans)
    E(el)   - is the total energy from the electronic structure calculation
              = E(kin-el) + E(nuc-el) + E(el-el) + E(nuc-nuc)
    E(ZPE)  - the the zero temperature vibrational energy from the frequency calculation
    E(vib)  - the the finite temperature correction to E(ZPE) due to population
              of excited vibrational states
    E(rot)  - is the rotational thermal energy
    E(trans)- is the translational thermal energy

Summary of contributions to the inner energy U:
Electronic energy                ...    -40.39804268 Eh
Zero point energy                ...      0.04553715 Eh      28.57 kcal/mol
Thermal vibrational correction   ...      0.00003305 Eh       0.02 kcal/mol
Thermal rotational correction    ...      0.00141627 Eh       0.89 kcal/mol
Thermal translational correction ...      0.00141627 Eh       0.89 kcal/mol
-----------------------------------------------------------------------
Total thermal energy                    -40.34963993 Eh


Summary of corrections to the electronic energy:
(perhaps to be used in another calculation)
Total thermal correction                  0.00286560 Eh       1.80 kcal/mol
Non-thermal (ZPE) correction              0.04553715 Eh      28.57 kcal/mol
-----------------------------------------------------------------------
Total correction                          0.04840275 Eh      30.37 kcal/mol


--------
ENTHALPY
--------

The enthalpy is H = U + kB*T
                kB is Boltzmann's constant
Total free energy                 ...    -40.34963993 Eh 
Thermal Enthalpy correction       ...      0.00094421 Eh       0.59 kcal/mol
-----------------------------------------------------------------------
Total Enthalpy                    ...    -40.34869572 Eh


Note: Rotational entropy computed according to Herzberg 
Infrared and Raman Spectra, Chapter V,1, Van Nostrand Reinhold, 1945 
Point Group:  Td, Symmetry Number:  12  
Rotational constants in cm-1:     5.281181     5.281181     5.281181 

Vibrational entropy computed according to the QRRHO of S. Grimme
Chem.Eur.J. 2012 18 9955


-------
ENTROPY
-------

The entropy contributions are T*S = T*(S(el)+S(vib)+S(rot)+S(trans))
     S(el)   - electronic entropy
     S(vib)  - vibrational entropy
     S(rot)  - rotational entropy
     S(trans)- translational entropy
The entropies will be listed as mutliplied by the temperature to get
units of energy

Electronic entropy                ...      0.00000000 Eh      0.00 kcal/mol
Vibrational entropy               ...      0.00003794 Eh      0.02 kcal/mol
Rotational entropy                ...      0.00480772 Eh      3.02 kcal/mol
Translational entropy             ...      0.01627961 Eh     10.22 kcal/mol
-----------------------------------------------------------------------
Final entropy term                ...      0.02112527 Eh     13.26 kcal/mol


-------------------
GIBBS FREE ENTHALPY
-------------------

The Gibbs free enthalpy is G = H - T*S

Total enthalpy                    ...    -40.34869572 Eh 
Total entropy correction          ...     -0.02112527 Eh    -13.26 kcal/mol
-----------------------------------------------------------------------
Final Gibbs free enthalpy         ...    -40.36982099 Eh

For completeness - the Gibbs free enthalpy minus the electronic energy
G-E(el)                           ...      0.02822169 Eh     17.71 kcal/mol


Timings for individual modules:

Sum of individual times         ...       93.236 sec (=   1.554 min)
GTO integral calculation        ...        3.713 sec (=   0.062 min)   4.0 %
SCF iterations                  ...       10.815 sec (=   0.180 min)  11.6 %
MP2 module                      ...       13.268 sec (=   0.221 min)  14.2 %
Geometry relaxation             ...        0.088 sec (=   0.001 min)   0.1 %
Analytical frequency calculation...       65.352 sec (=   1.089 min)  70.1 %
                             ****ORCA TERMINATED NORMALLY****
TOTAL RUN TIME: 0 days 0 hours 1 minutes 34 seconds 398 msec
