
                                 *****************
                                 * O   R   C   A *
                                 *****************

           --- An Ab Initio, DFT and Semiempirical electronic structure package ---

                  #######################################################
                  #                        -***-                        #
                  #          Department of theory and spectroscopy      #
                  #               Directorship: Frank Neese             #
                  #        Max Planck Institute fuer Kohlenforschung    #
                  #                Kaiser Wilhelm Platz 1               #
                  #                 D-45470 Muelheim/Ruhr               #
                  #                      Germany                        #
                  #                                                     #
                  #                  All rights reserved                #
                  #                        -***-                        #
                  #######################################################


                         Program Version 4.2.1 -  RELEASE  -


 With contributions from (in alphabetic order):
   Daniel Aravena         : Magnetic Suceptibility
   Michael Atanasov       : Ab Initio Ligand Field Theory (pilot matlab implementation)
   Alexander A. Auer      : GIAO ZORA, VPT2
   Ute Becker             : Parallelization
   Giovanni Bistoni       : ED, misc. LED, open-shell LED, HFLD
   Martin Brehm           : Molecular dynamics
   Dmytro Bykov           : SCF Hessian
   Vijay G. Chilkuri      : MRCI spin determinant printing, contributions to CSF-ICE
   Dipayan Datta          : RHF DLPNO-CCSD density
   Achintya Kumar Dutta   : EOM-CC, STEOM-CC
   Dmitry Ganyushin       : Spin-Orbit,Spin-Spin,Magnetic field MRCI
   Miquel Garcia          : C-PCM Hessian, Gaussian charge scheme
   Yang Guo               : DLPNO-NEVPT2, CIM, IAO-localization
   Andreas Hansen         : Spin unrestricted coupled pair/coupled cluster methods
   Benjamin Helmich-Paris : CASSCF linear response (MC-RPA)
   Lee Huntington         : MR-EOM, pCC
   Robert Izsak           : Overlap fitted RIJCOSX, COSX-SCS-MP3, EOM
   Christian Kollmar      : KDIIS, OOCD, Brueckner-CCSD(T), CCSD density
   Simone Kossmann        : Meta GGA functionals, TD-DFT gradient, OOMP2, MP2 Hessian
   Martin Krupicka        : AUTO-CI
   Lucas Lang             : DCDCAS
   Dagmar Lenk            : GEPOL surface, SMD
   Dimitrios Liakos       : Extrapolation schemes; Compound Job, initial MDCI parallelization
   Dimitrios Manganas     : Further ROCIS development; embedding schemes
   Dimitrios Pantazis     : SARC Basis sets
   Taras Petrenko         : DFT Hessian,TD-DFT gradient, ASA, ECA, R-Raman, ABS, FL, XAS/XES, NRVS
   Peter Pinski           : DLPNO-MP2, DLPNO-MP2 Gradient
   Christoph Reimann      : Effective Core Potentials
   Marius Retegan         : Local ZFS, SOC
   Christoph Riplinger    : Optimizer, TS searches, QM/MM, DLPNO-CCSD(T), (RO)-DLPNO pert. Triples
   Tobias Risthaus        : Range-separated hybrids, TD-DFT gradient, RPA, STAB
   Michael Roemelt        : Original ROCIS implementation
   Masaaki Saitow         : Open-shell DLPNO-CCSD energy and density
   Barbara Sandhoefer     : DKH picture change effects
   Avijit Sen             : IP-ROCIS
   Kantharuban Sivalingam : CASSCF convergence, NEVPT2, FIC-MRCI
   Bernardo de Souza      : ESD, SOC TD-DFT
   Georgi Stoychev        : AutoAux, RI-MP2 NMR
   Willem Van den Heuvel  : Paramagnetic NMR
   Boris Wezisla          : Elementary symmetry handling
   Frank Wennmohs         : Technical directorship


 We gratefully acknowledge several colleagues who have allowed us to
 interface, adapt or use parts of their codes:
   Stefan Grimme, W. Hujo, H. Kruse,             : VdW corrections, initial TS optimization,
                  C. Bannwarth                     DFT functionals, gCP, sTDA/sTD-DF
   Ed Valeev, F. Pavosevic, A. Kumar             : LibInt (2-el integral package), F12 methods
   Garnet Chan, S. Sharma, J. Yang, R. Olivares  : DMRG
   Ulf Ekstrom                                   : XCFun DFT Library
   Mihaly Kallay                                 : mrcc  (arbitrary order and MRCC methods)
   Andreas Klamt, Michael Diedenhofen            : otool_cosmo (COSMO solvation model)
   Jiri Pittner, Ondrej Demel                    : Mk-CCSD
   Frank Weinhold                                : gennbo (NPA and NBO analysis)
   Christopher J. Cramer and Donald G. Truhlar   : smd solvation model
   Lars Goerigk                                  : TD-DFT with DH, B97 family of functionals
   V. Asgeirsson, H. Jonsson                     : NEB implementation
   FAccTs GmbH                                   : IRC, NEB, NEB-TS, Multilevel, MM, QM/MM, CI optimization
   S Lehtola, MJT Oliveira, MAL Marques          : LibXC Library


 Your calculation uses the libint2 library for the computation of 2-el integrals
 For citations please refer to: http://libint.valeyev.net

 Your ORCA version has been built with support for libXC version: 4.2.3
 For citations please refer to: https://tddft.org/programs/libxc/

 This ORCA versions uses:
   CBLAS   interface :  Fast vector & matrix operations
   LAPACKE interface :  Fast linear algebra routines
   SCALAPACK package :  Parallel linear algebra routines


Your calculation utilizes the geometrical counterpoise correction gCP
Please cite in your paper:
H.Kruse, S. Grimme J.Chem.Phys., 136, (2012), 154101 
   

Your calculation utilizes the atom-pairwise dispersion correction
based on tight binding partial charges (D4)
Cite in your paper:
E.Caldeweyher, C.Bannwarth, S.Grimme, J.Chem.Phys., (2017), 147, 034112.
E.Caldeweyher, S.Ehlert, A.Hansen, H.Neugebauer, S.Grimme, J.Chem.Phys., (2018), in progress.
   

----- Orbital basis set information -----
Your calculation utilizes the basis: def2-SVP
   F. Weigend and R. Ahlrichs, Phys. Chem. Chem. Phys. 7, 3297 (2005).

----- AuxJ basis set information -----
Your calculation utilizes the auxiliary basis: def2/J
   F. Weigend, Phys. Chem. Chem. Phys. 8, 1057 (2006).

================================================================================
                                        WARNINGS
                       Please study these warnings very carefully!
================================================================================


WARNING: Geometry Optimization
  ===> : Switching off AutoStart
         For restart on a previous wavefunction, please use MOREAD

INFO   : the flag for use of LIBINT has been found!

================================================================================
                                       INPUT FILE
================================================================================
NAME = N2O.inp
|  1> ! revPBE D4 gCP(DFT/SVP) def2-SVP Opt Freq TightOpt TightSCF Grid4 FinalGrid5 LargePrint
|  2> 
|  3> %pal
|  4>  nprocs 4
|  5> end
|  6> 
|  7> *xyz 0 1
|  8> N        4.2825470588      3.1884839321     -2.0969514586                 
|  9> N        3.8095124444      3.4687298015     -3.0727439512                 
| 10> O        3.3166065454      3.7605689204     -4.0888437748                 
| 11> *
| 12> 
| 13>                          ****END OF INPUT****
================================================================================

                       *****************************
                       * Geometry Optimization Run *
                       *****************************

Geometry optimization settings:
Update method            Update   .... BFGS
Choice of coordinates    CoordSys .... Z-matrix Internals
Initial Hessian          InHess   .... Almoef's Model

Convergence Tolerances:
Energy Change            TolE     ....  1.0000e-06 Eh
Max. Gradient            TolMAXG  ....  1.0000e-04 Eh/bohr
RMS Gradient             TolRMSG  ....  3.0000e-05 Eh/bohr
Max. Displacement        TolMAXD  ....  1.0000e-03 bohr
RMS Displacement         TolRMSD  ....  6.0000e-04 bohr
Strict Convergence                ....  False
------------------------------------------------------------------------------
                        ORCA OPTIMIZATION COORDINATE SETUP
------------------------------------------------------------------------------

The optimization will be done in new redundant internal coordinates
Making redundant internal coordinates   ...  (new redundants) done
Evaluating the initial hessian          ...  (Almloef) done
Evaluating the coordinates              ...  done
Calculating the B-matrix                .... done
Calculating the G-matrix                .... done
Diagonalizing the G-matrix              .... done
The first mode is                       ....    0
The number of degrees of freedom        ....    4

    -----------------------------------------------------------------
                    Redundant Internal Coordinates


    -----------------------------------------------------------------
         Definition                    Initial Value    Approx d2E/dq
    -----------------------------------------------------------------
      1. B(N   1,N   0)                  1.1200         1.351232   
      2. B(O   2,N   1)                  1.1664         1.139426   
      3. L(N   0,N   1,O   2, 2)       179.9991         0.545881   
      4. L(N   0,N   1,O   2, 1)       179.9849         0.545881   
    -----------------------------------------------------------------

Number of atoms                         .... 3
Number of degrees of freedom            .... 4

         *************************************************************
         *                GEOMETRY OPTIMIZATION CYCLE   1            *
         *************************************************************
---------------------------------
CARTESIAN COORDINATES (ANGSTROEM)
---------------------------------
  N      4.282547    3.188484   -2.096951
  N      3.809512    3.468730   -3.072744
  O      3.316607    3.760569   -4.088844

----------------------------
CARTESIAN COORDINATES (A.U.)
----------------------------
  NO LB      ZA    FRAG     MASS         X           Y           Z
   0 N     7.0000    0    14.007    8.092841    6.025361   -3.962664
   1 N     7.0000    0    14.007    7.198935    6.554949   -5.806645
   2 O     8.0000    0    15.999    6.267478    7.106445   -7.726795

--------------------------------
INTERNAL COORDINATES (ANGSTROEM)
--------------------------------
 N      0   0   0     0.000000000000     0.00000000     0.00000000
 N      1   0   0     1.120031464893     0.00000000     0.00000000
 O      2   1   0     1.166441232171   179.98531519     0.00000000

---------------------------
INTERNAL COORDINATES (A.U.)
---------------------------
 N      0   0   0     0.000000000000     0.00000000     0.00000000
 N      1   0   0     2.116552730023     0.00000000     0.00000000
 O      2   1   0     2.204254480117   179.98531519     0.00000000

---------------------
BASIS SET INFORMATION
---------------------
There are 2 groups of distinct atoms

 Group   1 Type N   : 7s4p1d contracted to 3s2p1d pattern {511/31/1}
 Group   2 Type O   : 7s4p1d contracted to 3s2p1d pattern {511/31/1}

Atom   0N    basis set group =>   1
Atom   1N    basis set group =>   1
Atom   2O    basis set group =>   2

-------------------------
BASIS SET IN INPUT FORMAT
-------------------------

 # Basis set for element : N 
 NewGTO N 
 S 5 
   1    1712.8415853000     -0.0054477995
   2     257.6481267700     -0.0406271746
   3      58.4582458530     -0.1811196225
   4      16.1983679050     -0.4684397556
   5       5.0052600809     -0.4461684629
 S 1 
   1       0.5873185657      1.0000000000
 S 1 
   1       0.1876459225      1.0000000000
 P 3 
   1      13.5714702330     -0.0588481170
   2       2.9257372874     -0.3202462476
   3       0.7992775075     -0.7532822652
 P 1 
   1       0.2195434803      1.0000000000
 D 1 
   1       1.0000000000      1.0000000000
  end;

 # Basis set for element : O 
 NewGTO O 
 S 5 
   1    2266.1767785000     -0.0053893504
   2     340.8701019100     -0.0402347214
   3      77.3631351670     -0.1800818421
   4      21.4796449400     -0.4682885766
   5       6.6589433124     -0.4469261716
 S 1 
   1       0.8097597567      1.0000000000
 S 1 
   1       0.2553077223      1.0000000000
 P 3 
   1      17.7215043170      0.0626302488
   2       3.8635505440      0.3333113849
   3       1.0480920883      0.7414863830
 P 1 
   1       0.2764154441      1.0000000000
 D 1 
   1       1.2000000000      1.0000000000
  end;

---------------------------------
AUXILIARY/J BASIS SET INFORMATION
---------------------------------
There are 2 groups of distinct atoms

 Group   1 Type N   : 12s5p4d2f1g contracted to 6s4p3d1f1g pattern {711111/2111/211/2/1}
 Group   2 Type O   : 12s5p4d2f1g contracted to 6s4p3d1f1g pattern {711111/2111/211/2/1}

Atom   0N    basis set group =>   1
Atom   1N    basis set group =>   1
Atom   2O    basis set group =>   2

-------------------------------------
AUXILIARY/J BASIS SET IN INPUT FORMAT
-------------------------------------

 # Auxiliary/J basis set for element : N 
 NewAuxJGTO N 
 S 7 
   1    2542.9401785000      0.0128431329
   2    1029.5472946000      0.0206655120
   3     424.9053546000      0.0652200677
   4     178.4573708000      0.1617388940
   5      76.1362742000      0.3094256941
   6      32.9338653000      0.3918849307
   7      14.4155436000      0.1822470660
 S 1 
   1       6.3718891000     -1.0000000000
 S 1 
   1       2.8381742000      1.0000000000
 S 1 
   1       1.2711793000      1.0000000000
 S 1 
   1       0.5712407000      1.0000000000
 S 1 
   1       0.2569887000      1.0000000000
 P 2 
   1      17.8975990000     -1.0974070137
   2       6.5346319000      0.1380055963
 P 1 
   1       2.3523645000      1.0000000000
 P 1 
   1       0.8397377000      1.0000000000
 P 1 
   1       0.2989335000      1.0000000000
 D 2 
   1       7.6909870000      0.1770780943
   2       2.3044972000      0.8918319220
 D 1 
   1       0.8403987000      1.0000000000
 D 1 
   1       0.3303797000      1.0000000000
 F 2 
   1       2.3331076000      0.6223178877
   2       0.8446137000      0.5036714203
 G 1 
   1       1.4037700000     -1.0000000000
  end;

 # Auxiliary/J basis set for element : O 
 NewAuxJGTO O 
 S 7 
   1    2876.8216605000      0.0168151159
   2    1004.7443032000      0.0340137548
   3     369.7579954000      0.1194951309
   4     142.9442404000      0.2664627624
   5      57.8366425000      0.4202764046
   6      24.3864983000      0.2765077335
   7      10.6622662000      0.0057008815
 S 1 
   1       4.8070437000     -1.0000000000
 S 1 
   1       2.2210770000      1.0000000000
 S 1 
   1       1.0447795000      1.0000000000
 S 1 
   1       0.4968425000      1.0000000000
 S 1 
   1       0.2371384000      1.0000000000
 P 2 
   1      64.2613382000     -0.2731534179
   2      16.3006076000     -0.8168011598
 P 1 
   1       4.3550542000      1.0000000000
 P 1 
   1       1.2019554000      1.0000000000
 P 1 
   1       0.3354196000      1.0000000000
 D 2 
   1       9.2146611000     -0.4661230638
   2       2.8435251000     -0.6600908911
 D 1 
   1       0.9955759000     -1.0000000000
 D 1 
   1       0.3649441000     -1.0000000000
 F 2 
   1       2.6420115000      0.5931563945
   2       0.7345613000      0.5931563945
 G 1 
   1       1.3931000000     -1.0000000000
  end;



           ************************************************************
           *        Program running with 4 parallel MPI-processes     *
           *              working on a common directory               *
           ************************************************************
------------------------------------------------------------------------------
                           ORCA GTO INTEGRAL CALCULATION
                           -- RI-GTO INTEGRALS CHOSEN --
------------------------------------------------------------------------------

                         BASIS SET STATISTICS AND STARTUP INFO

Gaussian basis set:
 # of primitive gaussian shells          ...   36
 # of primitive gaussian functions       ...   72
 # of contracted shells                  ...   18
 # of contracted basis functions         ...   42
 Highest angular momentum                ...    2
 Maximum contraction depth               ...    5
Auxiliary gaussian basis set:
 # of primitive gaussian shells          ...   72
 # of primitive gaussian functions       ...  210
 # of contracted shells                  ...   45
 # of contracted aux-basis functions     ...  147
 Highest angular momentum                ...    4
 Maximum contraction depth               ...    7
Ratio of auxiliary to basis functions    ...  3.50
Integral package used                  ... LIBINT
 One Electron integrals                  ... done
 Ordering auxiliary basis shells         ... done
 Integral threshhold             Thresh  ...  2.500e-11
 Primitive cut-off               TCut    ...  2.500e-12
 Pre-screening matrix                    ... done
 Shell pair data                         ... 
 Ordering of the shell pairs             ... done (   0.000 sec) 170 of 171 pairs
 Determination of significant pairs      ... done (   0.000 sec)
 Creation of shell pair data             ... done (   0.000 sec)
 Storage of shell pair data              ... done (   0.000 sec)
 Shell pair data done in (   0.000 sec)
 Computing two index integrals           ... done
 Cholesky decomposition of the V-matrix  ... done


Timings:
 Total evaluation time                   ...   0.169 sec (  0.003 min)
 One electron matrix time                ...   0.015 sec (  0.000 min) =  9.1%
 Schwartz matrix evaluation time         ...   0.132 sec (  0.002 min) = 78.2%
 Two index repulsion integral time       ...   0.001 sec (  0.000 min) =  0.5%
 Cholesky decomposition of V             ...   0.001 sec (  0.000 min) =  0.6%
 Three index repulsion integral time     ...   0.000 sec (  0.000 min) =  0.0%



           ************************************************************
           *        Program running with 4 parallel MPI-processes     *
           *              working on a common directory               *
           ************************************************************
-------------------------------------------------------------------------------
                                 ORCA SCF
-------------------------------------------------------------------------------

------------
SCF SETTINGS
------------
Hamiltonian:
 Density Functional     Method          .... DFT(GTOs)
 Exchange Functional    Exchange        .... PBE
   PBE kappa parameter   XKappa         ....  1.245000
   PBE mue parameter    XMuePBE         ....  0.219520
 Correlation Functional Correlation     .... PBE
   PBE beta parameter  CBetaPBE         ....  0.066725
 LDA part of GGA corr.  LDAOpt          .... PW91-LDA
 Gradients option       PostSCFGGA      .... off
   Density functional embedding theory  .... OFF
   NL short-range parameter             ....  3.700000
 RI-approximation to the Coulomb term is turned on
   Number of auxiliary basis functions  .... 147


General Settings:
 Integral files         IntName         .... N2O
 Hartree-Fock type      HFTyp           .... RHF
 Total Charge           Charge          ....    0
 Multiplicity           Mult            ....    1
 Number of Electrons    NEL             ....   22
 Basis Dimension        Dim             ....   42
 Nuclear Repulsion      ENuc            ....     61.5168088846 Eh

Convergence Acceleration:
 DIIS                   CNVDIIS         .... on
   Start iteration      DIISMaxIt       ....    12
   Startup error        DIISStart       ....  0.200000
   # of expansion vecs  DIISMaxEq       ....     5
   Bias factor          DIISBfac        ....   1.050
   Max. coefficient     DIISMaxC        ....  10.000
 Newton-Raphson         CNVNR           .... off
 SOSCF                  CNVSOSCF        .... on
   Start iteration      SOSCFMaxIt      ....   150
   Startup grad/error   SOSCFStart      ....  0.003300
 Level Shifting         CNVShift        .... on
   Level shift para.    LevelShift      ....    0.2500
   Turn off err/grad.   ShiftErr        ....    0.0010
 Zerner damping         CNVZerner       .... off
 Static damping         CNVDamp         .... on
   Fraction old density DampFac         ....    0.7000
   Max. Damping (<1)    DampMax         ....    0.9800
   Min. Damping (>=0)   DampMin         ....    0.0000
   Turn off err/grad.   DampErr         ....    0.1000
 Fernandez-Rico         CNVRico         .... off

SCF Procedure:
 Maximum # iterations   MaxIter         ....   125
 SCF integral mode      SCFMode         .... Direct
   Integral package                     .... LIBINT
 Reset frequency        DirectResetFreq ....    20
 Integral Threshold     Thresh          ....  2.500e-11 Eh
 Primitive CutOff       TCut            ....  2.500e-12 Eh

Convergence Tolerance:
 Convergence Check Mode ConvCheckMode   .... Total+1el-Energy
 Convergence forced     ConvForced      .... 0
 Energy Change          TolE            ....  1.000e-08 Eh
 1-El. energy change                    ....  1.000e-05 Eh
 Orbital Gradient       TolG            ....  1.000e-05
 Orbital Rotation angle TolX            ....  1.000e-05
 DIIS Error             TolErr          ....  5.000e-07


Diagonalization of the overlap matrix:
Smallest eigenvalue                        ... 1.657e-03
Time for diagonalization                   ...    0.001 sec
Threshold for overlap eigenvalues          ... 1.000e-08
Number of eigenvalues below threshold      ... 0
Time for construction of square roots      ...    0.007 sec
Total time needed                          ...    0.007 sec

-------------------
DFT GRID GENERATION
-------------------

General Integration Accuracy     IntAcc      ...  4.670
Radial Grid Type                 RadialGrid  ... Gauss-Chebyshev
Angular Grid (max. acc.)         AngularGrid ... Lebedev-302
Angular grid pruning method      GridPruning ... 3 (G Style)
Weight generation scheme         WeightScheme... Becke
Basis function cutoff            BFCut       ...    1.0000e-11
Integration weight cutoff        WCut        ...    1.0000e-14
Grids for H and He will be reduced by one unit

# of grid points (after initial pruning)     ...  18636 (   0.0 sec)
# of grid points (after weights+screening)   ...  18502 (   0.0 sec)
nearest neighbour list constructed           ...    0.0 sec
Grid point re-assignment to atoms done       ...    0.0 sec
Grid point division into batches done        ...    0.1 sec
Reduced shell lists constructed in    0.1 sec

Total number of grid points                  ...    18502
Total number of batches                      ...      290
Average number of points per batch           ...       63
Average number of grid points per atom       ...     6167
Average number of shells per batch           ...    11.01 (61.19%)
Average number of basis functions per batch  ...    26.42 (62.90%)
Average number of large shells per batch     ...     9.08 (82.45%)
Average number of large basis fcns per batch ...    21.62 (81.84%)
Maximum spatial batch extension              ...  16.88, 16.88, 15.00 au
Average spatial batch extension              ...   1.29,  1.33,  1.18 au

Time for grid setup =    0.192 sec

------------------------------
INITIAL GUESS: MODEL POTENTIAL
------------------------------
Loading Hartree-Fock densities                     ... done
Calculating cut-offs                               ... done
Setting up the integral package                    ... done
Initializing the effective Hamiltonian             ... done
Starting the Coulomb interaction                   ... done (   0.0 sec)
Reading the grid                                   ... done
Mapping shells                                     ... done
Starting the XC term evaluation                    ... done (   0.0 sec)
  promolecular density results
     # of electrons  =     21.999999077
     EX              =    -21.334544260
     EC              =     -0.737759266
     EX+EC           =    -22.072303526
Transforming the Hamiltonian                       ... done (   0.0 sec)
Diagonalizing the Hamiltonian                      ... done (   0.0 sec)
Back transforming the eigenvectors                 ... done (   0.0 sec)
Now organizing SCF variables                       ... done
                      ------------------
                      INITIAL GUESS DONE (   0.3 sec)
                      ------------------
----------------------
INITIAL GUESS ORBITALS
----------------------
                      0         1         2         3         4         5   
                 -18.94568 -14.21685 -14.17745  -1.17077  -1.05034  -0.59166
                   2.00000   2.00000   2.00000   2.00000   2.00000   2.00000
                  --------  --------  --------  --------  --------  --------
  0N   1s        -0.000325 -0.013035 -0.988688 -0.095240 -0.193750  0.075523
  0N   2s        -0.003946 -0.002820  0.042252 -0.187772 -0.400478  0.174478
  0N   3s        -0.015184  0.028183  0.011430 -0.070803 -0.154065  0.124784
  0N   1pz       -0.001250 -0.003768  0.004305 -0.098826 -0.192448 -0.013385
  0N   1px       -0.000606 -0.001826  0.002087 -0.047913 -0.093289 -0.006495
  0N   1py        0.000359  0.001082 -0.001236  0.028383  0.055271  0.003844
  0N   2pz        0.005652 -0.009502 -0.009388  0.023887  0.047072  0.003869
  0N   2px        0.002738 -0.004605 -0.004549  0.011579  0.022815  0.001881
  0N   2py       -0.001623  0.002729  0.002696 -0.006860 -0.013519 -0.001112
  0N   1dz2      -0.000283 -0.001636  0.001604 -0.008182 -0.014414 -0.000966
  0N   1dxz      -0.000282 -0.001633  0.001601 -0.008168 -0.014384 -0.000966
  0N   1dyz       0.000167  0.000967 -0.000948  0.004838  0.008523  0.000572
  0N   1dx2y2    -0.000044 -0.000257  0.000252 -0.001285 -0.002262 -0.000152
  0N   1dxy       0.000081  0.000469 -0.000460  0.002346  0.004131  0.000277
  1N   1s         0.000423 -0.988062  0.012335 -0.219474 -0.090231 -0.120867
  1N   2s         0.000265  0.044641 -0.002928 -0.449108 -0.184430 -0.287282
  1N   3s        -0.007674 -0.020432 -0.001469 -0.070475 -0.028831 -0.120365
  1N   1pz        0.001474 -0.001707  0.002593 -0.059102  0.327900 -0.192940
  1N   1px        0.000715 -0.000827  0.001257 -0.028705  0.158995 -0.093556
  1N   1py       -0.000423  0.000490 -0.000745  0.016977 -0.094174  0.055413
  1N   2pz        0.024184 -0.027248 -0.030357  0.029567  0.015764  0.006349
  1N   2px        0.011729 -0.013213 -0.014721  0.014343  0.007646  0.003068
  1N   2py       -0.006946  0.007826  0.008719 -0.008492 -0.004528 -0.001823
  1N   1dz2       0.001638  0.003709 -0.001233 -0.020986 -0.005980 -0.000620
  1N   1dxz       0.001636  0.003704 -0.001230 -0.020957 -0.005963 -0.000621
  1N   1dyz      -0.000969 -0.002194  0.000729  0.012411  0.003535  0.000367
  1N   1dx2y2     0.000258  0.000583 -0.000193 -0.003300 -0.000936 -0.000098
  1N   1dxy      -0.000470 -0.001064  0.000353  0.006019  0.001712  0.000178
  2O   1s         0.988681 -0.000303  0.000338 -0.198537  0.152785  0.180211
  2O   2s        -0.042121  0.000213  0.003722 -0.406024  0.316777  0.380562
  2O   3s         0.042147 -0.023984 -0.028547 -0.161938  0.203077  0.356424
  2O   1pz       -0.002467 -0.002435  0.000339 -0.144982  0.090176 -0.401504
  2O   1px       -0.001197 -0.001181  0.000165 -0.070328  0.043751 -0.194787
  2O   1py        0.000708  0.000699 -0.000097  0.041641 -0.025900  0.115319
  2O   2pz        0.012022 -0.011333 -0.010146 -0.027905  0.038281 -0.192283
  2O   2px        0.005832 -0.005499 -0.004924 -0.013535  0.018575 -0.093286
  2O   2py       -0.003453  0.003255  0.002914  0.008015 -0.010995  0.055227
  2O   1dz2      -0.000251 -0.002125 -0.000158 -0.008999  0.005928 -0.011572
  2O   1dxz      -0.000250 -0.002123 -0.000158 -0.008989  0.005924 -0.011562
  2O   1dyz       0.000148  0.001257  0.000093  0.005323 -0.003507  0.006845
  2O   1dx2y2    -0.000039 -0.000335 -0.000025 -0.001416  0.000934 -0.001822
  2O   1dxy       0.000072  0.000610  0.000045  0.002582 -0.001702  0.003321
                      6         7         8         9        10        11   
                  -0.53159  -0.53159  -0.47897  -0.35241  -0.35241  -0.07015
                   2.00000   2.00000   2.00000   2.00000   2.00000   0.00000
                  --------  --------  --------  --------  --------  --------
  0N   1s         0.000006 -0.000006  0.196715  0.000000 -0.000000  0.000030
  0N   2s         0.000015 -0.000016  0.424315  0.000007 -0.000005  0.000094
  0N   3s         0.000011 -0.000011  0.451085  0.000053 -0.000041 -0.000051
  0N   1pz       -0.028107  0.139030 -0.395206 -0.079802  0.202908  0.223611
  0N   1px        0.187267 -0.183100 -0.191580  0.332619 -0.226978 -0.293761
  0N   1py        0.218238  0.175021  0.113502  0.283435  0.323495  0.282322
  0N   2pz        0.011233 -0.055564  0.155279  0.048453 -0.123235 -0.225754
  0N   2px       -0.074842  0.073176  0.075271 -0.202049  0.137878  0.296697
  0N   2py       -0.087220 -0.069948 -0.044596 -0.172158 -0.196501 -0.285131
  0N   1dz2      -0.004532  0.022423 -0.013985 -0.005842  0.014851 -0.015240
  0N   1dxz       0.016171 -0.010775 -0.013958  0.012418 -0.005434  0.007301
  0N   1dyz       0.021074  0.012581  0.008270  0.012945  0.011206 -0.008588
  0N   1dx2y2     0.014291 -0.003585 -0.002196  0.010252 -0.000723  0.002414
  0N   1dxy       0.004843  0.012798  0.004009  0.001769  0.009380 -0.008710
  1N   1s        -0.000016  0.000017 -0.071436 -0.000002  0.000001 -0.000049
  1N   2s        -0.000035  0.000038 -0.172402 -0.000000  0.000000 -0.000094
  1N   3s        -0.000020  0.000021 -0.113914 -0.000031  0.000024 -0.000380
  1N   1pz       -0.045475  0.224863  0.192195 -0.020522  0.052135 -0.274121
  1N   1px        0.302840 -0.296099  0.093179  0.085420 -0.058288  0.360189
  1N   1py        0.352943  0.283039 -0.055199  0.072806  0.083082 -0.346155
  1N   2pz        0.021753 -0.107595 -0.041841  0.009775 -0.024962  0.254317
  1N   2px       -0.144923  0.141698 -0.020279 -0.041024  0.027997 -0.333965
  1N   2py       -0.168892 -0.135446  0.012017 -0.034916 -0.039883  0.320973
  1N   1dz2      -0.000021  0.000082  0.002512  0.014433 -0.036676 -0.004464
  1N   1dxz       0.000051 -0.000029  0.002507 -0.030657  0.013409  0.002160
  1N   1dyz       0.000073  0.000040 -0.001485 -0.031966 -0.027667 -0.002532
  1N   1dx2y2     0.000053 -0.000017  0.000394 -0.025320  0.001789  0.000711
  1N   1dxy       0.000023  0.000048 -0.000720 -0.004375 -0.023166 -0.002562
  2O   1s        -0.000005  0.000005 -0.014463 -0.000001  0.000001  0.000030
  2O   2s        -0.000006  0.000007 -0.024671  0.000001 -0.000001  0.000074
  2O   3s        -0.000033  0.000036 -0.042976 -0.000055  0.000042  0.000214
  2O   1pz        0.034568 -0.170704  0.124327 -0.093647  0.237853 -0.161255
  2O   1px       -0.229787  0.224668  0.060360  0.389649 -0.265888  0.212068
  2O   1py       -0.267853 -0.214769 -0.035711  0.332134  0.378997 -0.203787
  2O   2pz        0.017287 -0.085399  0.063105 -0.062343  0.158311 -0.150003
  2O   2px       -0.114973  0.112412  0.030640  0.259310 -0.176948  0.197341
  2O   2py       -0.134012 -0.107458 -0.018126  0.221047  0.252226 -0.189629
  2O   1dz2       0.003579 -0.017681  0.002311 -0.002756  0.007001  0.014261
  2O   1dxz      -0.012740  0.008484  0.002312  0.005849 -0.002558 -0.006823
  2O   1dyz      -0.016612 -0.009912 -0.001367  0.006101  0.005280  0.008031
  2O   1dx2y2    -0.011267  0.002829  0.000365  0.004833 -0.000342 -0.002262
  2O   1dxy      -0.003824 -0.010090 -0.000664  0.000836  0.004422  0.008150
                     12        13        14        15        16        17   
                  -0.07015   0.08392   0.36607   0.52140   0.56734   0.57691
                   0.00000   0.00000   0.00000   0.00000   0.00000   0.00000
                  --------  --------  --------  --------  --------  --------
  0N   1s        -0.000027 -0.123479  0.041994 -0.172540  0.172076 -0.000007
  0N   2s        -0.000086 -0.411667  0.413749 -0.709586  1.023508 -0.000032
  0N   3s         0.000047  0.291866 -5.704137 -1.637652 -3.536055  0.000296
  0N   1pz       -0.045818 -0.292347 -0.213705  0.238615 -0.322840 -0.320152
  0N   1px        0.301873 -0.141917 -0.103615  0.115665 -0.156481  0.399139
  0N   1py        0.350395  0.083972  0.061377 -0.068530  0.092721 -0.441243
  0N   2pz        0.046209  0.061969  2.615685  1.686403  0.841383 -0.304474
  0N   2px       -0.304886  0.030359  1.267822  0.817454  0.407846  0.379429
  0N   2py       -0.353840 -0.017814 -0.751210 -0.484329 -0.241639 -0.419478
  0N   1dz2       0.003118  0.002286  0.031195  0.025983 -0.001518 -0.041283
  0N   1dxz      -0.011013  0.002306  0.031134  0.025923 -0.001507  0.018157
  0N   1dyz      -0.014310 -0.001356 -0.018446 -0.015362  0.000897 -0.026001
  0N   1dx2y2    -0.009723  0.000368  0.004897  0.004076 -0.000235  0.004970
  0N   1dxy      -0.003273 -0.000663 -0.008942 -0.007445  0.000433 -0.024456
  1N   1s         0.000045  0.138189  0.219870 -0.082723 -0.158735  0.000004
  1N   2s         0.000086  0.234166  0.968887 -0.447837 -1.017341  0.000059
  1N   3s         0.000350  1.695209  2.347084  2.355904  2.948362 -0.000153
  1N   1pz        0.056140  0.124436 -0.092951 -0.558314 -0.295651 -0.280550
  1N   1px       -0.370133  0.060657 -0.045031 -0.270718 -0.143229  0.349692
  1N   1py       -0.429596 -0.035755  0.026694  0.160350  0.084908 -0.386591
  1N   2pz       -0.052164 -0.862098  3.953091  0.994848  1.224774 -0.293573
  1N   2px        0.343190 -0.418494  1.916809  0.482336  0.593934  0.365546
  1N   2py        0.398412  0.247623 -1.135345 -0.285722 -0.351760 -0.404172
  1N   1dz2       0.000903 -0.049835 -0.022681  0.021897 -0.001589  0.027514
  1N   1dxz      -0.003249 -0.049756 -0.022666  0.021881 -0.001587 -0.012102
  1N   1dyz      -0.004198  0.029471  0.013416 -0.012953  0.000939  0.017327
  1N   1dx2y2    -0.002858 -0.007831 -0.003573  0.003448 -0.000250 -0.003307
  1N   1dxy      -0.000957  0.014290  0.006510 -0.006285  0.000456  0.016292
  2O   1s        -0.000028 -0.128067 -0.006531  0.033518 -0.052919  0.000011
  2O   2s        -0.000068 -0.301198 -0.140768  0.032991 -0.361256  0.000080
  2O   3s        -0.000197 -1.333103  2.649689  0.404498  0.730673 -0.000176
  2O   1pz        0.032952 -0.372449 -0.162620  0.198465  0.139217  0.096442
  2O   1px       -0.217917 -0.180525 -0.078894  0.096279  0.067473 -0.120165
  2O   1py       -0.252847  0.106965  0.046707 -0.057002 -0.039983  0.132851
  2O   2pz        0.030624 -0.747385  0.972316  0.334107  0.314248 -0.022453
  2O   2px       -0.202781 -0.362421  0.471879  0.162138  0.152556  0.027827
  2O   2py       -0.235254  0.214653 -0.279275 -0.095964 -0.090262 -0.030786
  2O   1dz2      -0.002922  0.000148  0.032642 -0.047009 -0.043367  0.013321
  2O   1dxz       0.010298  0.000130  0.032604 -0.046967 -0.043333 -0.005840
  2O   1dyz       0.013387 -0.000085 -0.019305  0.027805  0.025652  0.008375
  2O   1dx2y2     0.009098  0.000016  0.005135 -0.007400 -0.006829 -0.001604
  2O   1dxy       0.003067 -0.000037 -0.009364  0.013490  0.012446  0.007885
                     18        19        20        21        22        23   
                   0.57691   0.69128   0.71930   0.71930   0.90651   0.90651
                   0.00000   0.00000   0.00000   0.00000   0.00000   0.00000
                  --------  --------  --------  --------  --------  --------
  0N   1s         0.000009 -0.069395 -0.000005 -0.000002  0.000006  0.000000
  0N   2s         0.000041 -0.487368 -0.000062 -0.000023  0.000003  0.000000
  0N   3s        -0.000334 -1.250538  0.000163  0.000058 -0.002468 -0.000163
  0N   1pz        0.086433 -0.311212  0.192364  0.236748  0.053906  0.037410
  0N   1px       -0.464551 -0.150754 -0.539415 -0.161773 -0.121025 -0.001207
  0N   1py       -0.482936  0.089374 -0.240942  0.551186 -0.016871  0.128205
  0N   2pz        0.082282  0.220975  0.353107  0.434708  0.247865  0.171509
  0N   2px       -0.441613  0.107138 -0.990642 -0.297104 -0.554274 -0.005505
  0N   2py       -0.459175 -0.063464 -0.442419  1.012204 -0.077552  0.587556
  0N   1dz2       0.011149  0.010530  0.002536  0.003122  0.023265  0.016180
  0N   1dxz      -0.031460  0.010499 -0.003399 -0.000359 -0.023740  0.004223
  0N   1dyz      -0.037799 -0.006225 -0.002255  0.003680 -0.008058  0.029337
  0N   1dx2y2    -0.027089  0.001649 -0.002518  0.000608 -0.015860  0.009049
  0N   1dxy      -0.007496 -0.003015  0.000291  0.002388  0.006650  0.015601
  1N   1s        -0.000005 -0.035407 -0.000008 -0.000003 -0.000036 -0.000002
  1N   2s        -0.000068 -0.472391 -0.000045 -0.000016 -0.000191 -0.000013
  1N   3s         0.000179 -0.078043 -0.000363 -0.000130  0.001704  0.000114
  1N   1pz        0.075775 -0.128704 -0.179123 -0.220521 -0.166945 -0.116069
  1N   1px       -0.407002 -0.062445  0.502546  0.150719  0.375720  0.003756
  1N   1py       -0.423145  0.036966  0.224434 -0.513482  0.052256 -0.397845
  1N   2pz        0.079474  2.036756 -0.332358 -0.409234 -0.493320 -0.343891
  1N   2px       -0.425460  0.987692  0.932698  0.279730  1.114197  0.011179
  1N   2py       -0.442525 -0.584970  0.416499 -0.952967  0.154451 -1.179093
  1N   1dz2      -0.007431 -0.075427 -0.029775 -0.036634  0.017164  0.011900
  1N   1dxz       0.020965 -0.075309  0.039842  0.004190 -0.017396  0.003108
  1N   1dyz       0.025194  0.044605  0.026463 -0.043161 -0.005960  0.021568
  1N   1dx2y2     0.018047 -0.011853  0.029553 -0.007132 -0.011649  0.006654
  1N   1dxy       0.004991  0.021629 -0.003397 -0.028033  0.004872  0.011467
  2O   1s        -0.000012  0.191673  0.000031  0.000011 -0.000002 -0.000000
  2O   2s        -0.000086  0.751691  0.000152  0.000055 -0.000018 -0.000001
  2O   3s         0.000190  1.208525  0.000197  0.000071  0.001135  0.000074
  2O   1pz       -0.026069 -0.435116  0.124719  0.153570 -0.322355 -0.223898
  2O   1px        0.139861 -0.210905 -0.350016 -0.104972  0.724513  0.007238
  2O   1py        0.145430  0.124963 -0.156301  0.357618  0.100887 -0.767352
  2O   2pz        0.006139  1.478008 -0.064601 -0.079684  0.546569  0.379410
  2O   2px       -0.032393  0.716912  0.181832  0.054534 -1.227500 -0.012251
  2O   2py       -0.033756 -0.424503  0.081119 -0.185716 -0.171052  1.300250
  2O   1dz2      -0.003608  0.001795  0.009586  0.011784 -0.022467 -0.015611
  2O   1dxz       0.010130  0.001778 -0.012800 -0.001344  0.022887 -0.004081
  2O   1dyz       0.012192 -0.001059 -0.008517  0.013876  0.007780 -0.028304
  2O   1dx2y2     0.008735  0.000277 -0.009499  0.002295  0.015321 -0.008731
  2O   1dxy       0.002424 -0.000510  0.001089  0.009011 -0.006411 -0.015073
                     24        25        26        27        28        29   
                   0.93999   1.11397   1.36790   1.57607   1.57607   1.70593
                   0.00000   0.00000   0.00000   0.00000   0.00000   0.00000
                  --------  --------  --------  --------  --------  --------
  0N   1s         0.131271  0.044531 -0.112710  0.000023 -0.000153 -0.000000
  0N   2s         0.692686  0.303253 -1.096068  0.000209 -0.001385 -0.000001
  0N   3s        -4.876816  8.504316 -7.084577  0.001662 -0.011002 -0.000002
  0N   1pz        0.705888  0.124913 -0.099871  0.042758  0.102954 -0.000002
  0N   1px        0.342219  0.060461 -0.048163  0.041962 -0.202082 -0.000005
  0N   1py       -0.202731 -0.035870  0.028670  0.219528  0.018574 -0.000015
  0N   2pz        2.447251 -3.567838  2.780072  0.017183  0.047504  0.000002
  0N   2px        1.186498 -1.729559  1.347228  0.017200 -0.082239  0.000005
  0N   2py       -0.702854  1.024676 -0.798408  0.091900  0.006468  0.000012
  0N   1dz2      -0.077442  0.059979 -0.061481 -0.135726 -0.328039 -0.084853
  0N   1dxz      -0.077261  0.059974 -0.061907 -0.114916  0.278622  0.041959
  0N   1dyz       0.045786 -0.035485  0.036448 -0.380250  0.020497 -0.270364
  0N   1dx2y2    -0.012146  0.009461 -0.009870 -0.152960  0.169814  0.157080
  0N   1dxy       0.022188 -0.017226  0.017790 -0.173116 -0.122826  0.493836
  1N   1s        -0.118667  0.090929 -0.044980  0.000010 -0.000069  0.000000
  1N   2s        -0.748709  0.621574 -0.583611  0.000118 -0.000779  0.000000
  1N   3s         4.018506 -7.247380  0.503486 -0.000489  0.003239 -0.000000
  1N   1pz        0.622047 -0.325832  0.249958  0.009835  0.024170 -0.000005
  1N   1px        0.301467 -0.157853  0.121277  0.009678 -0.046563 -0.000015
  1N   1py       -0.178646  0.093573 -0.071793  0.050787  0.004193 -0.000043
  1N   2pz        2.812552 -6.124521  9.008054 -0.023595 -0.040335 -0.000001
  1N   2px        1.363311 -2.968967  4.368397 -0.022250  0.108747 -0.000012
  1N   2py       -0.807753  1.758950 -2.587178 -0.111246 -0.012927 -0.000038
  1N   1dz2       0.038962 -0.083977 -0.151483  0.174571  0.421705 -0.103209
  1N   1dxz       0.038791 -0.084084 -0.150619  0.147837 -0.358481  0.050975
  1N   1dyz      -0.023022  0.049702  0.089474  0.488989 -0.026234 -0.328891
  1N   1dx2y2     0.006079 -0.013293 -0.023554  0.196740 -0.218514  0.190961
  1N   1dxy      -0.011139  0.024154  0.043246  0.222725  0.158033  0.600480
  2O   1s        -0.040388 -0.127256 -0.203892  0.000019 -0.000128 -0.000000
  2O   2s        -0.168818 -0.747881 -1.776301  0.000215 -0.001425 -0.000000
  2O   3s         1.131340 -1.719382  9.550886 -0.001662  0.011004  0.000003
  2O   1pz       -0.461340 -0.436320 -0.000454  0.016903  0.041199  0.000001
  2O   1px       -0.223866 -0.211446 -0.000218  0.016616 -0.079971  0.000003
  2O   1py        0.132507  0.125306  0.000130  0.087083  0.007262  0.000009
  2O   2pz        0.747077 -0.049905  3.350860  0.027914  0.072532  0.000005
  2O   2px        0.362670 -0.025096  1.626116  0.027687 -0.132819  0.000013
  2O   2py       -0.214585  0.014380 -0.962449  0.146511  0.011261  0.000034
  2O   1dz2       0.016767 -0.045338 -0.018803 -0.085258 -0.206183 -0.022430
  2O   1dxz       0.016770 -0.045155 -0.019135 -0.072217  0.174966  0.011044
  2O   1dyz      -0.009921  0.026792  0.011182 -0.238898  0.012895 -0.071502
  2O   1dx2y2     0.002646 -0.007080 -0.003100 -0.096127  0.106794  0.041446
  2O   1dxy      -0.004817  0.012967  0.005503 -0.108882 -0.077175  0.130400
                     30        31        32        33        34        35   
                   1.70593   2.11543   2.11543   2.43920   2.43920   2.48508
                   0.00000   0.00000   0.00000   0.00000   0.00000   0.00000
                  --------  --------  --------  --------  --------  --------
  0N   1s        -0.000000  0.000000 -0.000000  0.000040 -0.000026 -0.000000
  0N   2s        -0.000000  0.000000 -0.000000  0.000397 -0.000260 -0.000001
  0N   3s        -0.000002  0.000002  0.000001  0.001002 -0.000658 -0.000002
  0N   1pz       -0.000008  0.000002  0.000004  0.002807 -0.000222 -0.000001
  0N   1px        0.000014  0.000001 -0.000008 -0.003805  0.002813 -0.000001
  0N   1py       -0.000004  0.000009 -0.000000  0.002491  0.004536 -0.000005
  0N   2pz        0.000007  0.000005  0.000011  0.182761 -0.006798  0.000112
  0N   2px       -0.000010  0.000003 -0.000023 -0.272356  0.200776  0.000051
  0N   2py        0.000003  0.000026  0.000000  0.177868  0.314418  0.000471
  0N   1dz2      -0.089770 -0.138706 -0.086902 -0.611810  0.023416  0.037919
  0N   1dxz       0.260076  0.140364  0.319432  0.353885 -0.380518 -0.039646
  0N   1dyz       0.077928 -0.320671  0.189942 -0.241457 -0.610695  0.086494
  0N   1dx2y2    -0.492592  0.037174 -0.683524  0.155902 -0.361806 -0.008440
  0N   1dxy       0.161826  0.686699  0.042853 -0.316946 -0.182793 -0.188804
  1N   1s        -0.000000 -0.000000  0.000000  0.000029 -0.000019 -0.000000
  1N   2s        -0.000000 -0.000001  0.000000  0.000390 -0.000255 -0.000001
  1N   3s         0.000001 -0.000001 -0.000001 -0.000541  0.000355 -0.000001
  1N   1pz       -0.000022  0.000010  0.000020  0.101760 -0.003810  0.000058
  1N   1px        0.000039  0.000005 -0.000042 -0.151569  0.111735  0.000027
  1N   1py       -0.000012  0.000045  0.000000  0.098986  0.175006  0.000250
  1N   2pz       -0.000017 -0.000009 -0.000014 -0.245465  0.010180 -0.000147
  1N   2px        0.000034 -0.000005  0.000028  0.362450 -0.267259 -0.000067
  1N   2py       -0.000011 -0.000030  0.000000 -0.236756 -0.419696 -0.000644
  1N   1dz2      -0.109271  0.100193  0.062753 -0.209803  0.008176 -0.075092
  1N   1dxz       0.316343 -0.101415 -0.230747  0.120954 -0.130307  0.077166
  1N   1dyz       0.094750  0.231632 -0.137219 -0.082674 -0.209201 -0.171294
  1N   1dx2y2    -0.598970 -0.026869  0.493827  0.053722 -0.124193  0.015820
  1N   1dxy       0.196741 -0.496120 -0.030969 -0.108789 -0.062990  0.368736
  2O   1s         0.000000 -0.000000 -0.000000  0.000043 -0.000028 -0.000000
  2O   2s        -0.000000 -0.000000 -0.000000  0.000293 -0.000192 -0.000001
  2O   3s         0.000001 -0.000000 -0.000000 -0.001105  0.000723  0.000006
  2O   1pz        0.000005 -0.000007 -0.000014 -0.062133  0.002300 -0.000036
  2O   1px       -0.000009 -0.000004  0.000028  0.092628 -0.068283 -0.000016
  2O   1py        0.000003 -0.000030 -0.000000 -0.060492 -0.106919 -0.000151
  2O   2pz        0.000018  0.000004  0.000008  0.140629 -0.005122  0.000091
  2O   2px       -0.000030  0.000002 -0.000017 -0.209922  0.154743  0.000042
  2O   2py        0.000009  0.000019 -0.000000  0.137088  0.242209  0.000376
  2O   1dz2      -0.023794  0.063987  0.040178  0.491718 -0.018949  0.164553
  2O   1dxz       0.068754 -0.064647 -0.147324 -0.283988  0.306024 -0.168980
  2O   1dyz       0.020572  0.147933 -0.087553  0.194263  0.490402  0.375365
  2O   1dx2y2    -0.130073 -0.017074  0.314920 -0.126576  0.291738 -0.034590
  2O   1dxy       0.042706 -0.316384 -0.019704  0.255685  0.148170 -0.807583
                     36        37        38        39        40        41   
                   2.48508   2.65261   3.15581   3.36597   3.36597   3.82600
                   0.00000   0.00000   0.00000   0.00000   0.00000   0.00000
                  --------  --------  --------  --------  --------  --------
  0N   1s         0.000000  0.032462 -0.102114  0.000011 -0.000050  0.109773
  0N   2s         0.000001  0.555399 -0.648078  0.000076 -0.000342  0.647512
  0N   3s         0.000001 -0.306490 -2.957827  0.000202 -0.000908  1.504577
  0N   1pz       -0.000002  0.138590 -0.441867 -0.059444  0.062614  0.674244
  0N   1px        0.000005  0.067167 -0.214132  0.025614 -0.157848  0.326804
  0N   1py       -0.000000 -0.039802  0.126900 -0.163979 -0.047354 -0.193639
  0N   2pz        0.000214  0.501062  1.337073  0.038089 -0.039928 -0.794731
  0N   2px       -0.000441  0.243266  0.647934 -0.016464  0.101413 -0.385289
  0N   2py       -0.000000 -0.143923 -0.383993  0.105242  0.030315  0.228247
  0N   1dz2       0.022692 -0.603139 -0.466598 -0.323658  0.341746  0.481469
  0N   1dxz      -0.086500 -0.602636 -0.465231 -0.010167 -0.399959  0.480401
  0N   1dyz      -0.052920  0.356754  0.275821 -0.461397 -0.205559 -0.284671
  0N   1dx2y2     0.187915 -0.094960 -0.073071 -0.108952 -0.282967  0.075537
  0N   1dxy      -0.009923  0.173089  0.133604 -0.272741  0.070146 -0.137968
  1N   1s         0.000000  0.085811 -0.003344  0.000001 -0.000005 -0.224901
  1N   2s         0.000001  0.852655 -0.174120  0.000012 -0.000059 -1.135061
  1N   3s        -0.000000  1.213443  1.012046 -0.000049  0.000214 -2.676882
  1N   1pz        0.000113 -0.384704 -0.750556  0.007438 -0.008106  0.005571
  1N   1px       -0.000234 -0.186353 -0.363993 -0.003133  0.019371  0.002573
  1N   1py       -0.000000  0.110479  0.215566  0.020280  0.005965 -0.001593
  1N   2pz       -0.000294 -1.304473  2.871636  0.008449 -0.008154 -0.160941
  1N   2px        0.000600 -0.633057  1.392593 -0.003837  0.023477 -0.077807
  1N   2py        0.000001  0.374678 -0.824755  0.023961  0.006623  0.046211
  1N   1dz2      -0.046067 -0.270907  0.328410 -0.518397  0.547781 -0.970623
  1N   1dxz       0.170856 -0.270667  0.328197 -0.016448 -0.639956 -0.969169
  1N   1dyz       0.103892  0.160238 -0.194264 -0.738781 -0.329422  0.574007
  1N   1dx2y2    -0.366997 -0.042646  0.051730 -0.174461 -0.453247 -0.152559
  1N   1dxy       0.018871  0.077740 -0.094266 -0.436917  0.112154  0.278352
  2O   1s         0.000000  0.096425 -0.071781  0.000000  0.000000  0.069675
  2O   2s         0.000001  0.702262 -0.702148  0.000027 -0.000121  0.065376
  2O   3s        -0.000003 -2.158278  3.056500 -0.000241  0.001091  1.519516
  2O   1pz       -0.000069  0.262506 -0.163773 -0.021888  0.023172  0.426702
  2O   1px        0.000142  0.127304 -0.079450  0.009401 -0.057961  0.207025
  2O   1py       -0.000000 -0.075394  0.047038 -0.060279 -0.017454 -0.122557
  2O   2pz        0.000170 -0.912697  1.367314 -0.071580  0.076014  0.820990
  2O   2px       -0.000354 -0.442601  0.663432  0.030681 -0.189215  0.398244
  2O   2py       -0.000000  0.262133 -0.392721 -0.196918 -0.057112 -0.235800
  2O   1dz2       0.101044 -0.122604  0.534491 -0.408994  0.432417  0.626740
  2O   1dxz      -0.374369 -0.121988  0.534213 -0.013074 -0.504526  0.626262
  2O   1dyz      -0.227585  0.072431 -0.316178 -0.582739 -0.260002 -0.370721
  2O   1dx2y2     0.803777 -0.019098  0.084219 -0.137615 -0.357624  0.098693
  2O   1dxy      -0.041286  0.035027 -0.153439 -0.344770  0.088370 -0.179875
--------------
SCF ITERATIONS
--------------
               ***  Starting incremental Fock matrix formation  ***

                         ----------------------------
                         !        ITERATION     0   !
                         ----------------------------
   Total Energy        :    -184.431183187383 Eh
   Energy Change       :    -184.431183187383 Eh
   MAX-DP              :       0.136106834801
   RMS-DP              :       0.006605845168
   Actual Damping      :       0.7000
   Actual Level Shift  :       0.2500 Eh
   Int. Num. El.       :    21.99999609 (UP=   10.99999804 DN=   10.99999804)
   Exchange            :   -21.65613486
   Correlation         :    -0.74860384


                         ----------------------------
                         !        ITERATION     1   !
                         ----------------------------
   Total Energy        :    -184.465109340364 Eh
   Energy Change       :      -0.033926152981 Eh
   MAX-DP              :       0.088712092338
   RMS-DP              :       0.003894366476
   Actual Damping      :       0.7000
   Actual Level Shift  :       0.2500 Eh
   Int. Num. El.       :    21.99999599 (UP=   10.99999799 DN=   10.99999799)
   Exchange            :   -21.59672137
   Correlation         :    -0.74849364

                               ***Turning on DIIS***

                         ----------------------------
                         !        ITERATION     2   !
                         ----------------------------
   Total Energy        :    -184.472723865122 Eh
   Energy Change       :      -0.007614524758 Eh
   MAX-DP              :       0.102689297881
   RMS-DP              :       0.005097536883
   Actual Damping      :       0.0000
   Actual Level Shift  :       0.2500 Eh
   Int. Num. El.       :    21.99999595 (UP=   10.99999798 DN=   10.99999798)
   Exchange            :   -21.55777151
   Correlation         :    -0.74842138
   DIIS-Error          :       0.024978074459


                         ----------------------------
                         !        ITERATION     3   !
                         ----------------------------
   Total Energy        :    -184.493089572765 Eh
   Energy Change       :      -0.020365707643 Eh
   MAX-DP              :       0.038264810955
   RMS-DP              :       0.002214419471
   Actual Damping      :       0.0000
   Actual Level Shift  :       0.2500 Eh
   Int. Num. El.       :    21.99999597 (UP=   10.99999799 DN=   10.99999799)
   Exchange            :   -21.48949281
   Correlation         :    -0.74798606
   DIIS-Error          :       0.035241180807
   DIIS coefficients:
      0.53184   0.46816


                         ----------------------------
                         !        ITERATION     4   !
                         ----------------------------
   Total Energy        :    -184.494352884556 Eh
   Energy Change       :      -0.001263311792 Eh
   MAX-DP              :       0.015061200844
   RMS-DP              :       0.000762528428
   Actual Damping      :       0.0000
   Actual Level Shift  :       0.2500 Eh
   Int. Num. El.       :    21.99999602 (UP=   10.99999801 DN=   10.99999801)
   Exchange            :   -21.51989359
   Correlation         :    -0.74802267
   DIIS-Error          :       0.019856791877
   DIIS coefficients:
      0.29304   0.24895   0.45801


                         ----------------------------
                         !        ITERATION     5   !
                         ----------------------------
   Total Energy        :    -184.495054128174 Eh
   Energy Change       :      -0.000701243618 Eh
   MAX-DP              :       0.004675198423
   RMS-DP              :       0.000244027170
   Actual Damping      :       0.0000
   Actual Level Shift  :       0.2500 Eh
   Int. Num. El.       :    21.99999600 (UP=   10.99999800 DN=   10.99999800)
   Exchange            :   -21.52498926
   Correlation         :    -0.74818932
   DIIS-Error          :       0.005093996362
   DIIS coefficients:
      0.10818   0.15380   0.10792   0.63011

                      *** Initiating the SOSCF procedure ***
                           *** Shutting down DIIS ***
                      *** Re-Reading the Fockian *** 
                      *** Removing any level shift *** 

                         ----------------------------
                         !        ITERATION     6   !
                         ----------------------------
   Total Energy        :    -184.495107219016 Eh
   Energy Change       :      -0.000053090842 Eh
   MAX-DP              :       0.000880242561
   RMS-DP              :       0.000055754955
   Orbital gradient    :       0.000316331719
   Orbital Rotation    :       0.000316331719
   Actual Damping      :       0.0000
   Int. Num. El.       :    21.99999599 (UP=   10.99999800 DN=   10.99999800)
   Exchange            :   -21.52506447
   Correlation         :    -0.74822395

               *** Restarting incremental Fock matrix formation ***

                         ----------------------------
                         !        ITERATION     7   !
                         ----------------------------
   Total Energy        :    -184.495111472063 Eh
   Energy Change       :      -0.000004253047 Eh
   MAX-DP              :       0.000526117213
   RMS-DP              :       0.000038035734
   Orbital gradient    :       0.000167661189
   Orbital Rotation    :       0.000351470738
   Actual Damping      :       0.0000
   Int. Num. El.       :    21.99999599 (UP=   10.99999800 DN=   10.99999800)
   Exchange            :   -21.52421861
   Correlation         :    -0.74821371


                         ----------------------------
                         !        ITERATION     8   !
                         ----------------------------
   Total Energy        :    -184.495110634081 Eh
   Energy Change       :       0.000000837983 Eh
   MAX-DP              :       0.000439000798
   RMS-DP              :       0.000030885616
   Orbital gradient    :       0.000383638260
   Orbital Rotation    :       0.000332992191
   Actual Damping      :       0.0000
   Int. Num. El.       :    21.99999599 (UP=   10.99999800 DN=   10.99999800)
   Exchange            :   -21.52431091
   Correlation         :    -0.74822004


                         ----------------------------
                         !        ITERATION     9   !
                         ----------------------------
   Total Energy        :    -184.495111513502 Eh
   Energy Change       :      -0.000000879421 Eh
   MAX-DP              :       0.000407189939
   RMS-DP              :       0.000029282692
   Orbital gradient    :       0.000108804098
   Orbital Rotation    :       0.000277595086
   Actual Damping      :       0.0000
   Int. Num. El.       :    21.99999599 (UP=   10.99999800 DN=   10.99999800)
   Exchange            :   -21.52415778
   Correlation         :    -0.74821643


                         ----------------------------
                         !        ITERATION    10   !
                         ----------------------------
   Total Energy        :    -184.495110953994 Eh
   Energy Change       :       0.000000559507 Eh
   MAX-DP              :       0.000294160847
   RMS-DP              :       0.000021965095
   Orbital gradient    :       0.000324268344
   Orbital Rotation    :       0.000218425447
   Actual Damping      :       0.0000
   Int. Num. El.       :    21.99999599 (UP=   10.99999800 DN=   10.99999800)
   Exchange            :   -21.52437728
   Correlation         :    -0.74821242

                  ***Gradient check signals convergence***
              ***Rediagonalizing the Fockian in SOSCF/NRSCF***

               *****************************************************
               *                     SUCCESS                       *
               *           SCF CONVERGED AFTER  11 CYCLES          *
               *****************************************************

Setting up the final grid:

General Integration Accuracy     IntAcc      ...  5.010
Radial Grid Type                 RadialGrid  ... Gauss-Chebyshev
Angular Grid (max. acc.)         AngularGrid ... Lebedev-434
Angular grid pruning method      GridPruning ... 3 (G Style)
Weight generation scheme         WeightScheme... Becke
Basis function cutoff            BFCut       ...    1.0000e-11
Integration weight cutoff        WCut        ...    1.0000e-14
Grids for H and He will be reduced by one unit

# of grid points (after initial pruning)     ...  32022 (   0.0 sec)
# of grid points (after weights+screening)   ...  31740 (   0.0 sec)
nearest neighbour list constructed           ...    0.0 sec
Grid point re-assignment to atoms done       ...    0.0 sec
Grid point division into batches done        ...    0.3 sec
Reduced shell lists constructed in    0.3 sec

Total number of grid points                  ...    31740
Total number of batches                      ...      498
Average number of points per batch           ...       63
Average number of grid points per atom       ...    10580
Average number of shells per batch           ...    10.43 (57.94%)
Average number of basis functions per batch  ...    25.16 (59.90%)
Average number of large shells per batch     ...     8.64 (82.88%)
Average number of large basis fcns per batch ...    20.47 (81.36%)
Maximum spatial batch extension              ...  16.27, 16.80, 13.72 au
Average spatial batch extension              ...   1.13,  1.13,  1.04 au

Final grid set up in    0.4 sec
Final integration                            ... done (   0.0 sec)
Change in XC energy                          ...     0.000043973
Integrated number of electrons               ...    21.999999211
Previous integrated no of electrons          ...    21.999995992

----------------
TOTAL SCF ENERGY
----------------

Total Energy       :         -184.49506762 Eh           -5020.36602 eV

Components:
Nuclear Repulsion  :           61.51680888 Eh            1673.95747 eV
Electronic Energy  :         -246.01187651 Eh           -6694.32349 eV
One Electron Energy:         -372.25368870 Eh          -10129.53785 eV
Two Electron Energy:          126.24181219 Eh            3435.21435 eV

Virial components:
Potential Energy   :         -367.86123972 Eh          -10010.01323 eV
Kinetic Energy     :          183.36617209 Eh            4989.64721 eV
Virial Ratio       :            2.00615651


DFT components:
N(Alpha)           :       10.999999605470 electrons
N(Beta)            :       10.999999605470 electrons
N(Total)           :       21.999999210940 electrons
E(X)               :      -21.524194835288 Eh       
E(C)               :       -0.748190965186 Eh       
E(XC)              :      -22.272385800474 Eh       
DFET-embed. en.    :        0.000000000000 Eh       

---------------
SCF CONVERGENCE
---------------

  Last Energy change         ...   -6.3994e-07  Tolerance :   1.0000e-08
  Last MAX-Density change    ...    6.3533e-06  Tolerance :   1.0000e-07
  Last RMS-Density change    ...    3.8166e-07  Tolerance :   5.0000e-09
  Last Orbital Gradient      ...    2.1448e-06  Tolerance :   1.0000e-05
  Last Orbital Rotation      ...    1.6562e-06  Tolerance :   1.0000e-05

             **** THE GBW FILE WAS UPDATED (N2O.gbw) ****
             **** DENSITY FILE WAS UPDATED (N2O.scfp) ****
             **** ENERGY FILE WAS UPDATED (N2O.en.tmp) ****
             **** THE GBW FILE WAS UPDATED (N2O.gbw) ****
             **** DENSITY FILE WAS UPDATED (N2O.scfp) ****
----------------
ORBITAL ENERGIES
----------------

  NO   OCC          E(Eh)            E(eV) 
   0   2.0000     -18.863116      -513.2915 
   1   2.0000     -14.212537      -386.7428 
   2   2.0000     -14.080715      -383.1557 
   3   2.0000      -1.153920       -31.3998 
   4   2.0000      -0.996582       -27.1184 
   5   2.0000      -0.527168       -14.3450 
   6   2.0000      -0.512830       -13.9548 
   7   2.0000      -0.512830       -13.9548 
   8   2.0000      -0.402177       -10.9438 
   9   2.0000      -0.296838        -8.0774 
  10   2.0000      -0.296837        -8.0774 
  11   0.0000      -0.035833        -0.9751 
  12   0.0000      -0.035832        -0.9750 
  13   0.0000       0.105725         2.8769 
  14   0.0000       0.392475        10.6798 
  15   0.0000       0.554063        15.0768 
  16   0.0000       0.596435        16.2298 
  17   0.0000       0.596435        16.2298 
  18   0.0000       0.603068        16.4103 
  19   0.0000       0.741780        20.1849 
  20   0.0000       0.746829        20.3223 
  21   0.0000       0.746829        20.3223 
  22   0.0000       0.939917        25.5764 
  23   0.0000       0.939918        25.5765 
  24   0.0000       0.993691        27.0397 
  25   0.0000       1.131182        30.7810 
  26   0.0000       1.397063        38.0160 
  27   0.0000       1.610699        43.8293 
  28   0.0000       1.610699        43.8293 
  29   0.0000       1.718223        46.7552 
  30   0.0000       1.718224        46.7553 
  31   0.0000       2.152339        58.5681 
  32   0.0000       2.152340        58.5681 
  33   0.0000       2.494352        67.8748 
  34   0.0000       2.494352        67.8748 
  35   0.0000       2.532076        68.9013 
  36   0.0000       2.532079        68.9014 
  37   0.0000       2.707961        73.6874 
  38   0.0000       3.207670        87.2851 
  39   0.0000       3.405054        92.6562 
  40   0.0000       3.405055        92.6562 
  41   0.0000       3.870742       105.3282 
------------------
MOLECULAR ORBITALS
------------------
                      0         1         2         3         4         5   
                 -18.86312 -14.21254 -14.08071  -1.15392  -0.99658  -0.52717
                   2.00000   2.00000   2.00000   2.00000   2.00000   2.00000
                  --------  --------  --------  --------  --------  --------
  0N   1s        -0.000337  0.004106 -0.988749  0.073373  0.196690  0.077526
  0N   2s        -0.004052  0.002955  0.042351  0.138362  0.394094  0.173589
  0N   3s        -0.015160 -0.026903  0.011832  0.054369  0.144550  0.144831
  0N   1pz       -0.001329  0.003511  0.004629  0.075797  0.194270 -0.006870
  0N   1px       -0.000644  0.001702  0.002244  0.036749  0.094171 -0.003221
  0N   1py        0.000382 -0.001008 -0.001329 -0.021769 -0.055794  0.001967
  0N   2pz        0.005649  0.009057 -0.009409 -0.018913 -0.044176 -0.003086
  0N   2px        0.002736  0.004389 -0.004559 -0.009168 -0.021412 -0.001533
  0N   2py       -0.001622 -0.002601  0.002702  0.005432  0.012687  0.000888
  0N   1dz2      -0.000324  0.001462  0.001580  0.006002  0.013638 -0.001614
  0N   1dxz      -0.000322  0.001459  0.001577  0.005992  0.013609 -0.001596
  0N   1dyz       0.000191 -0.000864 -0.000934 -0.003549 -0.008064  0.000952
  0N   1dx2y2    -0.000051  0.000229  0.000248  0.000943  0.002140 -0.000248
  0N   1dxy       0.000093 -0.000419 -0.000453 -0.001721 -0.003909  0.000458
  1N   1s         0.000458  0.988203  0.003436  0.219406  0.109098 -0.120317
  1N   2s         0.000383 -0.044290 -0.002600  0.452251  0.220475 -0.296696
  1N   3s        -0.007823  0.019877 -0.001654  0.078855  0.057132 -0.148738
  1N   1pz        0.001534  0.000658  0.002632  0.102042 -0.327770 -0.197117
  1N   1px        0.000744  0.000318  0.001276  0.049522 -0.158932 -0.095333
  1N   1py       -0.000441 -0.000189 -0.000756 -0.029309  0.094137  0.056599
  1N   2pz        0.024247  0.025658 -0.030837 -0.027224  0.007395  0.010466
  1N   2px        0.011760  0.012442 -0.014954 -0.013205  0.003584  0.004939
  1N   2py       -0.006964 -0.007369  0.008857  0.007819 -0.002124 -0.002998
  1N   1dz2       0.001795 -0.003514 -0.001286  0.019125  0.003021  0.001669
  1N   1dxz       0.001793 -0.003510 -0.001283  0.019100  0.003010  0.001670
  1N   1dyz      -0.001062  0.002078  0.000761 -0.011311 -0.001786 -0.000987
  1N   1dx2y2     0.000282 -0.000553 -0.000202  0.003008  0.000472  0.000264
  1N   1dxy      -0.000515  0.001008  0.000369 -0.005486 -0.000864 -0.000480
  2O   1s         0.988648  0.000321  0.000343  0.198415 -0.131388  0.191543
  2O   2s        -0.042289 -0.000143  0.003771  0.397612 -0.268781  0.392360
  2O   3s         0.042311  0.022937 -0.028958  0.169893 -0.175597  0.410904
  2O   1pz       -0.003156  0.002456  0.000345  0.162806 -0.086235 -0.366867
  2O   1px       -0.001531  0.001192  0.000168  0.078976 -0.041840 -0.178133
  2O   1py        0.000907 -0.000706 -0.000099 -0.046760  0.024768  0.105379
  2O   2pz        0.012306  0.011074 -0.010304  0.038559 -0.036224 -0.181474
  2O   2px        0.005970  0.005373 -0.005000  0.018704 -0.017577 -0.088117
  2O   2py       -0.003534 -0.003181  0.002960 -0.011075  0.010404  0.052127
  2O   1dz2      -0.000307  0.002186 -0.000157  0.011314 -0.005347 -0.013802
  2O   1dxz      -0.000307  0.002184 -0.000157  0.011302 -0.005344 -0.013804
  2O   1dyz       0.000182 -0.001293  0.000093 -0.006692  0.003163  0.008166
  2O   1dx2y2    -0.000048  0.000344 -0.000025  0.001780 -0.000842 -0.002178
  2O   1dxy       0.000088 -0.000627  0.000045 -0.003246  0.001535  0.003965
                      6         7         8         9        10        11   
                  -0.51283  -0.51283  -0.40218  -0.29684  -0.29684  -0.03583
                   2.00000   2.00000   2.00000   2.00000   2.00000   0.00000
                  --------  --------  --------  --------  --------  --------
  0N   1s         0.000017  0.000019 -0.194616 -0.000003  0.000002 -0.000033
  0N   2s         0.000036  0.000041 -0.402955  0.000002 -0.000002 -0.000102
  0N   3s         0.000040  0.000045 -0.587808  0.000073 -0.000052  0.000106
  0N   1pz        0.117807  0.037383  0.372362 -0.083608  0.186680 -0.226767
  0N   1px       -0.141069 -0.179415  0.180493  0.321609 -0.198246  0.299824
  0N   1py        0.172100 -0.172655 -0.106941  0.251546  0.315512 -0.283027
  0N   2pz       -0.044982 -0.014278 -0.115370  0.056238 -0.125612  0.243656
  0N   2px        0.053856  0.068497 -0.055918 -0.216453  0.133427 -0.322326
  0N   2py       -0.065705  0.065920  0.033134 -0.169278 -0.212341  0.304252
  0N   1dz2       0.021526  0.006830  0.016854 -0.007050  0.015737  0.009112
  0N   1dxz      -0.008858 -0.017017  0.016821  0.013677 -0.005243 -0.004411
  0N   1dyz       0.014587 -0.019347 -0.009966  0.013410  0.012744  0.005059
  0N   1dx2y2    -0.002000 -0.014407  0.002646  0.011102 -0.000267 -0.001487
  0N   1dxy       0.013076 -0.003394 -0.004831  0.001439  0.010213  0.005184
  1N   1s        -0.000019 -0.000022  0.074490 -0.000000  0.000000  0.000047
  1N   2s        -0.000052 -0.000058  0.177191  0.000005 -0.000004  0.000082
  1N   3s        -0.000020 -0.000022  0.200181 -0.000046  0.000032  0.000456
  1N   1pz        0.236086  0.074899 -0.195124 -0.023981  0.053484  0.261859
  1N   1px       -0.282735 -0.359589 -0.094607  0.092079 -0.056757 -0.346293
  1N   1py        0.344923 -0.346023  0.056040  0.072045  0.090343  0.326887
  1N   2pz       -0.121554 -0.038585  0.110863  0.011933 -0.026776 -0.246907
  1N   2px        0.145528  0.185088  0.053747 -0.046277  0.028529  0.326175
  1N   2py       -0.177545  0.178128 -0.031840 -0.036138 -0.045375 -0.307928
  1N   1dz2       0.004602  0.001465 -0.006875  0.016767 -0.037412  0.008925
  1N   1dxz      -0.001885 -0.003629 -0.006860 -0.032501  0.012453 -0.004346
  1N   1dyz       0.003113 -0.004134  0.004065 -0.031879 -0.030289  0.004975
  1N   1dx2y2    -0.000430 -0.003081 -0.001079 -0.026395  0.000638 -0.001460
  1N   1dxy       0.002797 -0.000731  0.001970 -0.003428 -0.024282  0.005089
  2O   1s         0.000059  0.000066  0.014833 -0.000000  0.000000 -0.000034
  2O   2s         0.000117  0.000132  0.020379  0.000003 -0.000003 -0.000080
  2O   3s         0.000143  0.000162  0.085623 -0.000074  0.000052 -0.000315
  2O   1pz       -0.148325 -0.047216 -0.127056 -0.103488  0.230810  0.165103
  2O   1px        0.177305  0.225516 -0.061698  0.397355 -0.244930 -0.218566
  2O   1py       -0.216363  0.217174  0.036496  0.310902  0.389867  0.206296
  2O   2pz       -0.074501 -0.023711 -0.055502 -0.074315  0.165708  0.159627
  2O   2px        0.089067  0.113285 -0.026959  0.285234 -0.175818 -0.211444
  2O   2py       -0.108685  0.109089  0.015943  0.223192  0.279866  0.199562
  2O   1dz2      -0.019690 -0.006258 -0.002547 -0.005154  0.011494 -0.009593
  2O   1dxz       0.008084  0.015544 -0.002548  0.009982 -0.003823  0.004634
  2O   1dyz      -0.013329  0.017692  0.001507  0.009794  0.009304 -0.005321
  2O   1dx2y2     0.001831  0.013174 -0.000402  0.008110 -0.000197  0.001567
  2O   1dxy      -0.011956  0.003111  0.000732  0.001055  0.007461 -0.005456
                     12        13        14        15        16        17   
                  -0.03583   0.10573   0.39247   0.55406   0.59644   0.59644
                   0.00000   0.00000   0.00000   0.00000   0.00000   0.00000
                  --------  --------  --------  --------  --------  --------
  0N   1s        -0.000030  0.120025  0.046087 -0.084096 -0.000181 -0.000119
  0N   2s        -0.000092  0.391057  0.409335 -0.199225 -0.000953 -0.000625
  0N   3s         0.000095 -0.429013 -5.434534 -3.377408  0.001794  0.001177
  0N   1pz       -0.044608  0.282978 -0.211566  0.077751  0.295259  0.009472
  0N   1px        0.303273  0.137403 -0.102579  0.037721 -0.440677 -0.320468
  0N   1py        0.357012 -0.081282  0.060762 -0.022332  0.283128 -0.508673
  0N   2pz        0.047863 -0.010167  2.501313  2.089746  0.221468  0.006960
  0N   2px       -0.326029 -0.005303  1.212398  1.012965 -0.331003 -0.240705
  0N   2py       -0.383727  0.002940 -0.718364 -0.600168  0.212658 -0.381904
  0N   1dz2       0.001789 -0.001170  0.023671  0.022598  0.041230  0.001309
  0N   1dxz      -0.006540 -0.001188  0.023625  0.022554 -0.024008 -0.025484
  0N   1dyz      -0.008583  0.000695 -0.013997 -0.013362  0.016002 -0.041248
  0N   1dx2y2    -0.005793 -0.000192  0.003716  0.003548 -0.010674 -0.024316
  0N   1dxy      -0.001994  0.000342 -0.006785 -0.006477  0.021283 -0.012466
  1N   1s         0.000043 -0.117993  0.233662 -0.123332  0.000077  0.000050
  1N   2s         0.000074 -0.163547  1.051720 -0.753689  0.000481  0.000316
  1N   3s         0.000414 -1.712514  2.117141  3.519834 -0.001140 -0.000750
  1N   1pz        0.051483 -0.130415 -0.030759 -0.635258  0.329516  0.010393
  1N   1px       -0.350275 -0.063590 -0.014886 -0.307916 -0.492369 -0.358047
  1N   1py       -0.412312  0.037474  0.008833  0.182443  0.316333 -0.568125
  1N   2pz       -0.048679  1.015835  3.825023  1.723436  0.396593  0.012231
  1N   2px        0.329935  0.493071  1.854684  0.835734 -0.593478 -0.431556
  1N   2py        0.388518 -0.291779 -1.098562 -0.494981  0.381282 -0.684456
  1N   1dz2       0.001740  0.051649 -0.028750  0.014900 -0.021310 -0.000667
  1N   1dxz      -0.006433  0.051564 -0.028726  0.014893  0.012434  0.013189
  1N   1dyz      -0.008415 -0.030543  0.017005 -0.008814 -0.008284  0.021331
  1N   1dx2y2    -0.005684  0.008115 -0.004527  0.002348  0.005515  0.012572
  1N   1dxy      -0.001951 -0.014809  0.008251 -0.004278 -0.011006  0.006436
  2O   1s        -0.000031  0.125641 -0.014589  0.015405  0.000032  0.000021
  2O   2s        -0.000072  0.285867 -0.162520 -0.092033  0.000154  0.000102
  2O   3s        -0.000286  1.468090  2.596054  0.848693 -0.000311 -0.000203
  2O   1pz        0.032371  0.371471 -0.192868  0.216506 -0.111948 -0.003563
  2O   1px       -0.221072  0.180028 -0.093560  0.104991  0.167171  0.121569
  2O   1py       -0.260129 -0.106683  0.055395 -0.062182 -0.107403  0.192932
  2O   2pz        0.031247  0.804236  0.906390  0.547506  0.006180  0.000156
  2O   2px       -0.213864  0.389976  0.439897  0.265706 -0.009361 -0.006807
  2O   2py       -0.251593 -0.230980 -0.260340 -0.157258  0.006012 -0.010755
  2O   1dz2      -0.001888  0.005447  0.035478 -0.052962 -0.016138 -0.000513
  2O   1dxz       0.006877  0.005458  0.035439 -0.052920  0.009395  0.009975
  2O   1dyz       0.009033 -0.003225 -0.020984  0.031327 -0.006264  0.016143
  2O   1dx2y2     0.006097  0.000864  0.005582 -0.008339  0.004182  0.009521
  2O   1dxy       0.002103 -0.001568 -0.010179  0.015200 -0.008333  0.004884
                     18        19        20        21        22        23   
                   0.60307   0.74178   0.74683   0.74683   0.93992   0.93992
                   0.00000   0.00000   0.00000   0.00000   0.00000   0.00000
                  --------  --------  --------  --------  --------  --------
  0N   1s         0.237122  0.071440  0.000052  0.000033  0.000001  0.000000
  0N   2s         1.263332  0.505237  0.000385  0.000243 -0.000021 -0.000013
  0N   3s        -2.976135  1.419006  0.000606  0.000382 -0.002308 -0.001352
  0N   1pz       -0.379560  0.325900 -0.351920 -0.006332  0.031389  0.057676
  0N   1px       -0.184623  0.157306  0.530990  0.375441 -0.107699 -0.055470
  0N   1py        0.109037 -0.093564 -0.329813  0.611208 -0.072702  0.107078
  0N   2pz        0.284926 -0.278914 -0.602755 -0.011058  0.138834  0.254075
  0N   2px        0.137598 -0.136169  0.908765  0.642562 -0.473120 -0.243652
  0N   2py       -0.081806  0.080151 -0.564465  1.046311 -0.319882  0.470650
  0N   1dz2      -0.016146 -0.011164 -0.010313 -0.000193  0.012978  0.023902
  0N   1dxz      -0.016170 -0.011143  0.006081  0.006287 -0.022183 -0.006611
  0N   1dyz       0.009556  0.006601 -0.003860  0.010364 -0.019553  0.021689
  0N   1dx2y2    -0.002557 -0.001753  0.002747  0.006041 -0.017503  0.000926
  0N   1dxy       0.004645  0.003200 -0.005276  0.003186 -0.001019  0.016246
  1N   1s        -0.114075  0.029047  0.000017  0.000011 -0.000030 -0.000017
  1N   2s        -0.766775  0.439735  0.000261  0.000164 -0.000158 -0.000091
  1N   3s         1.998980  0.065149  0.000478  0.000301  0.001646  0.000965
  1N   1pz       -0.024014  0.103814  0.250702  0.004601 -0.086934 -0.160060
  1N   1px       -0.012213  0.050768 -0.377976 -0.267257  0.299270  0.154147
  1N   1py        0.006922 -0.029837  0.234774 -0.435187  0.201863 -0.297464
  1N   2pz        1.001324 -2.239430  0.502430  0.008305 -0.270240 -0.499230
  1N   2px        0.484793 -1.085187 -0.760480 -0.537656  0.935542  0.481926
  1N   2py       -0.287551  0.643140  0.472340 -0.874478  0.630220 -0.929482
  1N   1dz2      -0.008818  0.082210  0.056346  0.001071  0.010414  0.019105
  1N   1dxz      -0.008779  0.082144 -0.033176 -0.034318 -0.017638 -0.005240
  1N   1dyz       0.005211 -0.048627  0.021065 -0.056602 -0.015636  0.017284
  1N   1dx2y2    -0.001376  0.012945 -0.015014 -0.032998 -0.013953  0.000745
  1N   1dxy       0.002521 -0.023593  0.028816 -0.017421 -0.000830  0.012950
  2O   1s        -0.061150 -0.194399 -0.000145 -0.000091 -0.000001 -0.000000
  2O   2s        -0.342622 -0.752101 -0.000586 -0.000370 -0.000002 -0.000000
  2O   3s         0.653787 -1.372375 -0.001002 -0.000631  0.000994  0.000581
  2O   1pz        0.034748  0.438864 -0.171587 -0.002944 -0.194972 -0.358554
  2O   1px        0.017033  0.212438  0.259366  0.183383  0.669867  0.345031
  2O   1py       -0.009988 -0.126025 -0.161095  0.298381  0.452040 -0.665939
  2O   2pz        0.227963 -1.511428  0.072702  0.000676  0.318318  0.585002
  2O   2px        0.110655 -0.733009 -0.111761 -0.078989 -1.092450 -0.562679
  2O   2py       -0.065478  0.434096  0.069400 -0.127886 -0.737397  1.086137
  2O   1dz2      -0.017647 -0.005446 -0.014840 -0.000283 -0.014213 -0.026147
  2O   1dxz      -0.017610 -0.005443  0.008736  0.009037  0.024237  0.007211
  2O   1dyz       0.010434  0.003221 -0.005546  0.014907  0.021386 -0.023710
  2O   1dx2y2    -0.002770 -0.000858  0.003952  0.008689  0.019155 -0.001004
  2O   1dxy       0.005058  0.001563 -0.007587  0.004587  0.001131 -0.017781
                     24        25        26        27        28        29   
                   0.99369   1.13118   1.39706   1.61070   1.61070   1.71822
                   0.00000   0.00000   0.00000   0.00000   0.00000   0.00000
                  --------  --------  --------  --------  --------  --------
  0N   1s        -0.123392 -0.047316 -0.114653  0.000033  0.000152  0.000000
  0N   2s        -0.639323 -0.309376 -1.101551  0.000295  0.001358  0.000000
  0N   3s         4.818984 -8.336825 -7.139605  0.002312  0.010645  0.000001
  0N   1pz       -0.718321 -0.133355 -0.090547 -0.080403 -0.085045  0.000009
  0N   1px       -0.348234 -0.064547 -0.043637  0.034308  0.213918 -0.000018
  0N   1py        0.206301  0.038294  0.025992 -0.222304  0.063773 -0.000001
  0N   2pz       -2.439882  3.507560  2.811430 -0.030279 -0.035373 -0.000008
  0N   2px       -1.182896  1.700361  1.362416  0.012060  0.075944  0.000016
  0N   2py        0.700735 -1.007366 -0.807413 -0.080838  0.024515  0.000001
  0N   1dz2       0.078844 -0.058357 -0.057457  0.230278  0.244195  0.052705
  0N   1dxz       0.078661 -0.058340 -0.057850  0.007811 -0.284851 -0.208118
  0N   1dyz      -0.046616  0.034523  0.034062  0.329095 -0.146025 -0.139260
  0N   1dx2y2     0.012366 -0.009200 -0.009222  0.078032 -0.201497  0.458489
  0N   1dxy      -0.022591  0.016757  0.016624  0.194278  0.050296 -0.002379
  1N   1s         0.116815 -0.085640 -0.050647  0.000015  0.000070  0.000000
  1N   2s         0.732477 -0.585442 -0.614545  0.000168  0.000771  0.000000
  1N   3s        -4.000507  7.180160  0.600357 -0.000691 -0.003178 -0.000000
  1N   1pz       -0.629502  0.314411  0.258413 -0.012298 -0.013257  0.000019
  1N   1px       -0.305106  0.152297  0.125356  0.005184  0.032378 -0.000041
  1N   1py        0.180790 -0.090292 -0.074220 -0.033789  0.009792 -0.000002
  1N   2pz       -2.821002  5.964863  9.030642  0.034120  0.027081  0.000019
  1N   2px       -1.367449  2.891507  4.379352 -0.016874 -0.103206 -0.000043
  1N   2py        0.810184 -1.713093 -2.593665  0.102087 -0.025718 -0.000002
  1N   1dz2      -0.050001  0.089922 -0.150972 -0.323707 -0.343157  0.077579
  1N   1dxz      -0.049804  0.090023 -0.150102 -0.010978  0.400630 -0.305988
  1N   1dyz       0.029548 -0.053219  0.089171 -0.462689  0.205167 -0.204701
  1N   1dx2y2    -0.007810  0.014228 -0.023471 -0.109682  0.283428  0.673786
  1N   1dxy       0.014302 -0.025860  0.043097 -0.273263 -0.070742 -0.003458
  2O   1s         0.032344  0.128142 -0.207557  0.000027  0.000125  0.000000
  2O   2s         0.124279  0.758578 -1.786833  0.000299  0.001380  0.000000
  2O   3s        -1.086151  1.591241  9.542217 -0.002307 -0.010626 -0.000001
  2O   1pz        0.464948  0.450361  0.012377 -0.034938 -0.037254 -0.000005
[...]
                                                                              
------------------------------------------------------------------------------
Method:  dft/svp 
  
Egcp:       0.0107241289 a.u.
------------------   -----------------
gCP correction             0.010724129
------------------   -----------------

-------------------------   --------------------
FINAL SINGLE POINT ENERGY      -184.491236121137
-------------------------   --------------------

                                *** OPTIMIZATION RUN DONE ***

                            ***************************************
                            *     ORCA property calculations      *
                            ***************************************

                                    ---------------------
                                    Active property flags
                                    ---------------------
   (+) Dipole Moment


------------------------------------------------------------------------------
                       ORCA ELECTRIC PROPERTIES CALCULATION
------------------------------------------------------------------------------

Dipole Moment Calculation                       ... on
Quadrupole Moment Calculation                   ... off
Polarizability Calculation                      ... off
GBWName                                         ... N2O.gbw
Electron density file                           ... N2O.scfp
The origin for moment calculation is the CENTER OF MASS  = ( 7.143837,  6.587468 -5.919836)

-------------
DIPOLE MOMENT
-------------
                                X             Y             Z
Electronic contribution:     -0.02786       0.01655      -0.05758
Nuclear contribution   :     -0.00404       0.00239      -0.00833
                        -----------------------------------------
Total Dipole Moment    :     -0.03190       0.01894      -0.06591
                        -----------------------------------------
Magnitude (a.u.)       :      0.07564
Magnitude (Debye)      :      0.19225



--------------------
Rotational spectrum 
--------------------
 
Rotational constants in cm-1: 153905833.181238     0.410428     0.410428 
Rotational constants in MHz : 4613980802994.136719 12304.331516 12304.331484 

 Dipole components along the rotational axes: 
x,y,z [a.u.] :    -0.075636    -0.000055     0.000000 
x,y,z [Debye]:    -0.192251    -0.000140     0.000001 

 


           ************************************************************
           *        Program running with 4 parallel MPI-processes     *
           *              working on a common directory               *
           ************************************************************

-------------------------------------------------------------------------------
                               ORCA SCF HESSIAN
-------------------------------------------------------------------------------

Hessian of the Kohn-Sham DFT energy:
Kohn-Sham wavefunction type                      ... RKS
Hartree-Fock exchange scaling                    ...    0.000
Number of operators                              ...    1
Number of atoms                                  ...    3
Basis set dimensions                             ...   42
Integral neglect threshold                       ... 2.5e-11
Integral primitive cutoff                        ... 2.5e-12

Setting up DFT Hessian calculations              ... 
Electron density on the grid                     ... found on disk
Electron density on the final grid               ... found on disk
Building xc-kernel on the grid                   ... done   (      0.0 sec)
Building xc-kernel on the final grid             ... done   (      0.0 sec)
                                                     done   (      0.1 sec)

Nuclear repulsion Hessian                        ... done   (      0.0 sec)

----------------------------------------------------------
Detailed info about batch handling over perturbations
----------------------------------------------------------

Number of atoms                                    3
Total number of perturbations                      9
Number of perturbations per process                3
Storage mode                                  InCore

Batching info for step 0
Memory available                   ...       1005.2 MB
Memory needed per perturbation     ...          0.0 MB
Number of perturbations per batch  ...            3
Number of batches                  ...            1

Batching info for step 1
Memory available                   ...       1005.2 MB
Memory needed per perturbation     ...          0.0 MB
Number of perturbations per batch  ...            3
Number of batches                  ...            1

Batching info for step 2
Memory available                   ...       1005.2 MB
Memory needed per perturbation     ...          0.0 MB
Number of perturbations per batch  ...            1
Number of batches                  ...            3

Batching info for step 3
Memory available                   ...       1005.2 MB
Memory needed per perturbation     ...          0.0 MB
Number of perturbations per batch  ...            3
Number of batches                  ...            1

Batching info for step 4
Memory available                   ...       1005.2 MB
Memory needed per perturbation     ...          0.0 MB
Number of perturbations per batch  ...            3
Number of batches                  ...            1

Batching info for step 5
Memory available                   ...       1005.2 MB
Memory needed per perturbation     ...          0.3 MB
Number of perturbations per batch  ...            3
Number of batches                  ...            1

Batching info for step 6
Memory available                   ...       1005.2 MB
Memory needed per perturbation     ...          0.1 MB
Number of perturbations per batch  ...            3
Number of batches                  ...            1


----------------------------------------------
Forming right-hand sides of CP-SCF equations     ...
----------------------------------------------

------------------------
Batching info for step 0
------------------------
Number of perturbation per batch  ...            3
Number of batches                 ...            1
Storage mode                      ...       InCore

One electron integral derivatives                ... done   (      0.1 sec)

------------------------
Batching info for step 1
------------------------
Number of perturbation per batch  ...            3
Number of batches                 ...            1
Storage mode                      ...       InCore

Transforming the overlap derivative matrices     ... done   (      0.0 sec)

------------------------
Batching info for step 1
------------------------
Number of perturbation per batch  ...            3
Number of batches                 ...            1
Storage mode                      ...       InCore

Making the Q(x) pseudodensities                  ... done   (      0.0 sec)
Adding the E*S(x)*S(y) terms to the Hessian      ... done   (      0.0 sec)
Calculating energy weighted overlap derivatives  ... done   (      0.0 sec)

------------------------
Batching info for step 3
------------------------
Number of perturbation per batch  ...            3
Number of batches                 ...            1
Storage mode                      ...       InCore

Two electron integral derivatives (RI)           ... done   (      0.4 sec)

------------------------
Batching info for step 4
------------------------
Number of perturbation per batch  ...            3
Number of batches                 ...            1
Storage mode                      ...       InCore

Exchange-correlation integral derivatives        ... done   (      0.6 sec)
tr(F(y)Q(x)) contribution to the Hessian         ... done   (      0.0 sec)

------------------------
Batching info for step 5
------------------------
Number of perturbation per batch  ...            3
Number of batches                 ...            1
Storage mode                      ...       InCore

Response fock operator R(S(x)) (RI)              ... (RIJ)done   (      0.2 sec)

------------------------
Batching info for step 6
------------------------
Number of perturbation per batch  ...            3
Number of batches                 ...            1
Storage mode                      ...       InCore

XC Response fock operator R(S(x))                ... done   (      0.2 sec)
tr(F(y)S(x)) contribution to the Hessian         ... done   (      0.0 sec)
Transforming and finalizing RHSs                 ... done   (      0.0 sec)

----------------------------------------------
Solving the CP-SCF equations (RI)                ...
----------------------------------------------
     CP-SCF ITERATION   0: 
     CP-SCF ITERATION   1:      0.018850780578
     CP-SCF ITERATION   2:      0.002122187998
     CP-SCF ITERATION   3:      0.000043376039
     CP-SCF ITERATION   4:      0.000000977946
     CP-SCF ITERATION   5:      0.000000009110

                                                 ... done   (      1.9 sec)
Forming perturbed density Hessian contributions  ... done   (      0.0 sec)
Making the perturbed densities                   ... done   (      0.0 sec)
2nd integral derivative contribs (RI)            ... done   (      0.3 sec)
Exchange-correlation Hessian                     ... done   (      0.8 sec)
Dispersion correction in the Hessian             ... 
The revPBE functional is recognized
Active option DFTDOPT                   ...         5   



------------------- 
Dispersion Gradient 
------------------- 
   1  :    0.000135007   -0.000079743    0.000277648
   2  :    0.000000023   -0.000000020    0.000000070
   3  :   -0.000136106    0.000080398   -0.000279932

  |G| =    0.000988946


The revPBE functional is recognized
Active option DFTDOPT                   ...         5   



------------------- 
Dispersion Gradient 
------------------- 
   1  :    0.000133903   -0.000079522    0.000276879
   2  :    0.000000076   -0.000000037    0.000000130
   3  :   -0.000135093    0.000080220   -0.000279312

  |G| =    0.000985173


The revPBE functional is recognized
Active option DFTDOPT                   ...         5   



------------------- 
Dispersion Gradient 
------------------- 
   1  :    0.000134463   -0.000079649    0.000277281
   2  :    0.000000028    0.000000008    0.000000057
   3  :   -0.000135586    0.000080289   -0.000279594

  |G| =    0.000986955


The revPBE functional is recognized
Active option DFTDOPT                   ...         5   



------------------- 
Dispersion Gradient 
------------------- 
   1  :    0.000134447   -0.000079615    0.000277247
   2  :    0.000000071   -0.000000065    0.000000143
   3  :   -0.000135612    0.000080329   -0.000279649

  |G| =    0.000987179


The revPBE functional is recognized
Active option DFTDOPT                   ...         5   



------------------- 
Dispersion Gradient 
------------------- 
   1  :    0.000134098   -0.000079421    0.000276175
   2  :    0.000000007   -0.000000003   -0.000000000
   3  :   -0.000135243    0.000080098   -0.000278520

  |G| =    0.000983565


The revPBE functional is recognized
Active option DFTDOPT                   ...         5   



------------------- 
Dispersion Gradient 
------------------- 
   1  :    0.000134810   -0.000079842    0.000278351
   2  :    0.000000093   -0.000000054    0.000000201
   3  :   -0.000135955    0.000080520   -0.000280726

  |G| =    0.000990552


Dispersion correction Hessian from Numerical Differentiation: 
                  0          1          2          3          4          5    
      0       0.000110   0.000000   0.000000   0.000000   0.000002   0.000000
      1       0.000000   0.000000   0.000000   0.000000  -0.000003   0.000000
      2       0.000000   0.000000   0.000000   0.000000   0.000003   0.000000
      3       0.000000   0.000000   0.000000   0.000000  -0.000004   0.000000
      4       0.000002  -0.000003   0.000003  -0.000004   0.000007   0.000000
      5       0.000000   0.000000   0.000000   0.000000   0.000000   0.000000
      6       0.000000   0.000000   0.000000   0.000000   0.000000   0.000000
      7       0.000000   0.000000   0.000000   0.000000   0.000000   0.000000
      8      -0.000071   0.000042  -0.000218  -0.000009   0.000005  -0.000020
                   6          7          8    
      0       0.000000   0.000000  -0.000071
      1       0.000000   0.000000   0.000042
      2       0.000000   0.000000  -0.000218
      3       0.000000   0.000000  -0.000009
      4       0.000000   0.000000   0.000005
      5       0.000000   0.000000  -0.000020
      6       0.000000   0.000000   0.000071
      7       0.000000   0.000000  -0.000042
      8       0.000071  -0.000042   0.000221

done   (      0.2 sec)
gCP correction in the Hessian                    ...  
-----------------
gCP hessian 
from Numerical Differentiation: 
-----------------
                  0          1          2          3          4          5    
      0      -0.000760  -0.000336   0.001172   0.000679   0.000264  -0.000918
      1      -0.000336  -0.001129  -0.000694   0.000264   0.000968   0.000544
      2       0.001172  -0.000694   0.001088  -0.000918   0.000544  -0.000769
      3       0.000679   0.000264  -0.000918  -0.001424  -0.000548   0.001907
      4       0.000264   0.000968   0.000544  -0.000548  -0.002025  -0.001130
      5      -0.000918   0.000544  -0.000769   0.001907  -0.001130   0.001584
      6       0.000081   0.000073  -0.000254   0.000745   0.000284  -0.000989
      7       0.000073   0.000161   0.000150   0.000284   0.001057   0.000586
      8      -0.000254   0.000150  -0.000319  -0.000989   0.000586  -0.000815
                   6          7          8    
      0       0.000081   0.000073  -0.000254
      1       0.000073   0.000161   0.000150
      2      -0.000254   0.000150  -0.000319
      3       0.000745   0.000284  -0.000989
      4       0.000284   0.001057   0.000586
      5      -0.000989   0.000586  -0.000815
      6      -0.000827  -0.000357   0.001243
      7      -0.000357  -0.001218  -0.000736
      8       0.001243  -0.000736   0.001134

done   (      0.0 sec)
Dipol derivatives                                ... done   (      0.1 sec)

-------
TIMINGS
-------

Total SCF Hessian time: 0 days 0 hours 0 min 5 sec 
                   F(y)            G[Q(x)]           CPSCF         Total
Table01         0.4  0.08         0.2  0.04         1.9  0.36         5.3 
Table01a        0.4  0.08,        0.2, 0.04,        1.9  0.36         5.3 
Table01b        0.4   7.8,        0.2,  3.7,        1.9  36.3         5.3 

Writing the Hessian file to the disk             ... done


Maximum memory used throughout the entire calculation: 131.7 MB
Warning: T+R between 5 and 0 = 1.246e-11

-----------------------
VIBRATIONAL FREQUENCIES
-----------------------

Scaling factor for frequencies =  1.000000000  (already applied!)

   0:         0.00 cm**-1
   1:         0.00 cm**-1
   2:         0.00 cm**-1
   3:         0.00 cm**-1
   4:         0.00 cm**-1
   5:         0.00 cm**-1
   6:       579.63 cm**-1
   7:      1327.20 cm**-1
   8:      2324.79 cm**-1


------------
NORMAL MODES
------------

These modes are the Cartesian displacements weighted by the diagonal matrix
M(i,i)=1/sqrt(m[i]) where m[i] is the mass of the displaced atom
Thus, these vectors are normalized but *not* orthogonal

                  0          1          2          3          4          5    
      0       0.000000   0.000000   0.000000   0.000000   0.000000   0.000000
      1       0.000000   0.000000   0.000000   0.000000   0.000000   0.000000
      2       0.000000   0.000000   0.000000   0.000000   0.000000   0.000000
      3       0.000000   0.000000   0.000000   0.000000   0.000000   0.000000
      4       0.000000   0.000000   0.000000   0.000000   0.000000   0.000000
      5       0.000000   0.000000   0.000000   0.000000   0.000000   0.000000
      6       0.000000   0.000000   0.000000   0.000000   0.000000   0.000000
      7       0.000000   0.000000   0.000000   0.000000   0.000000   0.000000
      8       0.000000   0.000000   0.000000   0.000000   0.000000   0.000000
                   6          7          8    
      0       0.374445  -0.280000  -0.221829
      1       0.138978   0.165855   0.131391
      2      -0.141642  -0.577453  -0.457467
      3      -0.735282  -0.071900   0.343452
      4      -0.272945   0.042526  -0.203371
      5       0.278240  -0.148121   0.708139
      6       0.315910   0.308086  -0.106480
      7       0.117288  -0.182435   0.063018
      8      -0.119590   0.635234  -0.219461


-----------
IR SPECTRUM
-----------

 Mode    freq (cm**-1)   T**2         TX         TY         TZ
-------------------------------------------------------------------
   6:       579.63    7.784976  ( -2.464767  -0.915376   0.933802)
   7:      1327.20   33.115662  ( -2.430739   1.439983  -5.013344)
   8:      2324.79  266.507683  (  6.897494  -4.084320  14.221484)

The first frequency considered to be a vibration is 6
The total number of vibrations considered is 3


--------------------------
THERMOCHEMISTRY AT 298.15K
--------------------------

Temperature         ... 298.15 K
Pressure            ... 1.00 atm
Total Mass          ... 44.01 AMU

Throughout the following assumptions are being made:
  (1) The electronic state is orbitally nondegenerate
  (2) There are no thermally accessible electronically excited states
  (3) Hindered rotations indicated by low frequency modes are not
      treated as such but are treated as vibrations and this may
      cause some error
  (4) All equations used are the standard statistical mechanics
      equations for an ideal gas
  (5) All vibrations are strictly harmonic

freq.     579.63  E(vib)   ...       0.11 
freq.    1327.20  E(vib)   ...       0.01 
freq.    2324.79  E(vib)   ...       0.00 

------------
INNER ENERGY
------------

The inner energy is: U= E(el) + E(ZPE) + E(vib) + E(rot) + E(trans)
    E(el)   - is the total energy from the electronic structure calculation
              = E(kin-el) + E(nuc-el) + E(el-el) + E(nuc-nuc)
    E(ZPE)  - the the zero temperature vibrational energy from the frequency calculation
    E(vib)  - the the finite temperature correction to E(ZPE) due to population
              of excited vibrational states
    E(rot)  - is the rotational thermal energy
    E(trans)- is the translational thermal energy

Summary of contributions to the inner energy U:
Electronic energy                ...   -184.49123612 Eh
Zero point energy                ...      0.00964035 Eh       6.05 kcal/mol
Thermal vibrational correction   ...      0.00018170 Eh       0.11 kcal/mol
Thermal rotational correction    ...      0.00141627 Eh       0.89 kcal/mol
Thermal translational correction ...      0.00141627 Eh       0.89 kcal/mol
-----------------------------------------------------------------------
Total thermal energy                   -184.47858153 Eh


Summary of corrections to the electronic energy:
(perhaps to be used in another calculation)
Total thermal correction                  0.00301424 Eh       1.89 kcal/mol
Non-thermal (ZPE) correction              0.00964035 Eh       6.05 kcal/mol
-----------------------------------------------------------------------
Total correction                          0.01265459 Eh       7.94 kcal/mol


--------
ENTHALPY
--------

The enthalpy is H = U + kB*T
                kB is Boltzmann's constant
Total free energy                 ...   -184.47858153 Eh 
Thermal Enthalpy correction       ...      0.00094421 Eh       0.59 kcal/mol
-----------------------------------------------------------------------
Total Enthalpy                    ...   -184.47763732 Eh

[file orca_tools/Tool-Symmetry/symmain.cpp, line 3070]: Error (ORCA_SYM): TMoleculeSymmetry::CleanUp molecule is linear but not aligned to z axis!

