
                                 *****************
                                 * O   R   C   A *
                                 *****************

           --- An Ab Initio, DFT and Semiempirical electronic structure package ---

                  #######################################################
                  #                        -***-                        #
                  #          Department of theory and spectroscopy      #
                  #               Directorship: Frank Neese             #
                  #        Max Planck Institute fuer Kohlenforschung    #
                  #                Kaiser Wilhelm Platz 1               #
                  #                 D-45470 Muelheim/Ruhr               #
                  #                      Germany                        #
                  #                                                     #
                  #                  All rights reserved                #
                  #                        -***-                        #
                  #######################################################


                         Program Version 4.2.1 -  RELEASE  -


 With contributions from (in alphabetic order):
   Daniel Aravena         : Magnetic Suceptibility
   Michael Atanasov       : Ab Initio Ligand Field Theory (pilot matlab implementation)
   Alexander A. Auer      : GIAO ZORA, VPT2
   Ute Becker             : Parallelization
   Giovanni Bistoni       : ED, misc. LED, open-shell LED, HFLD
   Martin Brehm           : Molecular dynamics
   Dmytro Bykov           : SCF Hessian
   Vijay G. Chilkuri      : MRCI spin determinant printing, contributions to CSF-ICE
   Dipayan Datta          : RHF DLPNO-CCSD density
   Achintya Kumar Dutta   : EOM-CC, STEOM-CC
   Dmitry Ganyushin       : Spin-Orbit,Spin-Spin,Magnetic field MRCI
   Miquel Garcia          : C-PCM Hessian, Gaussian charge scheme
   Yang Guo               : DLPNO-NEVPT2, CIM, IAO-localization
   Andreas Hansen         : Spin unrestricted coupled pair/coupled cluster methods
   Benjamin Helmich-Paris : CASSCF linear response (MC-RPA)
   Lee Huntington         : MR-EOM, pCC
   Robert Izsak           : Overlap fitted RIJCOSX, COSX-SCS-MP3, EOM
   Christian Kollmar      : KDIIS, OOCD, Brueckner-CCSD(T), CCSD density
   Simone Kossmann        : Meta GGA functionals, TD-DFT gradient, OOMP2, MP2 Hessian
   Martin Krupicka        : AUTO-CI
   Lucas Lang             : DCDCAS
   Dagmar Lenk            : GEPOL surface, SMD
   Dimitrios Liakos       : Extrapolation schemes; Compound Job, initial MDCI parallelization
   Dimitrios Manganas     : Further ROCIS development; embedding schemes
   Dimitrios Pantazis     : SARC Basis sets
   Taras Petrenko         : DFT Hessian,TD-DFT gradient, ASA, ECA, R-Raman, ABS, FL, XAS/XES, NRVS
   Peter Pinski           : DLPNO-MP2, DLPNO-MP2 Gradient
   Christoph Reimann      : Effective Core Potentials
   Marius Retegan         : Local ZFS, SOC
   Christoph Riplinger    : Optimizer, TS searches, QM/MM, DLPNO-CCSD(T), (RO)-DLPNO pert. Triples
   Tobias Risthaus        : Range-separated hybrids, TD-DFT gradient, RPA, STAB
   Michael Roemelt        : Original ROCIS implementation
   Masaaki Saitow         : Open-shell DLPNO-CCSD energy and density
   Barbara Sandhoefer     : DKH picture change effects
   Avijit Sen             : IP-ROCIS
   Kantharuban Sivalingam : CASSCF convergence, NEVPT2, FIC-MRCI
   Bernardo de Souza      : ESD, SOC TD-DFT
   Georgi Stoychev        : AutoAux, RI-MP2 NMR
   Willem Van den Heuvel  : Paramagnetic NMR
   Boris Wezisla          : Elementary symmetry handling
   Frank Wennmohs         : Technical directorship


 We gratefully acknowledge several colleagues who have allowed us to
 interface, adapt or use parts of their codes:
   Stefan Grimme, W. Hujo, H. Kruse,             : VdW corrections, initial TS optimization,
                  C. Bannwarth                     DFT functionals, gCP, sTDA/sTD-DF
   Ed Valeev, F. Pavosevic, A. Kumar             : LibInt (2-el integral package), F12 methods
   Garnet Chan, S. Sharma, J. Yang, R. Olivares  : DMRG
   Ulf Ekstrom                                   : XCFun DFT Library
   Mihaly Kallay                                 : mrcc  (arbitrary order and MRCC methods)
   Andreas Klamt, Michael Diedenhofen            : otool_cosmo (COSMO solvation model)
   Jiri Pittner, Ondrej Demel                    : Mk-CCSD
   Frank Weinhold                                : gennbo (NPA and NBO analysis)
   Christopher J. Cramer and Donald G. Truhlar   : smd solvation model
   Lars Goerigk                                  : TD-DFT with DH, B97 family of functionals
   V. Asgeirsson, H. Jonsson                     : NEB implementation
   FAccTs GmbH                                   : IRC, NEB, NEB-TS, Multilevel, MM, QM/MM, CI optimization
   S Lehtola, MJT Oliveira, MAL Marques          : LibXC Library


 Your calculation uses the libint2 library for the computation of 2-el integrals
 For citations please refer to: http://libint.valeyev.net

 Your ORCA version has been built with support for libXC version: 4.2.3
 For citations please refer to: https://tddft.org/programs/libxc/

 This ORCA versions uses:
   CBLAS   interface :  Fast vector & matrix operations
   LAPACKE interface :  Fast linear algebra routines
   SCALAPACK package :  Parallel linear algebra routines


Your calculation utilizes the geometrical counterpoise correction gCP
Please cite in your paper:
H.Kruse, S. Grimme J.Chem.Phys., 136, (2012), 154101 
   

Your calculation utilizes the atom-pairwise dispersion correction
based on tight binding partial charges (D4)
Cite in your paper:
E.Caldeweyher, C.Bannwarth, S.Grimme, J.Chem.Phys., (2017), 147, 034112.
E.Caldeweyher, S.Ehlert, A.Hansen, H.Neugebauer, S.Grimme, J.Chem.Phys., (2018), in progress.
   

----- Orbital basis set information -----
Your calculation utilizes the basis: def2-SVP
   F. Weigend and R. Ahlrichs, Phys. Chem. Chem. Phys. 7, 3297 (2005).

----- AuxJ basis set information -----
Your calculation utilizes the auxiliary basis: def2/J
   F. Weigend, Phys. Chem. Chem. Phys. 8, 1057 (2006).

================================================================================
                                        WARNINGS
                       Please study these warnings very carefully!
================================================================================


WARNING: Geometry Optimization
  ===> : Switching off AutoStart
         For restart on a previous wavefunction, please use MOREAD

INFO   : the flag for use of LIBINT has been found!

================================================================================
                                       INPUT FILE
================================================================================
NAME = NHF2.inp
|  1> ! revPBE D4 gCP(DFT/SVP) def2-SVP Opt Freq TightOpt TightSCF Grid4 FinalGrid5 LargePrint
|  2> 
|  3> %pal
|  4>  nprocs 12
|  5> end
|  6> 
|  7> *xyz 0 1
|  8> N       -0.2110144994      2.3515970429     -0.0709788681                 
|  9> F        1.1612127177      2.3955403455     -0.0347445188                 
| 10> F       -0.6811057162      1.3741618155      0.7715685202                 
| 11> H       -0.5361101551      2.1867773926     -1.0225608645                 
| 12> *
| 13> 
| 14>                          ****END OF INPUT****
================================================================================

                       *****************************
                       * Geometry Optimization Run *
                       *****************************

Geometry optimization settings:
Update method            Update   .... BFGS
Choice of coordinates    CoordSys .... Z-matrix Internals
Initial Hessian          InHess   .... Almoef's Model

Convergence Tolerances:
Energy Change            TolE     ....  1.0000e-06 Eh
Max. Gradient            TolMAXG  ....  1.0000e-04 Eh/bohr
RMS Gradient             TolRMSG  ....  3.0000e-05 Eh/bohr
Max. Displacement        TolMAXD  ....  1.0000e-03 bohr
RMS Displacement         TolRMSD  ....  6.0000e-04 bohr
Strict Convergence                ....  False
------------------------------------------------------------------------------
                        ORCA OPTIMIZATION COORDINATE SETUP
------------------------------------------------------------------------------

The optimization will be done in new redundant internal coordinates
Making redundant internal coordinates   ...  (new redundants) done
Evaluating the initial hessian          ...  (Almloef) done
Evaluating the coordinates              ...  done
Calculating the B-matrix                .... done
Calculating the G-matrix                .... done
Diagonalizing the G-matrix              .... done
The first mode is                       ....    1
The number of degrees of freedom        ....    6

    -----------------------------------------------------------------
                    Redundant Internal Coordinates


    -----------------------------------------------------------------
         Definition                    Initial Value    Approx d2E/dq
    -----------------------------------------------------------------
      1. B(F   1,N   0)                  1.3734         0.494964   
      2. B(F   2,N   0)                  1.3734         0.494964   
      3. B(H   3,N   0)                  1.0190         0.418635   
      4. A(F   1,N   0,H   3)          110.4000         0.339783   
      5. A(F   2,N   0,H   3)          110.4000         0.339783   
      6. A(F   1,N   0,F   2)          110.4000         0.386962   
      7. I(F   1,H   3,F   2,N   0)    -52.3551         0.007945   
    -----------------------------------------------------------------

Number of atoms                         .... 4
Number of degrees of freedom            .... 7

         *************************************************************
         *                GEOMETRY OPTIMIZATION CYCLE   1            *
         *************************************************************
---------------------------------
CARTESIAN COORDINATES (ANGSTROEM)
---------------------------------
  N     -0.211014    2.351597   -0.070979
  F      1.161213    2.395540   -0.034745
  F     -0.681106    1.374162    0.771569
  H     -0.536110    2.186777   -1.022561

----------------------------
CARTESIAN COORDINATES (A.U.)
----------------------------
  NO LB      ZA    FRAG     MASS         X           Y           Z
   0 N     7.0000    0    14.007   -0.398760    4.443874   -0.134131
   1 F     9.0000    0    18.998    2.194374    4.526915   -0.065658
   2 F     9.0000    0    18.998   -1.287103    2.596789    1.458053
   3 H     1.0000    0     1.008   -1.013101    4.132410   -1.932360

--------------------------------
INTERNAL COORDINATES (ANGSTROEM)
--------------------------------
 N      0   0   0     0.000000000000     0.00000000     0.00000000
 F      1   0   0     1.373408707291     0.00000000     0.00000000
 F      1   2   0     1.373408707343   110.39999995     0.00000000
 H      1   2   3     1.018999999192   110.39999960   237.65004141

---------------------------
INTERNAL COORDINATES (A.U.)
---------------------------
 N      0   0   0     0.000000000000     0.00000000     0.00000000
 F      1   0   0     2.595366326723     0.00000000     0.00000000
 F      1   2   0     2.595366326821   110.39999995     0.00000000
 H      1   2   3     1.925630928938   110.39999960   237.65004141

---------------------
BASIS SET INFORMATION
---------------------
There are 3 groups of distinct atoms

 Group   1 Type N   : 7s4p1d contracted to 3s2p1d pattern {511/31/1}
 Group   2 Type F   : 7s4p1d contracted to 3s2p1d pattern {511/31/1}
 Group   3 Type H   : 4s1p contracted to 2s1p pattern {31/1}

Atom   0N    basis set group =>   1
Atom   1F    basis set group =>   2
Atom   2F    basis set group =>   2
Atom   3H    basis set group =>   3

-------------------------
BASIS SET IN INPUT FORMAT
-------------------------

 # Basis set for element : H 
 NewGTO H 
 S 3 
   1      13.0107010000      0.0334854848
   2       1.9622572000      0.2347218709
   3       0.4445379600      0.8137702853
 S 1 
   1       0.1219496200      1.0000000000
 P 1 
   1       0.8000000000      1.0000000000
  end;

 # Basis set for element : N 
 NewGTO N 
 S 5 
   1    1712.8415853000     -0.0054477995
   2     257.6481267700     -0.0406271746
   3      58.4582458530     -0.1811196225
   4      16.1983679050     -0.4684397556
   5       5.0052600809     -0.4461684629
 S 1 
   1       0.5873185657      1.0000000000
 S 1 
   1       0.1876459225      1.0000000000
 P 3 
   1      13.5714702330     -0.0588481170
   2       2.9257372874     -0.3202462476
   3       0.7992775075     -0.7532822652
 P 1 
   1       0.2195434803      1.0000000000
 D 1 
   1       1.0000000000      1.0000000000
  end;

 # Basis set for element : F 
 NewGTO F 
 S 5 
   1    2894.8325990000     -0.0053493212
   2     435.4193912000     -0.0399677344
   3      98.8433288660     -0.1794126179
   4      27.4851980010     -0.4683246868
   5       8.5405498171     -0.4472416053
 S 1 
   1       1.0654578038      1.0000000000
 S 1 
   1       0.3324734675      1.0000000000
 P 3 
   1      22.6966339240     -0.0647821482
   2       4.9872339257     -0.3403578536
   3       1.3491613954     -0.7348581537
 P 1 
   1       0.3482988198      1.0000000000
 D 1 
   1       1.4000000000      1.0000000000
  end;

---------------------------------
AUXILIARY/J BASIS SET INFORMATION
---------------------------------
There are 3 groups of distinct atoms

 Group   1 Type N   : 12s5p4d2f1g contracted to 6s4p3d1f1g pattern {711111/2111/211/2/1}
 Group   2 Type F   : 12s5p4d2f1g contracted to 6s4p3d1f1g pattern {711111/2111/211/2/1}
 Group   3 Type H   : 5s2p1d contracted to 3s1p1d pattern {311/2/1}

Atom   0N    basis set group =>   1
Atom   1F    basis set group =>   2
Atom   2F    basis set group =>   2
Atom   3H    basis set group =>   3

-------------------------------------
AUXILIARY/J BASIS SET IN INPUT FORMAT
-------------------------------------

 # Auxiliary/J basis set for element : H 
 NewAuxJGTO H 
 S 3 
   1      15.6752927000      0.1007184237
   2       3.6063578000      0.3404257499
   3       1.2080016000      0.6491996172
 S 1 
   1       0.4726794000      1.0000000000
 S 1 
   1       0.2018100000      1.0000000000
 P 2 
   1       2.0281365000      0.5596620919
   2       0.5358730000      0.5596620919
 D 1 
   1       2.2165124000      1.0000000000
  end;

 # Auxiliary/J basis set for element : N 
 NewAuxJGTO N 
 S 7 
   1    2542.9401785000      0.0128431329
   2    1029.5472946000      0.0206655120
   3     424.9053546000      0.0652200677
   4     178.4573708000      0.1617388940
   5      76.1362742000      0.3094256941
   6      32.9338653000      0.3918849307
   7      14.4155436000      0.1822470660
 S 1 
   1       6.3718891000     -1.0000000000
 S 1 
   1       2.8381742000      1.0000000000
 S 1 
   1       1.2711793000      1.0000000000
 S 1 
   1       0.5712407000      1.0000000000
 S 1 
   1       0.2569887000      1.0000000000
 P 2 
   1      17.8975990000     -1.0974070137
   2       6.5346319000      0.1380055963
 P 1 
   1       2.3523645000      1.0000000000
 P 1 
   1       0.8397377000      1.0000000000
 P 1 
   1       0.2989335000      1.0000000000
 D 2 
   1       7.6909870000      0.1770780943
   2       2.3044972000      0.8918319220
 D 1 
   1       0.8403987000      1.0000000000
 D 1 
   1       0.3303797000      1.0000000000
 F 2 
   1       2.3331076000      0.6223178877
   2       0.8446137000      0.5036714203
 G 1 
   1       1.4037700000     -1.0000000000
  end;

 # Auxiliary/J basis set for element : F 
 NewAuxJGTO F 
 S 7 
   1    3514.9201549000      0.0176189594
   2    1231.2458815000      0.0358663858
   3     454.1367336000      0.1239867649
   4     175.8376258000      0.2758620517
   5      71.2081775000      0.4252764982
   6      30.0316883000      0.2651963387
   7      13.1259023000     -0.0078514564
 S 1 
   1       5.9126861000     -1.0000000000
 S 1 
   1       2.7284431000      1.0000000000
 S 1 
   1       1.2813993000      1.0000000000
 S 1 
   1       0.6082793000      1.0000000000
 S 1 
   1       0.2897894000      1.0000000000
 P 2 
   1      49.3740409000     -0.8404235528
   2      13.4874956000     -0.2331250081
 P 1 
   1       3.9664900000      1.0000000000
 P 1 
   1       1.2226629000     -1.0000000000
 P 1 
   1       0.3830317000      1.0000000000
 D 2 
   1      29.9719140000     -0.2160273306
   2       6.7860915000     -0.8915140390
 D 1 
   1       1.8137313000     -1.0000000000
 D 1 
   1       0.5157840000     -1.0000000000
 F 2 
   1       2.8301877000      0.5762078303
   2       0.9155962000      0.5762078303
 G 1 
   1       1.6097500000     -1.0000000000
  end;



           ************************************************************
           *        Program running with 12 parallel MPI-processes    *
           *              working on a common directory               *
           ************************************************************
------------------------------------------------------------------------------
                           ORCA GTO INTEGRAL CALCULATION
                           -- RI-GTO INTEGRALS CHOSEN --
------------------------------------------------------------------------------

                         BASIS SET STATISTICS AND STARTUP INFO

Gaussian basis set:
 # of primitive gaussian shells          ...   41
 # of primitive gaussian functions       ...   79
 # of contracted shells                  ...   21
 # of contracted basis functions         ...   47
 Highest angular momentum                ...    2
 Maximum contraction depth               ...    5
Auxiliary gaussian basis set:
 # of primitive gaussian shells          ...   80
 # of primitive gaussian functions       ...  226
 # of contracted shells                  ...   50
 # of contracted aux-basis functions     ...  158
 Highest angular momentum                ...    4
 Maximum contraction depth               ...    7
Ratio of auxiliary to basis functions    ...  3.36
Integral package used                  ... LIBINT
 One Electron integrals                  ... done
 Ordering auxiliary basis shells         ... done
 Integral threshhold             Thresh  ...  2.500e-11
 Primitive cut-off               TCut    ...  2.500e-12
 Pre-screening matrix                    ... done
 Shell pair data                         ... 
 Ordering of the shell pairs             ... done (   0.000 sec) 230 of 231 pairs
 Determination of significant pairs      ... done (   0.000 sec)
 Creation of shell pair data             ... done (   0.000 sec)
 Storage of shell pair data              ... done (   0.040 sec)
 Shell pair data done in (   0.040 sec)
 Computing two index integrals           ... done
 Cholesky decomposition of the V-matrix  ... done


Timings:
 Total evaluation time                   ...   0.208 sec (  0.003 min)
 One electron matrix time                ...   0.017 sec (  0.000 min) =  8.0%
 Schwartz matrix evaluation time         ...   0.127 sec (  0.002 min) = 61.1%
 Two index repulsion integral time       ...   0.004 sec (  0.000 min) =  2.0%
 Cholesky decomposition of V             ...   0.002 sec (  0.000 min) =  0.9%
 Three index repulsion integral time     ...   0.000 sec (  0.000 min) =  0.0%



           ************************************************************
           *        Program running with 12 parallel MPI-processes    *
           *              working on a common directory               *
           ************************************************************
-------------------------------------------------------------------------------
                                 ORCA SCF
-------------------------------------------------------------------------------

------------
SCF SETTINGS
------------
Hamiltonian:
 Density Functional     Method          .... DFT(GTOs)
 Exchange Functional    Exchange        .... PBE
   PBE kappa parameter   XKappa         ....  1.245000
   PBE mue parameter    XMuePBE         ....  0.219520
 Correlation Functional Correlation     .... PBE
   PBE beta parameter  CBetaPBE         ....  0.066725
 LDA part of GGA corr.  LDAOpt          .... PW91-LDA
 Gradients option       PostSCFGGA      .... off
   Density functional embedding theory  .... OFF
   NL short-range parameter             ....  3.700000
 RI-approximation to the Coulomb term is turned on
   Number of auxiliary basis functions  .... 158


General Settings:
 Integral files         IntName         .... NHF2
 Hartree-Fock type      HFTyp           .... RHF
 Total Charge           Charge          ....    0
 Multiplicity           Mult            ....    1
 Number of Electrons    NEL             ....   26
 Basis Dimension        Dim             ....   47
 Nuclear Repulsion      ENuc            ....     76.0098636221 Eh

Convergence Acceleration:
 DIIS                   CNVDIIS         .... on
   Start iteration      DIISMaxIt       ....    12
   Startup error        DIISStart       ....  0.200000
   # of expansion vecs  DIISMaxEq       ....     5
   Bias factor          DIISBfac        ....   1.050
   Max. coefficient     DIISMaxC        ....  10.000
 Newton-Raphson         CNVNR           .... off
 SOSCF                  CNVSOSCF        .... on
   Start iteration      SOSCFMaxIt      ....   150
   Startup grad/error   SOSCFStart      ....  0.003300
 Level Shifting         CNVShift        .... on
   Level shift para.    LevelShift      ....    0.2500
   Turn off err/grad.   ShiftErr        ....    0.0010
 Zerner damping         CNVZerner       .... off
 Static damping         CNVDamp         .... on
   Fraction old density DampFac         ....    0.7000
   Max. Damping (<1)    DampMax         ....    0.9800
   Min. Damping (>=0)   DampMin         ....    0.0000
   Turn off err/grad.   DampErr         ....    0.1000
 Fernandez-Rico         CNVRico         .... off

SCF Procedure:
 Maximum # iterations   MaxIter         ....   125
 SCF integral mode      SCFMode         .... Direct
   Integral package                     .... LIBINT
 Reset frequency        DirectResetFreq ....    20
 Integral Threshold     Thresh          ....  2.500e-11 Eh
 Primitive CutOff       TCut            ....  2.500e-12 Eh

Convergence Tolerance:
 Convergence Check Mode ConvCheckMode   .... Total+1el-Energy
 Convergence forced     ConvForced      .... 0
 Energy Change          TolE            ....  1.000e-08 Eh
 1-El. energy change                    ....  1.000e-05 Eh
 Orbital Gradient       TolG            ....  1.000e-05
 Orbital Rotation angle TolX            ....  1.000e-05
 DIIS Error             TolErr          ....  5.000e-07


Diagonalization of the overlap matrix:
Smallest eigenvalue                        ... 1.744e-02
Time for diagonalization                   ...    0.001 sec
Threshold for overlap eigenvalues          ... 1.000e-08
Number of eigenvalues below threshold      ... 0
Time for construction of square roots      ...    0.006 sec
Total time needed                          ...    0.008 sec

-------------------
DFT GRID GENERATION
-------------------

General Integration Accuracy     IntAcc      ...  4.670
Radial Grid Type                 RadialGrid  ... Gauss-Chebyshev
Angular Grid (max. acc.)         AngularGrid ... Lebedev-302
Angular grid pruning method      GridPruning ... 3 (G Style)
Weight generation scheme         WeightScheme... Becke
Basis function cutoff            BFCut       ...    1.0000e-11
Integration weight cutoff        WCut        ...    1.0000e-14
Grids for H and He will be reduced by one unit

# of grid points (after initial pruning)     ...  22150 (   0.0 sec)
# of grid points (after weights+screening)   ...  21809 (   0.0 sec)
nearest neighbour list constructed           ...    0.0 sec
Grid point re-assignment to atoms done       ...    0.0 sec
Grid point division into batches done        ...    0.2 sec
Reduced shell lists constructed in    0.3 sec

Total number of grid points                  ...    21809
Total number of batches                      ...      344
Average number of points per batch           ...       63
Average number of grid points per atom       ...     5452
Average number of shells per batch           ...    16.07 (76.51%)
Average number of basis functions per batch  ...    37.07 (78.87%)
Average number of large shells per batch     ...    14.53 (90.46%)
Average number of large basis fcns per batch ...    33.67 (90.83%)
Maximum spatial batch extension              ...  13.68, 12.43, 12.12 au
Average spatial batch extension              ...   0.24,  0.26,  0.23 au

Time for grid setup =    0.323 sec

------------------------------
INITIAL GUESS: MODEL POTENTIAL
------------------------------
Loading Hartree-Fock densities                     ... done
Calculating cut-offs                               ... done
Setting up the integral package                    ... done
Initializing the effective Hamiltonian             ... done
Starting the Coulomb interaction                   ... done (   0.0 sec)
Reading the grid                                   ... done
Mapping shells                                     ... done
Starting the XC term evaluation                    ... done (   0.0 sec)
  promolecular density results
     # of electrons  =     25.999506212
     EX              =    -26.926762058
     EC              =     -0.890016890
     EX+EC           =    -27.816778949
Transforming the Hamiltonian                       ... done (   0.0 sec)
Diagonalizing the Hamiltonian                      ... done (   0.0 sec)
Back transforming the eigenvectors                 ... done (   0.0 sec)
Now organizing SCF variables                       ... done
                      ------------------
                      INITIAL GUESS DONE (   0.4 sec)
                      ------------------
----------------------
INITIAL GUESS ORBITALS
----------------------
                      0         1         2         3         4         5   
                 -24.36094 -24.36089 -14.15580  -1.18353  -1.12038  -0.76942
                   2.00000   2.00000   2.00000   2.00000   2.00000   2.00000
                  --------  --------  --------  --------  --------  --------
  0N   1s        -0.000051 -0.000000 -0.988795 -0.122760  0.000000 -0.236626
  0N   2s        -0.001855 -0.000005  0.040786 -0.245264 -0.000001 -0.515431
  0N   3s         0.015560  0.000041 -0.014462 -0.053969  0.000003 -0.180734
  0N   1pz       -0.000013  0.000145  0.002136  0.033247  0.047767 -0.121808
  0N   1px       -0.000063 -0.000331  0.000309  0.044417 -0.109142 -0.039035
  0N   1py        0.000106 -0.000183  0.001129 -0.053872 -0.060508 -0.025751
  0N   2pz        0.002497 -0.002216  0.000809 -0.011390 -0.010555  0.028338
  0N   2px        0.003841  0.005089  0.000488 -0.008550  0.024116  0.020081
  0N   2py       -0.004994  0.002803 -0.000241  0.006430  0.013369 -0.013852
  0N   1dz2       0.000091  0.000022  0.001132  0.005183 -0.006007 -0.004216
  0N   1dxz       0.000049 -0.000066  0.000687  0.003615  0.003865 -0.001900
  0N   1dyz      -0.000346  0.000059 -0.000095  0.008984  0.008979 -0.000961
  0N   1dx2y2     0.000336  0.000182  0.000519 -0.006106  0.015086 -0.001381
  0N   1dxy       0.000303 -0.000127  0.000530 -0.005364 -0.005334 -0.002153
  1F   1s        -0.697404 -0.701149 -0.000071 -0.194672  0.218309  0.103952
  1F   2s         0.027895  0.027146  0.000479 -0.389890  0.441813  0.219328
  1F   3s        -0.017718 -0.014113 -0.000636 -0.259098  0.296233  0.174514
  1F   1pz        0.000036  0.000030  0.000039  0.000572  0.005846 -0.027253
  1F   1px        0.000820  0.000839 -0.000138 -0.066769  0.044087 -0.166110
  1F   1py        0.000112  0.000005 -0.000017 -0.006215 -0.003184 -0.006480
  1F   2pz       -0.000138  0.000412  0.000202  0.001185 -0.003084  0.019541
  1F   2px        0.005045  0.003413  0.002221  0.031220 -0.019269  0.093600
  1F   2py        0.001023 -0.000268  0.000070  0.003735  0.001201  0.006298
  1F   1dz2       0.000244  0.000153  0.000799  0.003301 -0.002177  0.003340
  1F   1dxz       0.000050 -0.000106 -0.000058 -0.000155  0.000982 -0.002990
  1F   1dyz      -0.000072  0.000048 -0.000012  0.000128  0.000213 -0.000328
  1F   1dx2y2    -0.000418 -0.000263 -0.001427 -0.005730  0.003993 -0.006412
  1F   1dxy      -0.000219  0.000065 -0.000074 -0.001157 -0.000447 -0.000906
  2F   1s        -0.701086  0.697468 -0.000071 -0.194673 -0.218308  0.103952
  2F   2s         0.028038 -0.026999  0.000479 -0.389890 -0.441812  0.219328
  2F   3s        -0.017792  0.014020 -0.000636 -0.259098 -0.296234  0.174513
  2F   1pz        0.000544 -0.000511 -0.000057 -0.040578 -0.029066 -0.119390
  2F   1px       -0.000338  0.000265  0.000082  0.027252  0.008969  0.044409
  2F   1py       -0.000533  0.000605  0.000105  0.045911  0.032599  0.110231
  2F   2pz        0.003186 -0.002196  0.001470  0.020323  0.013160  0.071246
  2F   2px       -0.002527  0.000688 -0.000676 -0.012508 -0.003753 -0.024538
  2F   2py       -0.003187  0.002532 -0.001536 -0.020508 -0.013965 -0.059198
  2F   1dz2      -0.000069  0.000041 -0.000100 -0.000521 -0.000778 -0.002891
  2F   1dxz       0.000315 -0.000040  0.000577  0.002796  0.001207  0.002563
  2F   1dyz       0.000283 -0.000298  0.001229  0.004952  0.003683  0.006196
  2F   1dx2y2     0.000081 -0.000124  0.000571  0.001616  0.002108  0.002170
  2F   1dxy      -0.000317  0.000043 -0.000710 -0.003145 -0.001352 -0.002026
  3H   1s        -0.001967 -0.000005 -0.003957 -0.041677 -0.000000 -0.238535
  3H   2s        -0.000607 -0.000002  0.004345 -0.003451 -0.000001 -0.010645
  3H   1pz       -0.000363  0.000253 -0.003363 -0.007815 -0.000779 -0.026070
  3H   1px       -0.000533 -0.000581 -0.001127 -0.003358  0.001780 -0.009622
  3H   1py        0.000678 -0.000320 -0.000623 -0.000112  0.000987 -0.003225
                      6         7         8         9        10        11   
                  -0.55836  -0.54840  -0.47831  -0.41084  -0.40517  -0.39599
                   2.00000   2.00000   2.00000   2.00000   2.00000   2.00000
                  --------  --------  --------  --------  --------  --------
  0N   1s        -0.011106 -0.000000 -0.045469 -0.000003 -0.036310  0.000004
  0N   2s        -0.029057 -0.000001 -0.104378 -0.000005 -0.077208  0.000008
  0N   3s        -0.018306  0.000002 -0.074669 -0.000019 -0.090720  0.000017
  0N   1pz        0.357002  0.128024  0.094890  0.001143 -0.109648  0.007856
  0N   1px        0.182139 -0.292511 -0.109236 -0.002635 -0.087457 -0.017914
  0N   1py       -0.046700 -0.162169  0.271945 -0.001445  0.071184 -0.009948
  0N   2pz       -0.133252 -0.047370 -0.061263  0.000451  0.000334  0.021261
  0N   2px       -0.066501  0.108229  0.070347 -0.001026  0.016174 -0.048575
  0N   2py        0.014755  0.060003 -0.175256 -0.000573 -0.028919 -0.026928
  0N   1dz2       0.008512 -0.004999 -0.007141 -0.011068 -0.016841 -0.006602
  0N   1dxz       0.000832  0.002230  0.000673  0.014781 -0.021272  0.004854
  0N   1dyz       0.012755  0.009252  0.001158  0.002716 -0.003074  0.008784
  0N   1dx2y2    -0.003845  0.017062 -0.008135 -0.007232  0.005811  0.013829
  0N   1dxy       0.001613 -0.007255 -0.012526  0.012052  0.014807 -0.004145
  1F   1s         0.036167 -0.050965 -0.003789  0.000240  0.003661  0.004254
  1F   2s         0.071870 -0.102297 -0.005640  0.001077  0.011117  0.009959
  1F   3s         0.092422 -0.132443 -0.023278 -0.000573  0.011200  0.024765
  1F   1pz        0.175576  0.075279  0.102541 -0.370003  0.405878 -0.312446
  1F   1px       -0.260526  0.388537  0.040333  0.028667  0.172821  0.127089
  1F   1py       -0.039325 -0.053568  0.376884 -0.321332 -0.156114  0.371071
  1F   2pz       -0.109702 -0.044974 -0.062078  0.244082 -0.267934  0.198500
  1F   2px        0.145055 -0.220833 -0.017630 -0.018011 -0.114752 -0.092575
  1F   2py        0.024217  0.030692 -0.235806  0.211766  0.107869 -0.236306
  1F   1dz2       0.003841 -0.004360 -0.000603 -0.000923 -0.001672 -0.001319
  1F   1dxz       0.008577  0.003528  0.002825 -0.004413  0.003534 -0.002414
  1F   1dyz       0.000661  0.000016  0.000179 -0.000227  0.000525  0.001033
  1F   1dx2y2    -0.005502  0.008093 -0.000269  0.000147  0.002386  0.002072
  1F   1dxy      -0.001770 -0.002567  0.009958 -0.003875 -0.001282  0.003073
  2F   1s         0.036166  0.050965 -0.003788 -0.000239  0.003661 -0.004255
  2F   2s         0.071869  0.102298 -0.005637 -0.001075  0.011116 -0.009961
  2F   3s         0.092420  0.132444 -0.023282  0.000578  0.011197 -0.024772
  2F   1pz       -0.034166 -0.265595  0.221896  0.362789  0.352476  0.038156
  2F   1px        0.218719  0.046305 -0.232392 -0.012006  0.294845  0.499378
  2F   1py        0.226363  0.294647  0.225674  0.330540 -0.088580 -0.023704
  2F   2pz        0.010884  0.152505 -0.132841 -0.239778 -0.231510 -0.017144
  2F   2px       -0.130471 -0.024859  0.144072  0.008068 -0.197973 -0.321631
  2F   2py       -0.128531 -0.166905 -0.146150 -0.217257  0.061807  0.006634
  2F   1dz2       0.006302 -0.002034  0.005208  0.004963  0.002395  0.000392
  2F   1dxz       0.004156  0.001219 -0.005649 -0.001080 -0.000325  0.003156
  2F   1dyz       0.002103  0.008399  0.000038 -0.000589 -0.003311  0.000085
  2F   1dx2y2     0.001289  0.005069  0.006783  0.002938 -0.002147 -0.000423
  2F   1dxy      -0.007687 -0.001302  0.001597 -0.000802 -0.001220 -0.003474
  3H   1s         0.258469  0.000002  0.016791 -0.000012 -0.182249  0.000020
  3H   2s         0.057522 -0.000000  0.004141  0.000004 -0.038784  0.000002
  3H   1pz        0.019398 -0.003986  0.000202  0.002344 -0.009313 -0.000067
  3H   1px        0.005353  0.009108  0.004510 -0.005356  0.000607  0.000155
  3H   1py        0.005658  0.005050 -0.007975 -0.002970 -0.008446  0.000087
                     12        13        14        15        16        17   
                  -0.26197  -0.00801   0.01078   0.04341   0.48592   0.55740
                   2.00000   0.00000   0.00000   0.00000   0.00000   0.00000
                  --------  --------  --------  --------  --------  --------
  0N   1s         0.089711 -0.186353  0.000002 -0.028553  0.064676  0.214557
  0N   2s         0.202329 -0.460526  0.000003 -0.054113  0.248160  1.430996
  0N   3s         0.291431 -0.908956  0.000032 -0.580842 -0.442643 -2.626736
  0N   1pz       -0.254435  0.133840  0.226731 -0.398315  0.379015 -0.400501
  0N   1px        0.128974  0.239675 -0.518021 -0.209385  0.043492 -0.144239
  0N   1py       -0.433497 -0.326673 -0.287187  0.063183  0.220751 -0.056100
  0N   2pz        0.138907 -0.088271 -0.277705  0.601420 -0.077881 -0.714947
  0N   2px       -0.097283 -0.246414  0.634463  0.293315 -0.135682 -0.492751
  0N   2py        0.285145  0.374806  0.351750 -0.054249  0.183246  0.324206
  0N   1dz2      -0.007970 -0.004659  0.019202  0.007312 -0.103772  0.002837
  0N   1dxz      -0.000062  0.000171 -0.017142  0.005050 -0.063316  0.011536
  0N   1dyz      -0.004294 -0.022000 -0.020061  0.010482 -0.025352 -0.023415
  0N   1dx2y2    -0.003581  0.014422 -0.026332 -0.006696 -0.018057  0.012561
  0N   1dxy      -0.008425  0.009126  0.003378 -0.005863 -0.022745  0.001270
  1F   1s        -0.010555  0.062908 -0.065824 -0.037677 -0.025954  0.058255
  1F   2s        -0.025799  0.134056 -0.142299 -0.086654 -0.107540  0.155776
  1F   3s        -0.021497  0.316884 -0.364505 -0.182823  0.113547  0.611857
  1F   1pz        0.163596 -0.039790 -0.089900  0.044582 -0.141513 -0.087584
  1F   1px       -0.119914  0.341852 -0.308073 -0.109458 -0.024206 -0.115617
  1F   1py        0.252199  0.095669  0.071734 -0.027848 -0.024466  0.014454
  1F   2pz       -0.112804  0.040208  0.075889 -0.054428 -0.007700  0.061961
  1F   2px        0.085542 -0.351811  0.344946  0.134156 -0.027053 -0.453065
  1F   2py       -0.184796 -0.094425 -0.064171  0.028823 -0.034409 -0.056044
  1F   1dz2      -0.000747  0.006494 -0.004403  0.000867 -0.001862 -0.023672
  1F   1dxz      -0.004304  0.002521  0.007079 -0.008032  0.019234  0.001880
  1F   1dyz      -0.000446 -0.001846 -0.001190  0.001425 -0.000294 -0.004439
  1F   1dx2y2    -0.000226 -0.009559  0.008518  0.001645 -0.000874  0.042375
  1F   1dxy      -0.006339 -0.007677 -0.006157  0.001848  0.005733 -0.000135
  2F   1s        -0.010554  0.062909  0.065824 -0.037673 -0.025954  0.058252
  2F   2s        -0.025799  0.134058  0.142300 -0.086643 -0.107541  0.155767
  2F   3s        -0.021490  0.316894  0.364512 -0.182809  0.113546  0.611801
  2F   1pz        0.133411  0.200990  0.223602 -0.039736 -0.127404 -0.128037
  2F   1px       -0.050938 -0.208287  0.002572  0.083228 -0.056449 -0.023198
  2F   1py        0.290441 -0.209336 -0.241104  0.078957 -0.042346  0.065681
  2F   2pz       -0.093849 -0.206094 -0.237156  0.047145 -0.032673 -0.236581
  2F   2px        0.042230  0.210945  0.023535 -0.097953  0.030001  0.229105
  2F   2py       -0.208807  0.217570  0.268456 -0.099846 -0.002782  0.322115
  2F   1dz2      -0.005796 -0.001191 -0.003100 -0.004224  0.015441  0.000346
  2F   1dxz       0.002617  0.009514 -0.001471 -0.001529 -0.002658 -0.014094
  2F   1dyz       0.000477  0.005944  0.010998  0.003212 -0.006746 -0.039385
  2F   1dx2y2    -0.004328  0.000375  0.006758 -0.000324  0.004851 -0.015531
  2F   1dxy      -0.000339 -0.008651  0.001723  0.006545 -0.009622  0.019688
  3H   1s        -0.197742  0.134261 -0.000006  0.185853 -1.215777 -0.024847
  3H   2s        -0.076408  0.583129 -0.000056  1.425873  1.118413  0.469418
  3H   1pz       -0.005420 -0.004834 -0.013664 -0.016913  0.154456 -0.018541
  3H   1px       -0.010558 -0.014692  0.031220  0.000515  0.059413 -0.026710
  3H   1py        0.014764  0.022684  0.017308 -0.014277  0.014763  0.033540
                     18        19        20        21        22        23   
                   0.58556   0.63026   0.77789   0.97341   0.99399   1.03076
                   0.00000   0.00000   0.00000   0.00000   0.00000   0.00000
                  --------  --------  --------  --------  --------  --------
  0N   1s         0.000004  0.070201 -0.124408  0.009619  0.000003 -0.000010
  0N   2s         0.000036  0.289014 -0.975289  0.039385  0.000021 -0.000077
  0N   3s        -0.000096  0.003190  2.351649  0.195690 -0.000022  0.000046
  0N   1pz       -0.304892  0.048694 -0.587741 -0.006730 -0.060342  0.049389
  0N   1px        0.696520  0.451838 -0.162469  0.007813  0.137885 -0.112765
  0N   1py        0.386214 -0.776451 -0.170961 -0.019419  0.076445 -0.062542
  0N   2pz       -0.604765  0.263669 -1.533955  0.357250  0.006176  0.104422
  0N   2px        1.381536  0.712621 -0.442877  0.276268 -0.013991 -0.238397
  0N   2py        0.766043 -1.077032 -0.412188 -0.216241 -0.007777 -0.132187
  0N   1dz2       0.002585 -0.014502 -0.022992  0.014126  0.069227  0.022603
  0N   1dxz      -0.003059 -0.023790 -0.009875 -0.061831 -0.076460 -0.043950
  0N   1dyz      -0.001342  0.004910  0.004365  0.063618 -0.045884  0.019286
  0N   1dx2y2    -0.000103  0.003317 -0.016189  0.012622 -0.027957  0.077624
  0N   1dxy      -0.001698  0.016747 -0.019698  0.082067 -0.029652 -0.063883
  1F   1s        -0.025537 -0.021621 -0.031663 -0.003805  0.124548 -0.091171
  1F   2s        -0.049138 -0.051089 -0.121958  0.012771  0.590902 -0.457693
  1F   3s        -0.598942 -0.324395 -0.020764 -0.198252 -0.530166  0.546837
  1F   1pz       -0.075934 -0.035138 -0.214897 -0.333337 -0.303525 -0.305419
  1F   1px        0.160982  0.088168 -0.004166  0.091475 -0.320182  0.293771
  1F   1py        0.080592 -0.119634 -0.097899  0.498444 -0.210196 -0.387882
  1F   2pz        0.054949 -0.047026  0.009117 -0.416779 -0.336995 -0.370490
  1F   2px        0.380801  0.236086  0.098318  0.216262 -0.447904  0.324320
  1F   2py       -0.050689  0.088185 -0.029457  0.577256 -0.238217 -0.416749
  1F   1dz2       0.024628  0.011752 -0.001931  0.001939  0.013263 -0.002238
  1F   1dxz      -0.000641  0.001464  0.015803  0.005790  0.008811  0.003059
  1F   1dyz      -0.002903  0.003136 -0.000970  0.011695 -0.000781  0.001952
  1F   1dx2y2    -0.042655 -0.018393 -0.010563  0.004708 -0.011959  0.015618
  1F   1dxy      -0.003632 -0.003865  0.005417 -0.013736  0.003692  0.010484
  2F   1s         0.025544 -0.021615 -0.031664 -0.003790 -0.124549  0.091222
  2F   2s         0.049154 -0.051066 -0.121960  0.012841 -0.590904  0.457949
  2F   3s         0.599049 -0.324344 -0.020787 -0.198295  0.530149 -0.547134
  2F   1pz       -0.063598 -0.013401 -0.194081 -0.033438  0.480979  0.181249
  2F   1px        0.157774  0.038520 -0.051700 -0.593966 -0.085371 -0.010337
  2F   1py        0.096145 -0.147153 -0.124231  0.118427 -0.014575  0.545109
  2F   2pz       -0.246914  0.131392  0.054693  0.002809  0.589553  0.221158
  2F   2px        0.057771 -0.171617 -0.005770 -0.742712 -0.129272  0.016513
  2F   2py        0.293850 -0.137811 -0.087152  0.045607 -0.081702  0.605813
  2F   1dz2       0.003452  0.001276  0.010467  0.006351 -0.009463 -0.009005
  2F   1dxz      -0.019611  0.009121 -0.003040  0.005395 -0.008558  0.007085
  2F   1dyz      -0.035131  0.017131  0.000102  0.000703 -0.009763  0.009619
  2F   1dx2y2    -0.017873  0.003709  0.007965 -0.017516 -0.009913 -0.000672
  2F   1dxy       0.022329 -0.010538 -0.014598 -0.002853  0.007383 -0.012169
  3H   1s        -0.000007 -0.159072 -0.612558  0.175732  0.000019  0.000005
  3H   2s        -0.000015  0.360948 -1.285030 -0.003462  0.000018  0.000028
  3H   1pz       -0.009515  0.045214 -0.177994  0.010615 -0.097274 -0.047991
  3H   1px        0.021721  0.034000 -0.044989  0.121301  0.222273  0.109690
  3H   1py        0.012046 -0.025626 -0.059367 -0.210461  0.123208  0.060761
                     24        25        26        27        28        29   
                   1.03578   1.19372   1.20480   1.36868   1.44410   1.59668
                   0.00000   0.00000   0.00000   0.00000   0.00000   0.00000
                  --------  --------  --------  --------  --------  --------
  0N   1s         0.063111 -0.026399 -0.000007  0.048749  0.000002  0.000000
  0N   2s         0.490701 -0.272803 -0.000067  0.267557  0.000007 -0.000020
  0N   3s        -0.365398  0.439174  0.000081  0.459130  0.000012  0.000143
  0N   1pz       -0.116354 -0.098828 -0.035395 -0.072355 -0.053946 -0.089320
  0N   1px       -0.114729  0.047084  0.080835 -0.080555  0.123255  0.204073
  0N   1py        0.115027 -0.163000  0.044764  0.088185  0.068335  0.113144
  0N   2pz       -0.235215 -0.983171 -0.219880 -0.263649 -0.223260  0.462563
  0N   2px       -0.129182 -0.151837  0.501777 -0.224334  0.510138 -1.056805
  0N   2py        0.047201 -0.502650  0.278076  0.196518  0.282810 -0.585962
  0N   1dz2      -0.014968 -0.032359  0.020473 -0.090855 -0.136020  0.131844
  0N   1dxz       0.018338 -0.010888 -0.021397 -0.169458  0.190536 -0.154096
  0N   1dyz      -0.107828 -0.027224 -0.015789  0.131693  0.017455 -0.072108
  0N   1dx2y2     0.062591  0.003178 -0.013847 -0.047793 -0.129265 -0.014491
  0N   1dxy       0.025598 -0.008307 -0.005297  0.066063  0.173346 -0.080712
  1F   1s        -0.126647 -0.024926  0.021206  0.072182 -0.036128 -0.167224
  1F   2s        -0.628353 -0.136983  0.136269  0.409017 -0.168208 -1.045171
  1F   3s         0.723601  0.171682 -0.372564 -0.461330 -0.052042  1.748991
  1F   1pz        0.093305  0.432876  0.472942  0.217918 -0.086840  0.043275
  1F   1px        0.452418 -0.185866 -0.006039  0.274902 -0.218229 -0.394698
  1F   1py        0.050371  0.357541 -0.416099 -0.088575 -0.226688  0.030802
  1F   2pz        0.150479  0.708169  0.651478  0.363040 -0.090779 -0.005505
  1F   2px        0.539681 -0.269744  0.102837  0.451693 -0.200194 -1.042042
  1F   2py        0.045518  0.539421 -0.576471 -0.168776 -0.388205  0.123176
  1F   1dz2      -0.016057  0.010597  0.007136 -0.022100  0.005254  0.058809
  1F   1dxz       0.004768  0.037498  0.027173  0.053547 -0.028728  0.015072
  1F   1dyz      -0.004543 -0.004718  0.007718  0.010241  0.001773  0.022741
  1F   1dx2y2     0.028768 -0.015885 -0.006189  0.038823 -0.028907 -0.083853
  1F   1dxy      -0.000017  0.023768 -0.023989 -0.026612 -0.068339  0.036207
  2F   1s        -0.126611 -0.024913 -0.021223  0.072181  0.036133  0.167240
  2F   2s        -0.628175 -0.136898 -0.136364  0.409016  0.168237  1.045278
  2F   3s         0.723388  0.171464  0.372693 -0.461326  0.051995 -1.749210
  2F   1pz        0.350030  0.329571 -0.213657  0.294068  0.265490  0.188321
  2F   1px       -0.134013  0.050747 -0.585967  0.100856 -0.189936 -0.134456
  2F   1py       -0.274543  0.488504  0.088128 -0.185052  0.000401 -0.324169
  2F   2pz        0.441994  0.544488 -0.358120  0.479372  0.310196  0.572810
  2F   2px       -0.126194  0.105106 -0.772432  0.185822 -0.301094 -0.254097
  2F   2py       -0.323422  0.746901  0.205612 -0.316155  0.110285 -0.841779
  2F   1dz2       0.002251  0.034318 -0.016907  0.036499  0.047445 -0.035022
  2F   1dxz      -0.008724 -0.000394 -0.017771  0.000685 -0.036307 -0.014184
  2F   1dyz      -0.028818  0.000690  0.001313 -0.049996 -0.024380 -0.087508
  2F   1dx2y2    -0.009385  0.028047  0.016599 -0.039044  0.038847 -0.049892
  2F   1dxy       0.011345 -0.019836  0.024151 -0.017861  0.026257  0.031157
  3H   1s         0.017997 -0.582923 -0.000149 -0.213975 -0.000004 -0.000015
  3H   2s        -0.050237 -0.182767 -0.000039 -0.037067  0.000008 -0.000010
  3H   1pz       -0.024062 -0.038483 -0.050509 -0.104383  0.286912 -0.102056
  3H   1px       -0.121282 -0.033064  0.115366  0.298462 -0.655550  0.233173
  3H   1py        0.199822  0.029190  0.063996 -0.620733 -0.363436  0.129302
                     30        31        32        33        34        35   
                   1.68805   1.91918   2.05559   2.13029   2.20337   2.27915
                   0.00000   0.00000   0.00000   0.00000   0.00000   0.00000
                  --------  --------  --------  --------  --------  --------
  0N   1s         0.002960  0.080149  0.021208  0.000001  0.000001 -0.013506
  0N   2s        -0.365078  0.529478  0.424983  0.000013  0.000006 -0.151691
  0N   3s         2.615660 -0.145436 -2.085297 -0.000044 -0.000022  0.696552
  0N   1pz       -0.082908  0.563803 -0.068863  0.026193 -0.059762  0.137573
  0N   1px       -0.038251  0.210953 -0.024861 -0.059842  0.136540  0.074870
  0N   1py        0.003519  0.064580 -0.009513 -0.033176  0.075699 -0.026429
  0N   2pz        0.336470  0.212606 -0.356379  0.353691 -0.117472  0.091390
  0N   2px        0.717580  0.080435 -0.574744 -0.808178  0.268404  0.052802
  0N   2py       -1.028594  0.022757  0.755396 -0.448023  0.148804 -0.023048
  0N   1dz2      -0.105454 -0.322474  0.042153 -0.215336 -0.435637 -0.002116
  0N   1dxz       0.139174 -0.154871  0.379167  0.371182  0.408211  0.323574
  0N   1dyz      -0.126714 -0.021548  0.052837 -0.097771  0.420320 -0.790812
  0N   1dx2y2    -0.110083 -0.141827 -0.338645 -0.522343  0.509150  0.392226
  0N   1dxy      -0.305039 -0.186402 -0.641589  0.472871 -0.021508  0.014798
  1F   1s         0.150167 -0.027226 -0.060486 -0.016723 -0.025345  0.000693
  1F   2s         0.997404 -0.148697 -0.525757 -0.205405 -0.032971  0.081418
  1F   3s        -2.022373  0.165406  1.391409  0.703562 -0.225402 -0.325798
  1F   1pz       -0.000072 -0.054298  0.003456 -0.027323  0.007400 -0.014261
  1F   1px        0.251543 -0.076800 -0.003028  0.053986 -0.163453 -0.057245
  1F   1py        0.114728  0.010234  0.004094  0.014530 -0.014009 -0.005810
  1F   2pz       -0.045270 -0.094273 -0.004097 -0.164972 -0.010637 -0.067824
  1F   2px        0.981042 -0.103731 -0.614681 -0.277120  0.062571  0.145592
  1F   2py        0.392984  0.036655 -0.062319  0.018976 -0.027808 -0.001156
  1F   1dz2      -0.037954 -0.033212  0.062365  0.026972 -0.122908 -0.064781
  1F   1dxz      -0.036208  0.050935 -0.123175 -0.210540 -0.155624 -0.142404
  1F   1dyz       0.028205 -0.003317 -0.022036 -0.008196  0.033203 -0.081115
  1F   1dx2y2     0.039958 -0.017037 -0.138539 -0.097350  0.192080  0.142268
  1F   1dxy       0.134619  0.059081  0.136378 -0.157379  0.018857  0.010278
  2F   1s         0.150150 -0.027225 -0.060484  0.016720  0.025345  0.000694
  2F   2s         0.997299 -0.148693 -0.525750  0.205379  0.032964  0.081414
  2F   3s        -2.022206  0.165402  1.391416 -0.703496  0.225423 -0.325768
  2F   1pz        0.183961 -0.081953  0.002137 -0.015893  0.094483 -0.045922
  2F   1px       -0.168985 -0.013604 -0.000003  0.044753 -0.069329  0.015103
  2F   1py       -0.118395  0.045269  0.005769  0.040211 -0.115046  0.034295
  2F   2pz        0.666376 -0.118884 -0.382187  0.278476 -0.019620  0.034150
  2F   2px       -0.645080 -0.047490  0.249193  0.017746  0.006563 -0.087424
  2F   2py       -0.508480  0.067834  0.416614 -0.162762  0.066142 -0.130332
  2F   1dz2       0.024202  0.041828 -0.064979  0.224460  0.098569 -0.130076
  2F   1dxz      -0.113068 -0.051784 -0.036230 -0.084582  0.120583 -0.031817
  2F   1dyz       0.001845 -0.017272  0.159213 -0.127048  0.094657 -0.107210
  2F   1dx2y2     0.052419  0.043326  0.158230  0.075404  0.100783 -0.007142
  2F   1dxy       0.084524 -0.029708  0.037671 -0.000068 -0.185234  0.148046
  3H   1s        -0.329003  0.061496  0.185970 -0.000002  0.000003 -0.119403
  3H   2s        -0.140345 -0.257752  0.191864  0.000002  0.000006 -0.136108
  3H   1pz        0.024471 -0.910366  0.123208 -0.215699 -0.127946 -0.178155
  3H   1px       -0.205533 -0.350121  0.282432  0.492842  0.292345  0.204724
  3H   1py        0.390036 -0.087151 -0.412210  0.273208  0.162093 -0.509908
                     36        37        38        39        40        41   
                   2.87265   2.89244   2.89801   2.90329   2.96070   2.97129
                   0.00000   0.00000   0.00000   0.00000   0.00000   0.00000
                  --------  --------  --------  --------  --------  --------
  0N   1s         0.064920 -0.000005 -0.000022 -0.015520 -0.090227  0.000013
  0N   2s         0.248551 -0.000015 -0.000075 -0.065679 -0.293623  0.000042
  0N   3s         0.876950 -0.000084 -0.000346 -0.160244 -1.489208  0.000228
  0N   1pz        0.301404  0.000677 -0.006027 -0.080929 -0.379906 -0.016759
  0N   1px        0.089554 -0.001599  0.013528 -0.026086 -0.106952  0.038435
  0N   1py        0.076419 -0.000889  0.007489 -0.016825 -0.106984  0.021316
  0N   2pz       -0.573827  0.000056 -0.002299  0.239192  0.791086  0.154677
  0N   2px       -0.155462 -0.000117  0.005630  0.088836  0.115708 -0.353691
  0N   2py       -0.172595 -0.000041  0.003190  0.028602  0.415648 -0.196142
  0N   1dz2       0.449789 -0.002413 -0.009325 -0.123413 -0.642486 -0.025843
  0N   1dxz       0.268918  0.003895  0.006568 -0.104465 -0.328263  0.012094
  0N   1dyz       0.145035 -0.000752  0.012308  0.026514 -0.297263  0.047182
  0N   1dx2y2     0.052995 -0.004824  0.019672 -0.044473 -0.047405  0.086341
  0N   1dxy       0.082266  0.004634 -0.006074 -0.017837 -0.148757 -0.036251
  1F   1s         0.010802  0.000331 -0.006841  0.003308 -0.030691 -0.016071
  1F   2s         0.068943  0.001701 -0.037315  0.021544 -0.204795 -0.116730
  1F   3s        -0.137252 -0.001594  0.038057 -0.045763  0.424739  0.303859
  1F   1pz        0.014652 -0.004176  0.012599 -0.019232 -0.030672 -0.030136
  1F   1px        0.034880  0.001531 -0.023618  0.006862 -0.081183 -0.030547
  1F   1py        0.002546 -0.005709 -0.015044 -0.002346 -0.029587  0.049285
  1F   2pz        0.082898 -0.006529  0.020316 -0.056208 -0.140856 -0.078162
  1F   2px        0.090760  0.002011 -0.034782  0.021181 -0.245394 -0.141761
  1F   2py        0.023645 -0.008706 -0.024216 -0.006467 -0.101482  0.109685
  1F   1dz2       0.498237 -0.597169 -0.090576  0.319167  0.158855 -0.071553
  1F   1dxz      -0.121128  0.060367 -0.037806  0.135434  0.232108  0.361785
  1F   1dyz       0.257393  0.104950 -0.693300 -0.566967  0.320761 -0.081101
  1F   1dx2y2     0.207609 -0.355507 -0.047638  0.186507  0.211712  0.072566
  1F   1dxy      -0.031101  0.051541  0.080690  0.114915  0.181306 -0.595390
  2F   1s         0.010806 -0.000337  0.006826  0.003312 -0.030687  0.016081
  2F   2s         0.068968 -0.001741  0.037216  0.021568 -0.204763  0.116796
  2F   3s        -0.137285  0.001671 -0.037854 -0.045787  0.424646 -0.303997
  2F   1pz        0.032107  0.004060  0.009256 -0.011057 -0.079815  0.024340
  2F   1px       -0.005001 -0.001259 -0.026364 -0.011810  0.031134  0.043834
  2F   1py       -0.019565  0.005868 -0.012650 -0.012689  0.032658 -0.041924
  2F   2pz        0.122380  0.006488  0.012922 -0.031550 -0.280983  0.105544
  2F   2px        0.000554 -0.001929 -0.041363 -0.035158  0.074883  0.079364
  2F   2py       -0.026368  0.008770 -0.017963 -0.037684  0.076017 -0.144290
  2F   1dz2       0.213805  0.164311  0.331107  0.047173  0.463899 -0.034877
  2F   1dxz       0.296962  0.525220 -0.133811  0.404325 -0.063672 -0.333612
  2F   1dyz       0.259424 -0.012667  0.363193 -0.328020  0.044038  0.312487
  2F   1dx2y2    -0.151216  0.036508 -0.482232  0.443518 -0.100084  0.378234
  2F   1dxy       0.386847  0.441944  0.086039  0.139941  0.168593  0.386115
  3H   1s        -0.848779  0.000046  0.000272  0.259028  1.237529 -0.000183
  3H   2s        -0.389776  0.000025  0.000125  0.102937  0.496704 -0.000074
  3H   1pz       -0.683095 -0.004173 -0.002556  0.179225  0.886354 -0.053976
  3H   1px       -0.246219  0.009668  0.006432  0.039919  0.367497  0.122974
  3H   1py       -0.095130  0.005330  0.003521  0.069493  0.036896  0.068203
                     42        43        44        45        46   
                   3.16858   3.20790   3.29385   3.61340   3.75433
                   0.00000   0.00000   0.00000   0.00000   0.00000
                  --------  --------  --------  --------  --------
  0N   1s         0.049297 -0.000001  0.023794  0.072182 -0.000004
  0N   2s         0.253745 -0.000004  0.025193  0.060222 -0.000002
  0N   3s         0.238667 -0.000021  0.547764  1.167566 -0.000072
  0N   1pz        0.214242 -0.002315  0.040390 -0.250807 -0.127039
  0N   1px        0.061442  0.005278  0.002359 -0.178032  0.290296
  0N   1py        0.058307  0.002925  0.027634  0.123165  0.160930
  0N   2pz       -0.084111  0.113784  0.295808  0.481759  0.287418
  0N   2px       -0.135645 -0.259970  0.281732  0.425137 -0.656785
  0N   2py        0.178261 -0.144125 -0.274658 -0.386598 -0.364084
  0N   1dz2       0.510831 -0.288844  0.073739 -0.380833  0.274066
  0N   1dxz       0.297082  0.380858  0.338045 -0.274248 -0.195934
  0N   1dyz       0.000719  0.079877 -0.240771 -0.444024 -0.374160
  0N   1dx2y2     0.207977 -0.166041 -0.022115  0.271046 -0.598439
  0N   1dxy       0.229325  0.300335 -0.305954  0.249462  0.187253
  1F   1s         0.002489 -0.008588  0.021439  0.044602 -0.032456
  1F   2s         0.014542 -0.068776  0.172259  0.436315 -0.367795
  1F   3s        -0.001113  0.206293 -0.461859 -1.107110  0.937629
  1F   1pz       -0.030762 -0.033802 -0.032872  0.000466 -0.003541
  1F   1px        0.015393 -0.009326  0.034424  0.074988 -0.046911
  1F   1py       -0.041288 -0.008031  0.029240  0.002619  0.000869
  1F   2pz       -0.070396 -0.116654 -0.130905 -0.028497 -0.049095
  1F   2px        0.028647 -0.084034  0.222798  0.672318 -0.612077
  1F   2py       -0.123355 -0.024425  0.132143  0.058947  0.015663
  1F   1dz2      -0.053736  0.080011  0.072358  0.354458 -0.358619
  1F   1dxz       0.396235  0.554215  0.480578 -0.097287  0.006273
  1F   1dyz       0.044134 -0.000710  0.006443  0.000341  0.007878
  1F   1dx2y2    -0.152759  0.009283 -0.088170 -0.602382  0.619450
  1F   1dxy       0.464187  0.331217 -0.472170  0.005501  0.076292
  2F   1s         0.002489  0.008587  0.021439  0.044603  0.032450
  2F   2s         0.014545  0.068770  0.172258  0.436342  0.367745
  2F   3s        -0.001120 -0.206278 -0.461862 -1.107184 -0.937506
  2F   1pz       -0.027278  0.033208  0.005099  0.044988  0.029744
  2F   1px        0.007432  0.010681 -0.052333 -0.026735 -0.012969
  2F   1py       -0.045703  0.008785 -0.018859 -0.053778 -0.034062
  2F   2pz       -0.075608  0.143816  0.075445  0.390520  0.388871
  2F   2px        0.040563  0.021963 -0.248679 -0.285021 -0.164333
  2F   2py       -0.116751 -0.009980 -0.129246 -0.471830 -0.446073
  2F   1dz2       0.419716 -0.553875  0.215854 -0.077135 -0.040924
  2F   1dxz      -0.277424  0.066942  0.347616  0.228187  0.286063
  2F   1dyz       0.002198  0.138403 -0.134709  0.559220  0.525525
  2F   1dx2y2     0.344872 -0.264851 -0.262764  0.262931  0.222388
  2F   1dxy      -0.168983  0.151003 -0.460795 -0.241269 -0.330177
  3H   1s        -0.460550  0.000014 -0.056208  0.270505 -0.000006
  3H   2s        -0.094509  0.000006  0.006721 -0.011614  0.000003
  3H   1pz       -0.435747 -0.099215 -0.097289  0.220171 -0.004087
  3H   1px       -0.085022  0.226721 -0.013921  0.061336  0.009324
  3H   1py       -0.190630  0.125694 -0.051693  0.063176  0.005167
--------------
SCF ITERATIONS
--------------
               ***  Starting incremental Fock matrix formation  ***

                         ----------------------------
                         !        ITERATION     0   !
                         ----------------------------
   Total Energy        :    -254.582479454768 Eh
   Energy Change       :    -254.582479454768 Eh
   MAX-DP              :       0.025424222161
   RMS-DP              :       0.002017369176
   Actual Damping      :       0.7000
   Actual Level Shift  :       0.2500 Eh
   Int. Num. El.       :    26.00002167 (UP=   13.00001084 DN=   13.00001084)
   Exchange            :   -27.26343426
   Correlation         :    -0.89574178


                         ----------------------------
                         !        ITERATION     1   !
                         ----------------------------
   Total Energy        :    -254.592293644046 Eh
   Energy Change       :      -0.009814189278 Eh
   MAX-DP              :       0.012602759791
   RMS-DP              :       0.001148434227
   Actual Damping      :       0.7000
   Actual Level Shift  :       0.2500 Eh
   Int. Num. El.       :    26.00002197 (UP=   13.00001099 DN=   13.00001099)
   Exchange            :   -27.18973065
   Correlation         :    -0.89559020

                               ***Turning on DIIS***

                         ----------------------------
                         !        ITERATION     2   !
                         ----------------------------
   Total Energy        :    -254.596240625267 Eh
   Energy Change       :      -0.003946981221 Eh
   MAX-DP              :       0.024683498546
   RMS-DP              :       0.001885132643
   Actual Damping      :       0.0000
   Actual Level Shift  :       0.2500 Eh
   Int. Num. El.       :    26.00002199 (UP=   13.00001100 DN=   13.00001100)
   Exchange            :   -27.15310335
   Correlation         :    -0.89550133
   DIIS-Error          :       0.024104345266


                         ----------------------------
                         !        ITERATION     3   !
                         ----------------------------
   Total Energy        :    -254.604252488133 Eh
   Energy Change       :      -0.008011862867 Eh
   MAX-DP              :       0.010127976691
   RMS-DP              :       0.000812971742
   Actual Damping      :       0.0000
   Actual Level Shift  :       0.2500 Eh
   Int. Num. El.       :    26.00002171 (UP=   13.00001086 DN=   13.00001086)
   Exchange            :   -27.11723260
   Correlation         :    -0.89531780
   DIIS-Error          :       0.010507626086
   DIIS coefficients:
      0.31019   0.68981


                         ----------------------------
                         !        ITERATION     4   !
                         ----------------------------
   Total Energy        :    -254.604684570527 Eh
   Energy Change       :      -0.000432082394 Eh
   MAX-DP              :       0.005316787659
   RMS-DP              :       0.000324553472
   Actual Damping      :       0.0000
   Actual Level Shift  :       0.2500 Eh
   Int. Num. El.       :    26.00002172 (UP=   13.00001086 DN=   13.00001086)
   Exchange            :   -27.14477289
   Correlation         :    -0.89539611
   DIIS-Error          :       0.011285338159
   DIIS coefficients:
      0.16234   0.33965   0.49802

                      *** Initiating the SOSCF procedure ***
                           *** Shutting down DIIS ***
                      *** Re-Reading the Fockian *** 
                      *** Removing any level shift *** 

                         ----------------------------
                         !        ITERATION     5   !
                         ----------------------------
   Total Energy        :    -254.604832770765 Eh
   Energy Change       :      -0.000148200238 Eh
   MAX-DP              :       0.002190203024
   RMS-DP              :       0.000121559034
   Orbital gradient    :       0.000256156819
   Orbital Rotation    :       0.000256156819
   Actual Damping      :       0.0000
   Int. Num. El.       :    26.00002186 (UP=   13.00001093 DN=   13.00001093)
   Exchange            :   -27.13752077
   Correlation         :    -0.89540152

               *** Restarting incremental Fock matrix formation ***

                         ----------------------------
                         !        ITERATION     6   !
                         ----------------------------
   Total Energy        :    -254.604834309484 Eh
   Energy Change       :      -0.000001538719 Eh
   MAX-DP              :       0.000794818670
   RMS-DP              :       0.000051075599
   Orbital gradient    :       0.000219796049
   Orbital Rotation    :       0.000436260060
   Actual Damping      :       0.0000
   Int. Num. El.       :    26.00002189 (UP=   13.00001094 DN=   13.00001094)
   Exchange            :   -27.13654146
   Correlation         :    -0.89538870


                         ----------------------------
                         !        ITERATION     7   !
                         ----------------------------
   Total Energy        :    -254.604833791884 Eh
   Energy Change       :       0.000000517600 Eh
   MAX-DP              :       0.000494866088
   RMS-DP              :       0.000028051717
   Orbital gradient    :       0.000365019638
   Orbital Rotation    :       0.000236223765
   Actual Damping      :       0.0000
   Int. Num. El.       :    26.00002189 (UP=   13.00001094 DN=   13.00001094)
   Exchange            :   -27.13696941
   Correlation         :    -0.89540849


                         ----------------------------
                         !        ITERATION     8   !
                         ----------------------------
   Total Energy        :    -254.604834611396 Eh
   Energy Change       :      -0.000000819512 Eh
   MAX-DP              :       0.000249639749
   RMS-DP              :       0.000015514810
   Orbital gradient    :       0.000070738470
   Orbital Rotation    :       0.000104720444
   Actual Damping      :       0.0000
   Int. Num. El.       :    26.00002189 (UP=   13.00001094 DN=   13.00001094)
   Exchange            :   -27.13702393
   Correlation         :    -0.89540033


                         ----------------------------
                         !        ITERATION     9   !
                         ----------------------------
   Total Energy        :    -254.604834590000 Eh
   Energy Change       :       0.000000021395 Eh
   MAX-DP              :       0.000134568235
   RMS-DP              :       0.000008869936
   Orbital gradient    :       0.000078892932
   Orbital Rotation    :       0.000060233065
   Actual Damping      :       0.0000
   Int. Num. El.       :    26.00002189 (UP=   13.00001094 DN=   13.00001094)
   Exchange            :   -27.13646655
   Correlation         :    -0.89539308


                         ----------------------------
                         !        ITERATION    10   !
                         ----------------------------
   Total Energy        :    -254.604834650703 Eh
   Energy Change       :      -0.000000060703 Eh
   MAX-DP              :       0.000009124411
   RMS-DP              :       0.000000779518
   Orbital gradient    :       0.000002764040
   Orbital Rotation    :       0.000008118988
   Actual Damping      :       0.0000
   Int. Num. El.       :    26.00002189 (UP=   13.00001094 DN=   13.00001094)
   Exchange            :   -27.13681193
   Correlation         :    -0.89539766

                  ***Gradient check signals convergence***
              ***Rediagonalizing the Fockian in SOSCF/NRSCF***

               *****************************************************
               *                     SUCCESS                       *
               *           SCF CONVERGED AFTER  11 CYCLES          *
               *****************************************************

Setting up the final grid:

General Integration Accuracy     IntAcc      ...  5.010
Radial Grid Type                 RadialGrid  ... Gauss-Chebyshev
Angular Grid (max. acc.)         AngularGrid ... Lebedev-434
Angular grid pruning method      GridPruning ... 3 (G Style)
Weight generation scheme         WeightScheme... Becke
Basis function cutoff            BFCut       ...    1.0000e-11
Integration weight cutoff        WCut        ...    1.0000e-14
Grids for H and He will be reduced by one unit

# of grid points (after initial pruning)     ...  38918 (   0.0 sec)
# of grid points (after weights+screening)   ...  38274 (   0.0 sec)
nearest neighbour list constructed           ...    0.0 sec
Grid point re-assignment to atoms done       ...    0.0 sec
Grid point division into batches done        ...    0.4 sec
Reduced shell lists constructed in    0.4 sec

Total number of grid points                  ...    38274
Total number of batches                      ...      600
Average number of points per batch           ...       63
Average number of grid points per atom       ...     9568
Average number of shells per batch           ...    15.92 (75.82%)
Average number of basis functions per batch  ...    36.71 (78.10%)
Average number of large shells per batch     ...    14.08 (88.42%)
Average number of large basis fcns per batch ...    32.31 (88.03%)
Maximum spatial batch extension              ...  12.96,  9.52, 13.02 au
Average spatial batch extension              ...   0.21,  0.19,  0.21 au

Final grid set up in    0.6 sec
Final integration                            ... done (   0.1 sec)
Change in XC energy                          ...     0.000013779
Integrated number of electrons               ...    25.999997042
Previous integrated no of electrons          ...    26.000021887

----------------
TOTAL SCF ENERGY
----------------

Total Energy       :         -254.60482087 Eh           -6928.14940 eV

Components:
Nuclear Repulsion  :           76.00986362 Eh            2068.33354 eV
Electronic Energy  :         -330.61468449 Eh           -8996.48294 eV
One Electron Energy:         -504.06625192 Eh          -13716.34004 eV
Two Electron Energy:          173.45156743 Eh            4719.85710 eV

Virial components:
Potential Energy   :         -507.92198877 Eh          -13821.25997 eV
Kinetic Energy     :          253.31716790 Eh            6893.11058 eV
Virial Ratio       :            2.00508317


DFT components:
N(Alpha)           :       12.999998521068 electrons
N(Beta)            :       12.999998521068 electrons
N(Total)           :       25.999997042137 electrons
E(X)               :      -27.136775599124 Eh       
E(C)               :       -0.895404247170 Eh       
E(XC)              :      -28.032179846294 Eh       
DFET-embed. en.    :        0.000000000000 Eh       

---------------
SCF CONVERGENCE
---------------

  Last Energy change         ...    1.2252e-09  Tolerance :   1.0000e-08
  Last MAX-Density change    ...    3.5056e-06  Tolerance :   1.0000e-07
  Last RMS-Density change    ...    2.8292e-07  Tolerance :   5.0000e-09
  Last Orbital Gradient      ...    1.3282e-06  Tolerance :   1.0000e-05
  Last Orbital Rotation      ...    3.0469e-06  Tolerance :   1.0000e-05

             **** THE GBW FILE WAS UPDATED (NHF2.gbw) ****
             **** DENSITY FILE WAS UPDATED (NHF2.scfp) ****
             **** ENERGY FILE WAS UPDATED (NHF2.en.tmp) ****
             **** THE GBW FILE WAS UPDATED (NHF2.gbw) ****
             **** DENSITY FILE WAS UPDATED (NHF2.scfp) ****
----------------
ORBITAL ENERGIES
----------------

  NO   OCC          E(Eh)            E(eV) 
   0   2.0000     -24.305163      -661.3771 
   1   2.0000     -24.305116      -661.3758 
   2   2.0000     -14.146116      -384.9354 
   3   2.0000      -1.166523       -31.7427 
   4   2.0000      -1.089090       -29.6356 
   5   2.0000      -0.733795       -19.9676 
   6   2.0000      -0.532662       -14.4945 
   7   2.0000      -0.517168       -14.0728 
   8   2.0000      -0.432699       -11.7743 
   9   2.0000      -0.360402        -9.8070 
  10   2.0000      -0.358529        -9.7561 
  11   2.0000      -0.349579        -9.5125 
  12   2.0000      -0.204645        -5.5687 
  13   0.0000      -0.009388        -0.2555 
  14   0.0000       0.034852         0.9484 
  15   0.0000       0.045486         1.2377 
  16   0.0000       0.490698        13.3526 
  17   0.0000       0.580925        15.8078 
  18   0.0000       0.604900        16.4602 
  19   0.0000       0.664231        18.0747 
  20   0.0000       0.801263        21.8035 
  21   0.0000       1.007381        27.4122 
  22   0.0000       1.037303        28.2265 
  23   0.0000       1.071815        29.1656 
  24   0.0000       1.078958        29.3599 
  25   0.0000       1.233196        33.5570 
  26   0.0000       1.240699        33.7611 
  27   0.0000       1.386887        37.7391 
  28   0.0000       1.460701        39.7477 
  29   0.0000       1.619122        44.0585 
  30   0.0000       1.706912        46.4474 
  31   0.0000       1.931833        52.5678 
  32   0.0000       2.071605        56.3712 
  33   0.0000       2.144836        58.3640 
  34   0.0000       2.210779        60.1583 
  35   0.0000       2.306508        62.7633 
  36   0.0000       2.911548        79.2273 
  37   0.0000       2.944937        80.1358 
  38   0.0000       2.950399        80.2844 
  39   0.0000       2.956571        80.4524 
  40   0.0000       2.993211        81.4494 
  41   0.0000       3.004372        81.7531 
  42   0.0000       3.202582        87.1467 
  43   0.0000       3.242566        88.2347 
  44   0.0000       3.321809        90.3910 
  45   0.0000       3.640494        99.0629 
  46   0.0000       3.778066       102.8064 
------------------
MOLECULAR ORBITALS
------------------
                      0         1         2         3         4         5   
                 -24.30516 -24.30512 -14.14612  -1.16652  -1.08909  -0.73380
                   2.00000   2.00000   2.00000   2.00000   2.00000   2.00000
                  --------  --------  --------  --------  --------  --------
  0N   1s         0.000051 -0.000004 -0.988846  0.134501  0.000002 -0.228167
  0N   2s         0.001844 -0.000134  0.040564  0.272900  0.000006 -0.500568
  0N   3s        -0.015779  0.001146 -0.014216  0.051821 -0.000006 -0.174083
  0N   1pz        0.000005 -0.000151  0.001798 -0.038271 -0.054139 -0.129208
  0N   1px        0.000093  0.000337 -0.000619 -0.057813  0.123698 -0.021360
  0N   1py       -0.000096  0.000198  0.002536  0.074066  0.068579 -0.063472
  0N   2pz       -0.002332  0.002427  0.000814  0.009896  0.010725  0.035001
  0N   2px       -0.004265 -0.004848  0.000194  0.010306 -0.024506  0.013390
  0N   2py        0.004845 -0.003211  0.000292 -0.010775 -0.013584  0.003479
  0N   1dz2      -0.000106 -0.000025  0.001018 -0.007544  0.006877 -0.002609
  0N   1dxz      -0.000052  0.000078  0.000605 -0.003639 -0.003835  0.000025
  0N   1dyz       0.000330 -0.000071 -0.000187 -0.012528 -0.011342 -0.001082
  0N   1dx2y2    -0.000343 -0.000137  0.000564  0.006997 -0.019963 -0.001488
  0N   1dxy      -0.000290  0.000144  0.000574  0.004560  0.007789 -0.003074
  1F   1s         0.748075  0.646803 -0.000069  0.185626 -0.213999  0.115151
  1F   2s        -0.029904 -0.025011  0.000553  0.367867 -0.429308  0.239109
  1F   3s         0.018874  0.012821 -0.000739  0.251800 -0.297059  0.198867
  1F   1pz       -0.000073 -0.000056  0.000039  0.001613 -0.008938 -0.027261
  1F   1px       -0.001287 -0.001130 -0.000121  0.090258 -0.070916 -0.149135
  1F   1py       -0.000163 -0.000042 -0.000025  0.010664 -0.000746 -0.009095
  1F   2pz        0.000089 -0.000435  0.000203 -0.002937  0.006019  0.019267
  1F   2px       -0.005513 -0.003200  0.002395 -0.044172  0.033398  0.086399
  1F   2py       -0.001032  0.000328  0.000001 -0.006990  0.001960  0.006285
  1F   1dz2      -0.000242 -0.000121  0.000847 -0.005537  0.004287  0.003329
  1F   1dxz      -0.000043  0.000108 -0.000062  0.000560 -0.001656 -0.003660
  1F   1dyz       0.000075 -0.000051 -0.000012 -0.000613  0.000312 -0.000718
  1F   1dx2y2     0.000412  0.000206 -0.001508  0.009841 -0.008087 -0.006286
  1F   1dxy       0.000210 -0.000087 -0.000086  0.002593 -0.000605 -0.001368
  2F   1s         0.646735 -0.748133 -0.000069  0.185621  0.214003  0.115151
  2F   2s        -0.025975  0.029071  0.000553  0.367857  0.429314  0.239108
  2F   3s         0.016823 -0.015414 -0.000739  0.251794  0.297069  0.198869
  2F   1pz       -0.000746  0.000832 -0.000050  0.057361  0.048310 -0.110328
  2F   1px        0.000449 -0.000446  0.000082 -0.037120 -0.019040  0.040664
  2F   1py        0.000709 -0.000905  0.000087 -0.059954 -0.049127  0.096128
  2F   2pz       -0.003149  0.002568  0.001550 -0.030243 -0.024620  0.066831
  2F   2px        0.002548 -0.000951 -0.000683  0.018221  0.009101 -0.022281
  2F   2py        0.003112 -0.002900 -0.001706  0.027602  0.021604 -0.053966
  2F   1dz2       0.000066 -0.000044 -0.000108  0.001194  0.001549 -0.003687
  2F   1dxz      -0.000304  0.000051  0.000616 -0.004860 -0.002931  0.002890
  2F   1dyz      -0.000239  0.000292  0.001300 -0.008705 -0.007533  0.006095
  2F   1dx2y2    -0.000068  0.000124  0.000598 -0.002076 -0.002762  0.002026
  2F   1dxy       0.000303 -0.000051 -0.000752  0.005456  0.003410 -0.001784
  3H   1s         0.002007 -0.000146 -0.003792  0.045433  0.000002 -0.247340
  3H   2s         0.000630 -0.000046  0.004282  0.003968  0.000002 -0.016159
  3H   1pz        0.000355 -0.000282 -0.003203  0.008454  0.000990 -0.024993
  3H   1px        0.000584  0.000542 -0.001085  0.003824 -0.002262 -0.010034
  3H   1py       -0.000659  0.000372 -0.000572 -0.000223 -0.001254 -0.001631
                      6         7         8         9        10        11   
                  -0.53266  -0.51717  -0.43270  -0.36040  -0.35853  -0.34958
                   2.00000   2.00000   2.00000   2.00000   2.00000   2.00000
                  --------  --------  --------  --------  --------  --------
  0N   1s         0.015946 -0.000001 -0.052946 -0.035875  0.000011 -0.000002
  0N   2s         0.050558 -0.000004 -0.121264 -0.071968  0.000019 -0.000001
  0N   3s         0.017274  0.000002 -0.060912 -0.092834  0.000046 -0.000014
  0N   1pz       -0.359728  0.130575  0.103128 -0.093719 -0.003710 -0.001495
  0N   1px       -0.189065 -0.298314 -0.105991 -0.077434  0.008545  0.003406
  0N   1py        0.057020 -0.165390  0.272600  0.065695  0.004692  0.001901
  0N   2pz        0.127110 -0.045913 -0.062361 -0.018039 -0.003745 -0.028905
  0N   2px        0.064577  0.104889  0.078513  0.005541  0.008556  0.066031
  0N   2py       -0.016125  0.058153 -0.190860 -0.024228  0.004757  0.036608
  0N   1dz2      -0.009161 -0.005098 -0.011622 -0.018928  0.013240  0.005910
  0N   1dxz       0.004420  0.000910  0.000320 -0.022189 -0.017035 -0.003681
  0N   1dyz      -0.019669  0.011894  0.004526 -0.003316 -0.004398 -0.009056
  0N   1dx2y2     0.004575  0.023629 -0.014824  0.004899  0.005736 -0.015403
  0N   1dxy      -0.006655 -0.011290 -0.020981  0.013512 -0.012596  0.005597
  1F   1s        -0.045411 -0.063396 -0.004054  0.002108 -0.002442 -0.003736
  1F   2s        -0.089279 -0.124858 -0.005527  0.008100 -0.007418 -0.008755
  1F   3s        -0.107245 -0.155961 -0.029639  0.014927 -0.001683 -0.031933
  1F   1pz       -0.155739  0.068171  0.091127  0.408873  0.395610  0.266933
  1F   1px        0.251713  0.378789  0.015817  0.165092 -0.045660 -0.115817
  1F   1py        0.043918 -0.041061  0.368312 -0.138703  0.275192 -0.399431
  1F   2pz        0.101377 -0.042448 -0.056997 -0.279135 -0.270031 -0.174117
  1F   2px       -0.145056 -0.221036  0.000634 -0.114674  0.029715  0.091503
  1F   2py       -0.029398  0.023153 -0.237807  0.099455 -0.189329  0.262994
  1F   1dz2      -0.005557 -0.005916 -0.000699 -0.001677  0.001758  0.002716
  1F   1dxz      -0.010252  0.004858  0.003835  0.008608  0.008849  0.004855
  1F   1dyz      -0.000927  0.000200  0.001001  0.001123  0.001306 -0.001149
  1F   1dx2y2     0.007626  0.011212 -0.001647  0.004058 -0.001474 -0.002279
  1F   1dxy       0.003177 -0.002207  0.014328 -0.002365  0.006341 -0.008144
  2F   1s        -0.045407  0.063400 -0.004052  0.002109  0.002440  0.003736
  2F   2s        -0.089272  0.124865 -0.005520  0.008102  0.007410  0.008756
  2F   3s        -0.107235  0.155970 -0.029649  0.014930  0.001673  0.031941
  2F   1pz        0.045262 -0.258660  0.196296  0.355690 -0.357131 -0.001731
  2F   1px       -0.207580  0.056461 -0.224513  0.286191 -0.042862 -0.490066
  2F   1py       -0.210696  0.282368  0.235043 -0.071744 -0.324165  0.063526
  2F   2pz       -0.018753  0.153182 -0.119029 -0.242429  0.245092 -0.008987
  2F   2px        0.129437 -0.031986  0.142409 -0.198246  0.027667  0.326813
  2F   2py        0.122772 -0.163432 -0.159189  0.053248  0.221066 -0.031076
  2F   1dz2      -0.007347 -0.003352  0.007430  0.006446 -0.009571 -0.000941
  2F   1dxz      -0.006172  0.002391 -0.008347  0.000582  0.001824 -0.007206
  2F   1dyz      -0.003533  0.011334  0.001396 -0.005978  0.000175  0.000682
  2F   1dx2y2    -0.001260  0.006187  0.009721 -0.003569 -0.004738  0.003359
  2F   1dxy       0.009947 -0.002353  0.001695 -0.003134  0.002857  0.006264
  3H   1s        -0.270423  0.000007  0.009277 -0.191118  0.000045 -0.000006
  3H   2s        -0.076646 -0.000000  0.001485 -0.054641  0.000001 -0.000000
  3H   1pz       -0.018488 -0.004413 -0.000629 -0.007431 -0.002513  0.000177
  3H   1px       -0.005492  0.010083  0.004368  0.001138  0.005743 -0.000405
  3H   1py       -0.004689  0.005590 -0.008374 -0.007915  0.003187 -0.000226
                     12        13        14        15        16        17   
                  -0.20465  -0.00939   0.03485   0.04549   0.49070   0.58092
                   2.00000   0.00000   0.00000   0.00000   0.00000   0.00000
                  --------  --------  --------  --------  --------  --------
  0N   1s        -0.094319  0.185460  0.000004 -0.002411 -0.072141  0.197260
  0N   2s        -0.204774  0.456707  0.000023  0.038274 -0.302483  1.380589
  0N   3s        -0.303024  0.969274 -0.000115 -0.555250  0.561409 -2.678397
  0N   1pz        0.237982 -0.090878 -0.227870 -0.411649 -0.392051 -0.370850
  0N   1px       -0.135602 -0.214122  0.520377 -0.233129 -0.055358 -0.225454
  0N   1py        0.432465  0.314464  0.288545  0.095195 -0.209625  0.113742
  0N   2pz       -0.126013  0.003150  0.272626  0.606275  0.070498 -0.686413
  0N   2px        0.108943  0.190412 -0.622508  0.314475  0.141653 -0.617957
  0N   2py       -0.296021 -0.340937 -0.345193 -0.088289 -0.199820  0.572470
  0N   1dz2       0.000967 -0.000503 -0.019772  0.004140  0.105273  0.007395
  0N   1dxz      -0.003506  0.001277  0.019823  0.009211  0.067979  0.018898
  0N   1dyz       0.009830  0.016187  0.016744  0.004426  0.020664 -0.029876
  0N   1dx2y2    -0.004464 -0.015448  0.017198 -0.008077  0.019367  0.015835
  0N   1dxy       0.000294 -0.014948  0.002713 -0.013352  0.020247 -0.000155
[...]
Memory needed per perturbation     ...          0.0 MB
Number of perturbations per batch  ...            1
Number of batches                  ...            1

Batching info for step 3
Memory available                   ...       1005.2 MB
Memory needed per perturbation     ...          0.2 MB
Number of perturbations per batch  ...            1
Number of batches                  ...            1

Batching info for step 4
Memory available                   ...       1005.2 MB
Memory needed per perturbation     ...          0.1 MB
Number of perturbations per batch  ...            1
Number of batches                  ...            1

Batching info for step 5
Memory available                   ...       1005.2 MB
Memory needed per perturbation     ...          0.9 MB
Number of perturbations per batch  ...            1
Number of batches                  ...            1

Batching info for step 6
Memory available                   ...       1005.2 MB
Memory needed per perturbation     ...          0.2 MB
Number of perturbations per batch  ...            1
Number of batches                  ...            1


----------------------------------------------
Forming right-hand sides of CP-SCF equations     ...
----------------------------------------------

------------------------
Batching info for step 0
------------------------
Number of perturbation per batch  ...            1
Number of batches                 ...            1
Storage mode                      ...       InCore

One electron integral derivatives                ... done   (      0.3 sec)

------------------------
Batching info for step 1
------------------------
Number of perturbation per batch  ...            1
Number of batches                 ...            1
Storage mode                      ...       InCore

Transforming the overlap derivative matrices     ... done   (      0.0 sec)

------------------------
Batching info for step 1
------------------------
Number of perturbation per batch  ...            1
Number of batches                 ...            1
Storage mode                      ...       InCore

Making the Q(x) pseudodensities                  ... done   (      0.0 sec)
Adding the E*S(x)*S(y) terms to the Hessian      ... done   (      0.0 sec)
Calculating energy weighted overlap derivatives  ... done   (      0.0 sec)

------------------------
Batching info for step 3
------------------------
Number of perturbation per batch  ...            1
Number of batches                 ...            1
Storage mode                      ...       InCore

Two electron integral derivatives (RI)           ... done   (      0.3 sec)

------------------------
Batching info for step 4
------------------------
Number of perturbation per batch  ...            1
Number of batches                 ...            1
Storage mode                      ...       InCore

Exchange-correlation integral derivatives        ... done   (      0.4 sec)
tr(F(y)Q(x)) contribution to the Hessian         ... done   (      0.0 sec)

------------------------
Batching info for step 5
------------------------
Number of perturbation per batch  ...            1
Number of batches                 ...            1
Storage mode                      ...       InCore

Response fock operator R(S(x)) (RI)              ... (RIJ)done   (      0.3 sec)

------------------------
Batching info for step 6
------------------------
Number of perturbation per batch  ...            1
Number of batches                 ...            1
Storage mode                      ...       InCore

XC Response fock operator R(S(x))                ... done   (      0.1 sec)
tr(F(y)S(x)) contribution to the Hessian         ... done   (      0.0 sec)
Transforming and finalizing RHSs                 ... done   (      0.0 sec)

----------------------------------------------
Solving the CP-SCF equations (RI)                ...
----------------------------------------------
     CP-SCF ITERATION   0: 
     CP-SCF ITERATION   1:      0.000872980896
     CP-SCF ITERATION   2:      0.000047531798
     CP-SCF ITERATION   3:      0.000002384351
     CP-SCF ITERATION   4:      0.000000444109
     CP-SCF ITERATION   5:      0.000000021470
     CP-SCF ITERATION   6:      0.000000000315

                                                 ... done   (      2.3 sec)
Forming perturbed density Hessian contributions  ... done   (      0.0 sec)
Making the perturbed densities                   ... done   (      0.0 sec)
2nd integral derivative contribs (RI)            ... done   (      0.8 sec)
Exchange-correlation Hessian                     ... done   (      0.8 sec)
Dispersion correction in the Hessian             ... 
The revPBE functional is recognized
Active option DFTDOPT                   ...         5   



------------------- 
Dispersion Gradient 
------------------- 
   1  :   -0.000031762    0.000011109   -0.000059010
   2  :    0.000248152    0.000101707   -0.000066873
   3  :   -0.000197619   -0.000145771    0.000128469
   4  :   -0.000011917    0.000023903    0.000002775

  |G| =    0.001029068


The revPBE functional is recognized
Active option DFTDOPT                   ...         5   



------------------- 
Dispersion Gradient 
------------------- 
   1  :   -0.000032111    0.000010986   -0.000059064
   2  :    0.000249269    0.000101620   -0.000066914
   3  :   -0.000197371   -0.000145544    0.000128321
   4  :   -0.000012107    0.000023941    0.000002867

  |G| =    0.001030114


Dispersion correction Hessian from Numerical Differentiation: 
                  0          1          2          3          4          5    
      0       0.000035   0.000000   0.000000   0.000000   0.000000   0.000000
      1       0.000000   0.000000   0.000000   0.000000   0.000000   0.000000
      2       0.000000   0.000000   0.000000   0.000000   0.000000   0.000000
      3       0.000000   0.000000   0.000000   0.000000   0.000000   0.000000
      4       0.000000   0.000000   0.000000   0.000000   0.000000   0.000000
      5       0.000000   0.000000   0.000000   0.000000   0.000000   0.000000
      6       0.000000   0.000000   0.000000   0.000000   0.000000   0.000000
      7       0.000000   0.000000   0.000000   0.000000   0.000000   0.000000
      8       0.000000   0.000000   0.000000   0.000000   0.000000   0.000000
      9       0.000000   0.000000   0.000000   0.000000   0.000000   0.000000
     10       0.000000   0.000000   0.000000   0.000000   0.000000   0.000000
     11       0.000000   0.000000   0.000000   0.000000   0.000000   0.000000
                  6          7          8          9         10         11    
      0       0.000000   0.000000   0.000000   0.000000   0.000000   0.000000
      1       0.000000   0.000000   0.000000   0.000000   0.000000   0.000000
      2       0.000000   0.000000   0.000000   0.000000   0.000000   0.000000
      3       0.000000   0.000000   0.000000   0.000000   0.000000   0.000000
      4       0.000000   0.000000   0.000000   0.000000   0.000000   0.000000
      5       0.000000   0.000000   0.000000   0.000000   0.000000   0.000000
      6       0.000000   0.000000   0.000000   0.000000   0.000000   0.000000
      7       0.000000   0.000000   0.000000   0.000000   0.000000   0.000000
      8       0.000000   0.000000   0.000000   0.000000   0.000000   0.000000
      9       0.000000   0.000000   0.000000   0.000000   0.000000   0.000000
     10       0.000000   0.000000   0.000000   0.000000   0.000000   0.000000
     11       0.000000   0.000000   0.000000   0.000000   0.000000   0.000000

done   (      0.1 sec)
gCP correction in the Hessian                    ...  
-----------------
gCP hessian 
from Numerical Differentiation: 
-----------------
                  0          1          2          3          4          5    
      0      -0.000738   0.000522   0.000099  -0.001142   0.000160   0.000067
      1       0.000522  -0.001559  -0.000156   0.000160   0.000973  -0.000005
      2       0.000099  -0.000156  -0.000466   0.000067  -0.000005   0.000983
      3      -0.001142   0.000160   0.000067   0.002012   0.000377   0.000352
      4       0.000160   0.000973  -0.000005   0.000377  -0.001780  -0.000051
      5       0.000067  -0.000005   0.000983   0.000352  -0.000051  -0.001498
      6       0.000796  -0.000502   0.000339  -0.000157  -0.000357   0.000282
      7      -0.000502  -0.000356   0.000905  -0.000357   0.000289   0.000156
      8       0.000339   0.000905   0.000373   0.000282   0.000156   0.000364
      9       0.001084  -0.000179  -0.000505  -0.000713  -0.000180  -0.000701
     10      -0.000179   0.000941  -0.000744  -0.000180   0.000517  -0.000101
     11      -0.000505  -0.000744  -0.000890  -0.000701  -0.000101   0.000151
                  6          7          8          9         10         11    
      0       0.000796  -0.000502   0.000339   0.001084  -0.000179  -0.000505
      1      -0.000502  -0.000356   0.000905  -0.000179   0.000941  -0.000744
      2       0.000339   0.000905   0.000373  -0.000505  -0.000744  -0.000890
      3      -0.000157  -0.000357   0.000282  -0.000713  -0.000180  -0.000701
      4      -0.000357   0.000289   0.000156  -0.000180   0.000517  -0.000101
      5       0.000282   0.000156   0.000364  -0.000701  -0.000101   0.000151
      6      -0.001166   0.000928  -0.000772   0.000527  -0.000068   0.000150
      7       0.000928  -0.000194  -0.001685  -0.000068   0.000261   0.000623
      8      -0.000772  -0.001685   0.000094   0.000150   0.000623  -0.000831
      9       0.000527  -0.000068   0.000150  -0.000898   0.000428   0.001057
     10      -0.000068   0.000261   0.000623   0.000428  -0.001720   0.000222
     11       0.000150   0.000623  -0.000831   0.001057   0.000222   0.001570

done   (      0.1 sec)
Dipol derivatives                                ... done   (      0.3 sec)

-------
TIMINGS
-------

Total SCF Hessian time: 0 days 0 hours 0 min 6 sec 
                   F(y)            G[Q(x)]           CPSCF         Total
Table01         0.3  0.04         0.3  0.04         2.3  0.35         6.6 
Table01a        0.3  0.04,        0.3, 0.04,        2.3  0.35         6.6 
Table01b        0.3   4.2,        0.3,  4.2,        2.3  35.1         6.6 

Writing the Hessian file to the disk             ... done


Maximum memory used throughout the entire calculation: 131.8 MB

-----------------------
VIBRATIONAL FREQUENCIES
-----------------------

Scaling factor for frequencies =  1.000000000  (already applied!)

   0:         0.00 cm**-1
   1:         0.00 cm**-1
   2:         0.00 cm**-1
   3:         0.00 cm**-1
   4:         0.00 cm**-1
   5:         0.00 cm**-1
   6:       469.06 cm**-1
   7:       789.33 cm**-1
   8:       929.46 cm**-1
   9:      1270.22 cm**-1
  10:      1388.12 cm**-1
  11:      3143.01 cm**-1


------------
NORMAL MODES
------------

These modes are the Cartesian displacements weighted by the diagonal matrix
M(i,i)=1/sqrt(m[i]) where m[i] is the mass of the displaced atom
Thus, these vectors are normalized but *not* orthogonal

                  0          1          2          3          4          5    
      0       0.000000   0.000000   0.000000   0.000000   0.000000   0.000000
      1       0.000000   0.000000   0.000000   0.000000   0.000000   0.000000
      2       0.000000   0.000000   0.000000   0.000000   0.000000   0.000000
      3       0.000000   0.000000   0.000000   0.000000   0.000000   0.000000
      4       0.000000   0.000000   0.000000   0.000000   0.000000   0.000000
      5       0.000000   0.000000   0.000000   0.000000   0.000000   0.000000
      6       0.000000   0.000000   0.000000   0.000000   0.000000   0.000000
      7       0.000000   0.000000   0.000000   0.000000   0.000000   0.000000
      8       0.000000   0.000000   0.000000   0.000000   0.000000   0.000000
      9       0.000000   0.000000   0.000000   0.000000   0.000000   0.000000
     10       0.000000   0.000000   0.000000   0.000000   0.000000   0.000000
     11       0.000000   0.000000   0.000000   0.000000   0.000000   0.000000
                  6          7          8          9         10         11    
      0       0.186026  -0.675823   0.459558  -0.004700  -0.029015  -0.016827
      1      -0.207437  -0.376694  -0.586455   0.066543  -0.015981  -0.023840
      2       0.163004   0.297001   0.301845   0.073458   0.012781  -0.068604
      3       0.388908   0.387450  -0.357345  -0.032750  -0.022374   0.000747
      4       0.342309  -0.028145   0.106328  -0.014852  -0.006822  -0.000325
      5      -0.268836  -0.010057  -0.033272  -0.025539  -0.022238   0.001062
      6      -0.540195   0.115072   0.020993   0.007029   0.000467   0.000609
      7      -0.172506   0.308173   0.314673   0.007230  -0.005324  -0.000403
      8       0.137701  -0.210778  -0.197959  -0.043024   0.031744   0.001121
      9       0.266354  -0.080025  -0.046647   0.550073   0.816075   0.208259
     10      -0.317803  -0.043277   0.214579  -0.781015   0.450998   0.344984
     11       0.206455   0.035031   0.163680   0.271461  -0.356769   0.912169


-----------
IR SPECTRUM
-----------

 Mode    freq (cm**-1)   T**2         TX         TY         TZ
-------------------------------------------------------------------
   6:       469.06    2.214777  (  0.843796  -1.100192   0.540706)
   7:       789.33  160.230400  (-10.333881  -5.737232   4.530505)
   8:       929.46   27.701471  (  3.062905  -3.229818   2.808622)
   9:      1270.22   38.546715  (  3.525514  -3.284656   3.915163)
  10:      1388.12   14.222577  (  3.083632   1.703994  -1.345434)
  11:      3143.01    1.371022  ( -0.406282  -0.135333  -1.089790)

The first frequency considered to be a vibration is 6
The total number of vibrations considered is 6


--------------------------
THERMOCHEMISTRY AT 298.15K
--------------------------

Temperature         ... 298.15 K
Pressure            ... 1.00 atm
Total Mass          ... 53.01 AMU

Throughout the following assumptions are being made:
  (1) The electronic state is orbitally nondegenerate
  (2) There are no thermally accessible electronically excited states
  (3) Hindered rotations indicated by low frequency modes are not
      treated as such but are treated as vibrations and this may
      cause some error
  (4) All equations used are the standard statistical mechanics
      equations for an ideal gas
  (5) All vibrations are strictly harmonic

freq.     469.06  E(vib)   ...       0.16 
freq.     789.33  E(vib)   ...       0.05 
freq.     929.46  E(vib)   ...       0.03 
freq.    1270.22  E(vib)   ...       0.01 
freq.    1388.12  E(vib)   ...       0.00 
freq.    3143.01  E(vib)   ...       0.00 

------------
INNER ENERGY
------------

The inner energy is: U= E(el) + E(ZPE) + E(vib) + E(rot) + E(trans)
    E(el)   - is the total energy from the electronic structure calculation
              = E(kin-el) + E(nuc-el) + E(el-el) + E(nuc-nuc)
    E(ZPE)  - the the zero temperature vibrational energy from the frequency calculation
    E(vib)  - the the finite temperature correction to E(ZPE) due to population
              of excited vibrational states
    E(rot)  - is the rotational thermal energy
    E(trans)- is the translational thermal energy

Summary of contributions to the inner energy U:
Electronic energy                ...   -254.59629044 Eh
Zero point energy                ...      0.01820073 Eh      11.42 kcal/mol
Thermal vibrational correction   ...      0.00039832 Eh       0.25 kcal/mol
Thermal rotational correction    ...      0.00141627 Eh       0.89 kcal/mol
Thermal translational correction ...      0.00141627 Eh       0.89 kcal/mol
-----------------------------------------------------------------------
Total thermal energy                   -254.57485885 Eh


Summary of corrections to the electronic energy:
(perhaps to be used in another calculation)
Total thermal correction                  0.00323086 Eh       2.03 kcal/mol
Non-thermal (ZPE) correction              0.01820073 Eh      11.42 kcal/mol
-----------------------------------------------------------------------
Total correction                          0.02143159 Eh      13.45 kcal/mol


--------
ENTHALPY
--------

The enthalpy is H = U + kB*T
                kB is Boltzmann's constant
Total free energy                 ...   -254.57485885 Eh 
Thermal Enthalpy correction       ...      0.00094421 Eh       0.59 kcal/mol
-----------------------------------------------------------------------
Total Enthalpy                    ...   -254.57391464 Eh


Note: Only C1 symmetry has been detected, increase convergence thresholds 
      if your molecule has a higher symmetry. Symmetry factor of 1.0 is   
      used for the rotational entropy correction. 
 

Note: Rotational entropy computed according to Herzberg 
Infrared and Raman Spectra, Chapter V,1, Van Nostrand Reinhold, 1945 
Point Group:  C1, Symmetry Number:   1  
Rotational constants in cm-1:     1.759241     0.343733     0.296665 

Vibrational entropy computed according to the QRRHO of S. Grimme
Chem.Eur.J. 2012 18 9955


-------
ENTROPY
-------

The entropy contributions are T*S = T*(S(el)+S(vib)+S(rot)+S(trans))
     S(el)   - electronic entropy
     S(vib)  - vibrational entropy
     S(rot)  - rotational entropy
     S(trans)- translational entropy
The entropies will be listed as mutliplied by the temperature to get
units of energy

Electronic entropy                ...      0.00000000 Eh      0.00 kcal/mol
Vibrational entropy               ...      0.00053776 Eh      0.34 kcal/mol
Rotational entropy                ...      0.01032194 Eh      6.48 kcal/mol
Translational entropy             ...      0.01797238 Eh     11.28 kcal/mol
-----------------------------------------------------------------------
Final entropy term                ...      0.02883207 Eh     18.09 kcal/mol

In case the symmetry of your molecule has not been determined correctly
or in case you have a reason to use a different symmetry number we print 
out the resulting rotational entropy values for sn=1,12 :
 --------------------------------------------------------
|  sn= 1 | S(rot)=       0.01032194 Eh      6.48 kcal/mol|
|  sn= 2 | S(rot)=       0.00966748 Eh      6.07 kcal/mol|
|  sn= 3 | S(rot)=       0.00928465 Eh      5.83 kcal/mol|
|  sn= 4 | S(rot)=       0.00901302 Eh      5.66 kcal/mol|
|  sn= 5 | S(rot)=       0.00880234 Eh      5.52 kcal/mol|
|  sn= 6 | S(rot)=       0.00863019 Eh      5.42 kcal/mol|
|  sn= 7 | S(rot)=       0.00848465 Eh      5.32 kcal/mol|
|  sn= 8 | S(rot)=       0.00835857 Eh      5.25 kcal/mol|
|  sn= 9 | S(rot)=       0.00824736 Eh      5.18 kcal/mol|
|  sn=10 | S(rot)=       0.00814788 Eh      5.11 kcal/mol|
|  sn=11 | S(rot)=       0.00805789 Eh      5.06 kcal/mol|
|  sn=12 | S(rot)=       0.00797574 Eh      5.00 kcal/mol|
 --------------------------------------------------------


-------------------
GIBBS FREE ENERGY
-------------------

The Gibbs free energy is G = H - T*S

Total enthalpy                    ...   -254.57391464 Eh 
Total entropy correction          ...     -0.02883207 Eh    -18.09 kcal/mol
-----------------------------------------------------------------------
Final Gibbs free energy         ...   -254.60274672 Eh

For completeness - the Gibbs free energy minus the electronic energy
G-E(el)                           ...     -0.00645628 Eh     -4.05 kcal/mol


Timings for individual modules:

Sum of individual times         ...       42.572 sec (=   0.710 min)
GTO integral calculation        ...        4.238 sec (=   0.071 min)  10.0 %
SCF iterations                  ...       24.052 sec (=   0.401 min)  56.5 %
SCF Gradient evaluation         ...        7.208 sec (=   0.120 min)  16.9 %
Geometry relaxation             ...        0.120 sec (=   0.002 min)   0.3 %
Analytical frequency calculation...        6.955 sec (=   0.116 min)  16.3 %
                             ****ORCA TERMINATED NORMALLY****
TOTAL RUN TIME: 0 days 0 hours 0 minutes 43 seconds 821 msec
