
                                 *****************
                                 * O   R   C   A *
                                 *****************

           --- An Ab Initio, DFT and Semiempirical electronic structure package ---

                  #######################################################
                  #                        -***-                        #
                  #          Department of theory and spectroscopy      #
                  #               Directorship: Frank Neese             #
                  #        Max Planck Institute fuer Kohlenforschung    #
                  #                Kaiser Wilhelm Platz 1               #
                  #                 D-45470 Muelheim/Ruhr               #
                  #                      Germany                        #
                  #                                                     #
                  #                  All rights reserved                #
                  #                        -***-                        #
                  #######################################################


                         Program Version 4.2.1 -  RELEASE  -


 With contributions from (in alphabetic order):
   Daniel Aravena         : Magnetic Suceptibility
   Michael Atanasov       : Ab Initio Ligand Field Theory (pilot matlab implementation)
   Alexander A. Auer      : GIAO ZORA, VPT2
   Ute Becker             : Parallelization
   Giovanni Bistoni       : ED, misc. LED, open-shell LED, HFLD
   Martin Brehm           : Molecular dynamics
   Dmytro Bykov           : SCF Hessian
   Vijay G. Chilkuri      : MRCI spin determinant printing, contributions to CSF-ICE
   Dipayan Datta          : RHF DLPNO-CCSD density
   Achintya Kumar Dutta   : EOM-CC, STEOM-CC
   Dmitry Ganyushin       : Spin-Orbit,Spin-Spin,Magnetic field MRCI
   Miquel Garcia          : C-PCM Hessian, Gaussian charge scheme
   Yang Guo               : DLPNO-NEVPT2, CIM, IAO-localization
   Andreas Hansen         : Spin unrestricted coupled pair/coupled cluster methods
   Benjamin Helmich-Paris : CASSCF linear response (MC-RPA)
   Lee Huntington         : MR-EOM, pCC
   Robert Izsak           : Overlap fitted RIJCOSX, COSX-SCS-MP3, EOM
   Christian Kollmar      : KDIIS, OOCD, Brueckner-CCSD(T), CCSD density
   Simone Kossmann        : Meta GGA functionals, TD-DFT gradient, OOMP2, MP2 Hessian
   Martin Krupicka        : AUTO-CI
   Lucas Lang             : DCDCAS
   Dagmar Lenk            : GEPOL surface, SMD
   Dimitrios Liakos       : Extrapolation schemes; Compound Job, initial MDCI parallelization
   Dimitrios Manganas     : Further ROCIS development; embedding schemes
   Dimitrios Pantazis     : SARC Basis sets
   Taras Petrenko         : DFT Hessian,TD-DFT gradient, ASA, ECA, R-Raman, ABS, FL, XAS/XES, NRVS
   Peter Pinski           : DLPNO-MP2, DLPNO-MP2 Gradient
   Christoph Reimann      : Effective Core Potentials
   Marius Retegan         : Local ZFS, SOC
   Christoph Riplinger    : Optimizer, TS searches, QM/MM, DLPNO-CCSD(T), (RO)-DLPNO pert. Triples
   Tobias Risthaus        : Range-separated hybrids, TD-DFT gradient, RPA, STAB
   Michael Roemelt        : Original ROCIS implementation
   Masaaki Saitow         : Open-shell DLPNO-CCSD energy and density
   Barbara Sandhoefer     : DKH picture change effects
   Avijit Sen             : IP-ROCIS
   Kantharuban Sivalingam : CASSCF convergence, NEVPT2, FIC-MRCI
   Bernardo de Souza      : ESD, SOC TD-DFT
   Georgi Stoychev        : AutoAux, RI-MP2 NMR
   Willem Van den Heuvel  : Paramagnetic NMR
   Boris Wezisla          : Elementary symmetry handling
   Frank Wennmohs         : Technical directorship


 We gratefully acknowledge several colleagues who have allowed us to
 interface, adapt or use parts of their codes:
   Stefan Grimme, W. Hujo, H. Kruse,             : VdW corrections, initial TS optimization,
                  C. Bannwarth                     DFT functionals, gCP, sTDA/sTD-DF
   Ed Valeev, F. Pavosevic, A. Kumar             : LibInt (2-el integral package), F12 methods
   Garnet Chan, S. Sharma, J. Yang, R. Olivares  : DMRG
   Ulf Ekstrom                                   : XCFun DFT Library
   Mihaly Kallay                                 : mrcc  (arbitrary order and MRCC methods)
   Andreas Klamt, Michael Diedenhofen            : otool_cosmo (COSMO solvation model)
   Jiri Pittner, Ondrej Demel                    : Mk-CCSD
   Frank Weinhold                                : gennbo (NPA and NBO analysis)
   Christopher J. Cramer and Donald G. Truhlar   : smd solvation model
   Lars Goerigk                                  : TD-DFT with DH, B97 family of functionals
   V. Asgeirsson, H. Jonsson                     : NEB implementation
   FAccTs GmbH                                   : IRC, NEB, NEB-TS, Multilevel, MM, QM/MM, CI optimization
   S Lehtola, MJT Oliveira, MAL Marques          : LibXC Library


 Your calculation uses the libint2 library for the computation of 2-el integrals
 For citations please refer to: http://libint.valeyev.net

 Your ORCA version has been built with support for libXC version: 4.2.3
 For citations please refer to: https://tddft.org/programs/libxc/

 This ORCA versions uses:
   CBLAS   interface :  Fast vector & matrix operations
   LAPACKE interface :  Fast linear algebra routines
   SCALAPACK package :  Parallel linear algebra routines


Your calculation utilizes the geometrical counterpoise correction gCP
Please cite in your paper:
H.Kruse, S. Grimme J.Chem.Phys., 136, (2012), 154101 
   

Your calculation utilizes the atom-pairwise dispersion correction
based on tight binding partial charges (D4)
Cite in your paper:
E.Caldeweyher, C.Bannwarth, S.Grimme, J.Chem.Phys., (2017), 147, 034112.
E.Caldeweyher, S.Ehlert, A.Hansen, H.Neugebauer, S.Grimme, J.Chem.Phys., (2018), in progress.
   

----- Orbital basis set information -----
Your calculation utilizes the basis: def2-SVP
   F. Weigend and R. Ahlrichs, Phys. Chem. Chem. Phys. 7, 3297 (2005).

----- AuxJ basis set information -----
Your calculation utilizes the auxiliary basis: def2/J
   F. Weigend, Phys. Chem. Chem. Phys. 8, 1057 (2006).

================================================================================
                                        WARNINGS
                       Please study these warnings very carefully!
================================================================================


WARNING: Geometry Optimization
  ===> : Switching off AutoStart
         For restart on a previous wavefunction, please use MOREAD

INFO   : the flag for use of LIBINT has been found!

================================================================================
                                       INPUT FILE
================================================================================
NAME = phosphorous-oxychloride.inp
|  1> ! revPBE D4 gCP(DFT/SVP) def2-SVP Opt Freq TightOpt TightSCF Grid4 FinalGrid5 LargePrint
|  2> 
|  3> %pal
|  4>  nprocs 8
|  5> end
|  6> 
|  7> *xyz 0 1
|  8> P       -3.0278814790      0.9099489500      1.3710527145                 
|  9> O       -3.0513495796      2.1908732359      0.5918308752                 
| 10> Cl      -1.3208613415     -0.1060060942      1.1628974116                 
| 11> Cl      -4.4741344686     -0.3607777010      0.8390591990                 
| 12> Cl      -3.2517252571      1.1812974923      3.3371846947                 
| 13> *
| 14> 
| 15>                          ****END OF INPUT****
================================================================================

                       *****************************
                       * Geometry Optimization Run *
                       *****************************

Geometry optimization settings:
Update method            Update   .... BFGS
Choice of coordinates    CoordSys .... Z-matrix Internals
Initial Hessian          InHess   .... Almoef's Model

Convergence Tolerances:
Energy Change            TolE     ....  1.0000e-06 Eh
Max. Gradient            TolMAXG  ....  1.0000e-04 Eh/bohr
RMS Gradient             TolRMSG  ....  3.0000e-05 Eh/bohr
Max. Displacement        TolMAXD  ....  1.0000e-03 bohr
RMS Displacement         TolRMSD  ....  6.0000e-04 bohr
Strict Convergence                ....  False
------------------------------------------------------------------------------
                        ORCA OPTIMIZATION COORDINATE SETUP
------------------------------------------------------------------------------

The optimization will be done in new redundant internal coordinates
Making redundant internal coordinates   ...  (new redundants) done
Evaluating the initial hessian          ...  (Almloef) done
Evaluating the coordinates              ...  done
Calculating the B-matrix                .... done
Calculating the G-matrix                .... done
Diagonalizing the G-matrix              .... done
The first mode is                       ....    1
The number of degrees of freedom        ....    9

    -----------------------------------------------------------------
                    Redundant Internal Coordinates


    -----------------------------------------------------------------
         Definition                    Initial Value    Approx d2E/dq
    -----------------------------------------------------------------
      1. B(O   1,P   0)                  1.4995         1.257960   
      2. B(Cl  2,P   0)                  1.9974         0.506103   
      3. B(Cl  3,P   0)                  1.9974         0.506103   
      4. B(Cl  4,P   0)                  1.9974         0.506103   
      5. A(O   1,P   0,Cl  3)          113.1866         0.562877   
      6. A(Cl  2,P   0,Cl  3)          105.5137         0.495821   
      7. A(O   1,P   0,Cl  4)          113.1866         0.562877   
      8. A(Cl  2,P   0,Cl  4)          105.5137         0.495821   
      9. A(Cl  3,P   0,Cl  4)          105.5137         0.495821   
     10. A(O   1,P   0,Cl  2)          113.1866         0.562877   
    -----------------------------------------------------------------

Number of atoms                         .... 5
Number of degrees of freedom            .... 10

         *************************************************************
         *                GEOMETRY OPTIMIZATION CYCLE   1            *
         *************************************************************
---------------------------------
CARTESIAN COORDINATES (ANGSTROEM)
---------------------------------
  P     -3.027881    0.909949    1.371053
  O     -3.051350    2.190873    0.591831
  Cl    -1.320861   -0.106006    1.162897
  Cl    -4.474134   -0.360778    0.839059
  Cl    -3.251725    1.181297    3.337185

----------------------------
CARTESIAN COORDINATES (A.U.)
----------------------------
  NO LB      ZA    FRAG     MASS         X           Y           Z
   0 P    15.0000    0    30.974   -5.721867    1.719554    2.590914
   1 O     8.0000    0    15.999   -5.766215    4.140150    1.118398
   2 Cl   17.0000    0    35.453   -2.496066   -0.200322    2.197558
   3 Cl   17.0000    0    35.453   -8.454889   -0.681771    1.585592
   4 Cl   17.0000    0    35.453   -6.144870    2.232329    6.306365

--------------------------------
INTERNAL COORDINATES (ANGSTROEM)
--------------------------------
 P      0   0   0     0.000000000000     0.00000000     0.00000000
 O      1   0   0     1.499501401399     0.00000000     0.00000000
 Cl     1   2   0     1.997351003652   113.18657121     0.00000000
 Cl     1   2   3     1.997351003710   113.18657120   240.00000000
 Cl     1   2   3     1.997351003697   113.18657121   120.00000000

---------------------------
INTERNAL COORDINATES (A.U.)
---------------------------
 P      0   0   0     0.000000000000     0.00000000     0.00000000
 O      1   0   0     2.833646986074     0.00000000     0.00000000
 Cl     1   2   0     3.774446390216   113.18657121     0.00000000
 Cl     1   2   3     3.774446390325   113.18657120   240.00000000
 Cl     1   2   3     3.774446390299   113.18657121   120.00000000

---------------------
BASIS SET INFORMATION
---------------------
There are 3 groups of distinct atoms

 Group   1 Type P   : 10s7p1d contracted to 4s3p1d pattern {5311/511/1}
 Group   2 Type O   : 7s4p1d contracted to 3s2p1d pattern {511/31/1}
 Group   3 Type Cl  : 10s7p1d contracted to 4s3p1d pattern {5311/511/1}

Atom   0P    basis set group =>   1
Atom   1O    basis set group =>   2
Atom   2Cl   basis set group =>   3
Atom   3Cl   basis set group =>   3
Atom   4Cl   basis set group =>   3

-------------------------
BASIS SET IN INPUT FORMAT
-------------------------

 # Basis set for element : O 
 NewGTO O 
 S 5 
   1    2266.1767785000     -0.0053893504
   2     340.8701019100     -0.0402347214
   3      77.3631351670     -0.1800818421
   4      21.4796449400     -0.4682885766
   5       6.6589433124     -0.4469261716
 S 1 
   1       0.8097597567      1.0000000000
 S 1 
   1       0.2553077223      1.0000000000
 P 3 
   1      17.7215043170      0.0626302488
   2       3.8635505440      0.3333113849
   3       1.0480920883      0.7414863830
 P 1 
   1       0.2764154441      1.0000000000
 D 1 
   1       1.2000000000      1.0000000000
  end;

 # Basis set for element : P 
 NewGTO P 
 S 5 
   1    8002.4795106000      0.0055255553
   2    1203.6813590000      0.0413263672
   3     273.4422703100      0.1860700590
   4      76.6555415170      0.4771070068
   5      23.5169274350      0.4322476888
 S 3 
   1      39.7916834390      0.0909541455
   2       4.2770343323     -0.5508556562
   3       1.6940256888     -0.5182699790
 S 1 
   1       0.2756767464      1.0000000000
 S 1 
   1       0.1049559010      1.0000000000
 P 5 
   1     219.5075582300      0.0095739101
   2      51.2741550300      0.0679938519
   3      15.9215958920      0.2498320975
   4       5.5069913481      0.4814817905
   5       1.9537719426      0.3886979854
 P 1 
   1       0.4780339793      1.0000000000
 P 1 
   1       0.1365795262      1.0000000000
 D 1 
   1       0.4500000000      1.0000000000
  end;

 # Basis set for element : Cl
 NewGTO Cl
 S 5 
   1   10449.8275660000      0.0054265952
   2    1571.7365221000      0.0406263782
   3     357.1206552300      0.1835974786
   4     100.2518593500      0.4743894876
   5      30.8127275540      0.4373518111
 S 3 
   1      51.9237894340     -0.0927541549
   2       5.7045760975      0.5638082555
   3       2.3508376809      0.5036704463
 S 1 
   1       0.4460512467      1.0000000000
 S 1 
   1       0.1684885619      1.0000000000
 P 5 
   1     307.6679056900     -0.0088797025
   2      72.1020155150     -0.0642840717
   3      22.5326802620     -0.2428873974
   4       7.8991765444     -0.4834083637
   5       2.8767268321     -0.3895256388
 P 1 
   1       0.7745936396      1.0000000000
 P 1 
   1       0.2103769970      1.0000000000
 D 1 
   1       0.6500000000      1.0000000000
  end;

---------------------------------
AUXILIARY/J BASIS SET INFORMATION
---------------------------------
There are 3 groups of distinct atoms

 Group   1 Type P   : 14s5p5d2f1g contracted to 8s4p3d1f1g pattern {71111111/2111/311/2/1}
 Group   2 Type O   : 12s5p4d2f1g contracted to 6s4p3d1f1g pattern {711111/2111/211/2/1}
 Group   3 Type Cl  : 14s5p5d2f1g contracted to 8s4p3d1f1g pattern {71111111/2111/311/2/1}

Atom   0P    basis set group =>   1
Atom   1O    basis set group =>   2
Atom   2Cl   basis set group =>   3
Atom   3Cl   basis set group =>   3
Atom   4Cl   basis set group =>   3

-------------------------------------
AUXILIARY/J BASIS SET IN INPUT FORMAT
-------------------------------------

 # Auxiliary/J basis set for element : O 
 NewAuxJGTO O 
 S 7 
   1    2876.8216605000      0.0168151159
   2    1004.7443032000      0.0340137548
   3     369.7579954000      0.1194951309
   4     142.9442404000      0.2664627624
   5      57.8366425000      0.4202764046
   6      24.3864983000      0.2765077335
   7      10.6622662000      0.0057008815
 S 1 
   1       4.8070437000     -1.0000000000
 S 1 
   1       2.2210770000      1.0000000000
 S 1 
   1       1.0447795000      1.0000000000
 S 1 
   1       0.4968425000      1.0000000000
 S 1 
   1       0.2371384000      1.0000000000
 P 2 
   1      64.2613382000     -0.2731534179
   2      16.3006076000     -0.8168011598
 P 1 
   1       4.3550542000      1.0000000000
 P 1 
   1       1.2019554000      1.0000000000
 P 1 
   1       0.3354196000      1.0000000000
 D 2 
   1       9.2146611000     -0.4661230638
   2       2.8435251000     -0.6600908911
 D 1 
   1       0.9955759000     -1.0000000000
 D 1 
   1       0.3649441000     -1.0000000000
 F 2 
   1       2.6420115000      0.5931563945
   2       0.7345613000      0.5931563945
 G 1 
   1       1.3931000000     -1.0000000000
  end;

 # Auxiliary/J basis set for element : P 
 NewAuxJGTO P 
 S 7 
   1    7402.6405628000      0.0283683821
   2    2444.3806296000      0.0467822411
   3    1031.0485275000      0.1580852563
   4     387.5215861000      0.3531223810
   5     159.3342518000      0.4193943947
   6      72.5438912000      0.1609216222
   7      29.2976155000     -0.0496128323
 S 1 
   1      13.1685047000      1.0000000000
 S 1 
   1       6.4235268000      1.0000000000
 S 1 
   1       3.1479365000      1.0000000000
 S 1 
   1       1.4941282000     -1.0000000000
 S 1 
   1       0.6745215000      1.0000000000
 S 1 
   1       0.3252877000      1.0000000000
 S 1 
   1       0.1527285000      1.0000000000
 P 2 
   1      10.6100703000      1.3628381028
   2       3.3972489000     -0.9765554975
 P 1 
   1       1.0821336000      1.0000000000
 P 1 
   1       0.3436265000      1.0000000000
 P 1 
   1       0.1090044000      1.0000000000
 D 3 
   1       5.5575593000      1.4455213379
   2       2.6033240000     -2.6898670329
   3       1.2378589000      1.8946125981
 D 1 
   1       0.5939646000      1.0000000000
 D 1 
   1       0.2858732000     -1.0000000000
 F 2 
   1       1.0262041000      0.8266279730
   2       0.2959414000      0.3059900147
 G 1 
   1       0.5510844000     -1.0000000000
  end;

 # Auxiliary/J basis set for element : Cl
 NewAuxJGTO Cl
 S 7 
   1    8044.2766240000      0.0309054740
   2    2924.5123954000      0.0600734063
   3    1110.8168739000      0.1862207460
   4     439.9050761000      0.3715503251
   5     181.1987287000      0.4220785347
   6      77.4148302000      0.0994388367
   7      34.1977273000     -0.0596902748
 S 1 
   1      15.5648397000      1.0000000000
 S 1 
   1       7.2707873000      1.0000000000
 S 1 
   1       3.4711900000     -1.0000000000
 S 1 
   1       1.6860808000     -1.0000000000
 S 1 
   1       0.8293125000      1.0000000000
 S 1 
   1       0.4110124000      1.0000000000
 S 1 
   1       0.2042190000      1.0000000000
 P 2 
   1      12.2564993000      1.4910316311
   2       4.8922575000     -1.4908224419
 P 1 
   1       1.9265460000      1.0000000000
 P 1 
   1       0.7525989000     -1.0000000000
 P 1 
   1       0.2932189000     -1.0000000000
 D 3 
   1      28.4370504000     -1.0829567244
   2       7.2772298000      0.5502349187
   3       2.3111621000     -0.5567798939
 D 1 
   1       0.8580943000     -1.0000000000
 D 1 
   1       0.3376227000     -1.0000000000
 F 2 
   1       1.2035685000      0.5557691438
   2       0.4700000000      0.5557691438
 G 1 
   1       0.7521100000     -1.0000000000
  end;



           ************************************************************
           *        Program running with 8 parallel MPI-processes     *
           *              working on a common directory               *
           ************************************************************
------------------------------------------------------------------------------
                           ORCA GTO INTEGRAL CALCULATION
                           -- RI-GTO INTEGRALS CHOSEN --
------------------------------------------------------------------------------

                         BASIS SET STATISTICS AND STARTUP INFO

Gaussian basis set:
 # of primitive gaussian shells          ...   84
 # of primitive gaussian functions       ...  168
 # of contracted shells                  ...   38
 # of contracted basis functions         ...   86
 Highest angular momentum                ...    2
 Maximum contraction depth               ...    5
Auxiliary gaussian basis set:
 # of primitive gaussian shells          ...  132
 # of primitive gaussian functions       ...  378
 # of contracted shells                  ...   83
 # of contracted aux-basis functions     ...  253
 Highest angular momentum                ...    4
 Maximum contraction depth               ...    7
Ratio of auxiliary to basis functions    ...  2.94
Integral package used                  ... LIBINT
 One Electron integrals                  ... done
 Ordering auxiliary basis shells         ... done
 Integral threshhold             Thresh  ...  2.500e-11
 Primitive cut-off               TCut    ...  2.500e-12
 Pre-screening matrix                    ... done
 Shell pair data                         ... 
 Ordering of the shell pairs             ... done (   0.000 sec) 689 of 741 pairs
 Determination of significant pairs      ... done (   0.000 sec)
 Creation of shell pair data             ... done (   0.000 sec)
 Storage of shell pair data              ... done (   0.027 sec)
 Shell pair data done in (   0.028 sec)
 Computing two index integrals           ... done
 Cholesky decomposition of the V-matrix  ... done


Timings:
 Total evaluation time                   ...   0.220 sec (  0.004 min)
 One electron matrix time                ...   0.022 sec (  0.000 min) = 10.2%
 Schwartz matrix evaluation time         ...   0.125 sec (  0.002 min) = 56.6%
 Two index repulsion integral time       ...   0.007 sec (  0.000 min) =  3.0%
 Cholesky decomposition of V             ...   0.012 sec (  0.000 min) =  5.5%
 Three index repulsion integral time     ...   0.000 sec (  0.000 min) =  0.1%



           ************************************************************
           *        Program running with 8 parallel MPI-processes     *
           *              working on a common directory               *
           ************************************************************
-------------------------------------------------------------------------------
                                 ORCA SCF
-------------------------------------------------------------------------------

------------
SCF SETTINGS
------------
Hamiltonian:
 Density Functional     Method          .... DFT(GTOs)
 Exchange Functional    Exchange        .... PBE
   PBE kappa parameter   XKappa         ....  1.245000
   PBE mue parameter    XMuePBE         ....  0.219520
 Correlation Functional Correlation     .... PBE
   PBE beta parameter  CBetaPBE         ....  0.066725
 LDA part of GGA corr.  LDAOpt          .... PW91-LDA
 Gradients option       PostSCFGGA      .... off
   Density functional embedding theory  .... OFF
   NL short-range parameter             ....  3.700000
 RI-approximation to the Coulomb term is turned on
   Number of auxiliary basis functions  .... 253


General Settings:
 Integral files         IntName         .... phosphorous-oxychloride
 Hartree-Fock type      HFTyp           .... RHF
 Total Charge           Charge          ....    0
 Multiplicity           Mult            ....    1
 Number of Electrons    NEL             ....   74
 Basis Dimension        Dim             ....   86
 Nuclear Repulsion      ENuc            ....    462.9373454759 Eh

Convergence Acceleration:
 DIIS                   CNVDIIS         .... on
   Start iteration      DIISMaxIt       ....    12
   Startup error        DIISStart       ....  0.200000
   # of expansion vecs  DIISMaxEq       ....     5
   Bias factor          DIISBfac        ....   1.050
   Max. coefficient     DIISMaxC        ....  10.000
 Newton-Raphson         CNVNR           .... off
 SOSCF                  CNVSOSCF        .... on
   Start iteration      SOSCFMaxIt      ....   150
   Startup grad/error   SOSCFStart      ....  0.003300
 Level Shifting         CNVShift        .... on
   Level shift para.    LevelShift      ....    0.2500
   Turn off err/grad.   ShiftErr        ....    0.0010
 Zerner damping         CNVZerner       .... off
 Static damping         CNVDamp         .... on
   Fraction old density DampFac         ....    0.7000
   Max. Damping (<1)    DampMax         ....    0.9800
   Min. Damping (>=0)   DampMin         ....    0.0000
   Turn off err/grad.   DampErr         ....    0.1000
 Fernandez-Rico         CNVRico         .... off

SCF Procedure:
 Maximum # iterations   MaxIter         ....   125
 SCF integral mode      SCFMode         .... Direct
   Integral package                     .... LIBINT
 Reset frequency        DirectResetFreq ....    20
 Integral Threshold     Thresh          ....  2.500e-11 Eh
 Primitive CutOff       TCut            ....  2.500e-12 Eh

Convergence Tolerance:
 Convergence Check Mode ConvCheckMode   .... Total+1el-Energy
 Convergence forced     ConvForced      .... 0
 Energy Change          TolE            ....  1.000e-08 Eh
 1-El. energy change                    ....  1.000e-05 Eh
 Orbital Gradient       TolG            ....  1.000e-05
 Orbital Rotation angle TolX            ....  1.000e-05
 DIIS Error             TolErr          ....  5.000e-07


Diagonalization of the overlap matrix:
Smallest eigenvalue                        ... 9.438e-03
Time for diagonalization                   ...    0.003 sec
Threshold for overlap eigenvalues          ... 1.000e-08
Number of eigenvalues below threshold      ... 0
Time for construction of square roots      ...    0.001 sec
Total time needed                          ...    0.004 sec

-------------------
DFT GRID GENERATION
-------------------

General Integration Accuracy     IntAcc      ...  4.670
Radial Grid Type                 RadialGrid  ... Gauss-Chebyshev
Angular Grid (max. acc.)         AngularGrid ... Lebedev-302
Angular grid pruning method      GridPruning ... 3 (G Style)
Weight generation scheme         WeightScheme... Becke
Basis function cutoff            BFCut       ...    1.0000e-11
Integration weight cutoff        WCut        ...    1.0000e-14
Grids for H and He will be reduced by one unit

# of grid points (after initial pruning)     ...  33272 (   0.0 sec)
# of grid points (after weights+screening)   ...  32620 (   0.0 sec)
nearest neighbour list constructed           ...    0.0 sec
Grid point re-assignment to atoms done       ...    0.0 sec
Grid point division into batches done        ...    0.3 sec
Reduced shell lists constructed in    0.3 sec

Total number of grid points                  ...    32620
Total number of batches                      ...      513
Average number of points per batch           ...       63
Average number of grid points per atom       ...     6524
Average number of shells per batch           ...    29.86 (78.59%)
Average number of basis functions per batch  ...    72.92 (84.80%)
Average number of large shells per batch     ...    26.89 (90.06%)
Average number of large basis fcns per batch ...    66.89 (91.73%)
Maximum spatial batch extension              ...  16.68,  8.69, 16.68 au
Average spatial batch extension              ...   0.18,  0.16,  0.18 au

Time for grid setup =    0.516 sec

------------------------------
INITIAL GUESS: MODEL POTENTIAL
------------------------------
Loading Hartree-Fock densities                     ... done
Calculating cut-offs                               ... done
Setting up the integral package                    ... done
Initializing the effective Hamiltonian             ... done
Starting the Coulomb interaction                   ... done (   0.0 sec)
Reading the grid                                   ... done
Mapping shells                                     ... done
Starting the XC term evaluation                    ... done (   0.1 sec)
  promolecular density results
     # of electrons  =     73.999972402
     EX              =   -113.357305318
     EC              =     -2.874127672
     EX+EC           =   -116.231432990
Transforming the Hamiltonian                       ... done (   0.0 sec)
Diagonalizing the Hamiltonian                      ... done (   0.0 sec)
Back transforming the eigenvectors                 ... done (   0.0 sec)
Now organizing SCF variables                       ... done
                      ------------------
                      INITIAL GUESS DONE (   0.7 sec)
                      ------------------
----------------------
INITIAL GUESS ORBITALS
----------------------
                      0         1         2         3         4         5   
                 -100.69161 -100.69157 -100.69157 -76.33682 -18.95737  -9.23600
                   2.00000   2.00000   2.00000   2.00000   2.00000   2.00000
                  --------  --------  --------  --------  --------  --------
  0P   1s         0.000010 -0.000000 -0.000000  0.994493  0.000019  0.000058
  0P   2s         0.000080 -0.000000 -0.000000 -0.021270  0.000058  0.000421
  0P   3s         0.002035 -0.000001 -0.000000 -0.011005  0.000962  0.005670
  0P   4s        -0.008414  0.000002  0.000000  0.003560 -0.016543 -0.022495
  0P   1pz       -0.000029 -0.000027 -0.000004 -0.000092  0.000116 -0.000103
  0P   1px       -0.000001  0.000004 -0.000032 -0.000003  0.000003 -0.000005
  0P   1py        0.000048 -0.000017 -0.000003  0.000151 -0.000190  0.000185
  0P   2pz        0.000183  0.000022  0.000003  0.000551  0.000451  0.000559
  0P   2px        0.000005 -0.000004  0.000026  0.000017  0.000014  0.000020
  0P   2py       -0.000300  0.000013  0.000002 -0.000906 -0.000741 -0.000948
  0P   3pz       -0.001092 -0.001533 -0.000196  0.001386  0.003402 -0.002509
  0P   3px       -0.000033  0.000247 -0.001793  0.000042  0.000102 -0.000122
  0P   3py        0.001795 -0.000929 -0.000152 -0.002278 -0.005593  0.004503
  0P   1dz2      -0.000007 -0.000067  0.000013  0.000126  0.000041 -0.000003
  0P   1dxz       0.000001  0.000020  0.000074 -0.000019 -0.000006  0.000000
  0P   1dyz      -0.000056 -0.000036  0.000012  0.001020  0.000334  0.000089
  0P   1dx2y2    -0.000046  0.000054 -0.000017  0.000838  0.000275  0.000069
  0P   1dxy      -0.000002  0.000012  0.000057  0.000031  0.000010  0.000001
  1O   1s        -0.000048  0.000000  0.000000 -0.000009  0.988833 -0.000110
  1O   2s        -0.000514  0.000000  0.000000 -0.000886 -0.041182 -0.001237
  1O   3s         0.001453 -0.000000 -0.000000  0.004242  0.027773  0.004025
  1O   1pz       -0.000006 -0.000018 -0.000002  0.000097 -0.000944  0.000019
  1O   1px       -0.000000  0.000003 -0.000021  0.000003 -0.000028  0.000000
  1O   1py        0.000009 -0.000011 -0.000002 -0.000159  0.001552 -0.000031
  1O   2pz        0.000165  0.000238  0.000030  0.001582  0.003427  0.000441
  1O   2px        0.000005 -0.000038  0.000278  0.000048  0.000103  0.000020
  1O   2py       -0.000271  0.000144  0.000024 -0.002600 -0.005633 -0.000776
  1O   1dz2      -0.000000  0.000020  0.000008 -0.000090 -0.000033 -0.000007
  1O   1dxz       0.000000  0.000002  0.000041  0.000013  0.000005  0.000001
  1O   1dyz      -0.000002 -0.000030  0.000000 -0.000729 -0.000266 -0.000037
  1O   1dx2y2    -0.000002  0.000033  0.000000 -0.000599 -0.000219 -0.000037
  1O   1dxy      -0.000000  0.000009 -0.000026 -0.000022 -0.000008 -0.000002
  2Cl  1s         0.573802 -0.411481  0.699670  0.000009 -0.000016  0.185891
  2Cl  2s         0.012928 -0.009238  0.015709 -0.000051  0.000155 -0.608581
  2Cl  3s        -0.006518  0.004256 -0.007236  0.000023 -0.001520 -0.033631
  2Cl  4s         0.006038 -0.002848  0.004842 -0.000486  0.004005  0.019183
  2Cl  1pz       -0.000006  0.000012 -0.000006  0.000012  0.000020  0.000144
  2Cl  1px        0.000064 -0.000034  0.000065 -0.000006  0.000027 -0.001109
  2Cl  1py       -0.000040  0.000024 -0.000032 -0.000014 -0.000053  0.000644
  2Cl  2pz       -0.000046  0.000051 -0.000032  0.000054  0.000125 -0.000132
  2Cl  2px        0.000368 -0.000173  0.000320  0.000066  0.000224  0.001168
  2Cl  2py       -0.000216  0.000117 -0.000166 -0.000140 -0.000380 -0.000723
  2Cl  3pz        0.000312  0.000010  0.000130 -0.000210 -0.000462  0.000738
  2Cl  3px       -0.001726  0.000570 -0.000896 -0.000165 -0.001394 -0.004436
  2Cl  3py        0.000862 -0.000299  0.000599  0.000471  0.001854  0.002312
  2Cl  1dz2      -0.000113  0.000020 -0.000090 -0.000243 -0.000168 -0.000204
  2Cl  1dxz      -0.000095 -0.000028 -0.000023 -0.000018  0.000190 -0.000192
  2Cl  1dyz       0.000026  0.000025  0.000035  0.000018 -0.000027  0.000036
  2Cl  1dx2y2     0.000152 -0.000066  0.000025  0.000127 -0.000128  0.000293
  2Cl  1dxy      -0.000146  0.000081 -0.000124 -0.000404 -0.000378 -0.000257
  3Cl  1s         0.573796 -0.400414 -0.706066  0.000009 -0.000016  0.184367
  3Cl  2s         0.012928 -0.008990 -0.015852 -0.000051  0.000155 -0.603589
  3Cl  3s        -0.006518  0.004142  0.007303  0.000023 -0.001520 -0.033366
  3Cl  4s         0.006038 -0.002771 -0.004886 -0.000486  0.004005  0.019069
  3Cl  1pz       -0.000018  0.000018  0.000019  0.000013  0.000015  0.000352
  3Cl  1px       -0.000054  0.000026  0.000057  0.000005 -0.000022  0.000932
  3Cl  1py       -0.000050  0.000028  0.000042 -0.000013 -0.000057  0.000802
  3Cl  2pz       -0.000116  0.000081  0.000094  0.000042  0.000083 -0.000351
  3Cl  2px       -0.000312  0.000134  0.000279 -0.000053 -0.000181 -0.000980
  3Cl  2py       -0.000271  0.000139  0.000216 -0.000149 -0.000412 -0.000892
  3Cl  3pz        0.000640 -0.000095 -0.000300 -0.000180 -0.000202  0.001576
  3Cl  3px        0.001468 -0.000493 -0.000752  0.000127  0.001146  0.003757
  3Cl  3py        0.001120 -0.000374 -0.000737  0.000494  0.002060  0.002963
  3Cl  1dz2      -0.000070  0.000024  0.000078 -0.000220 -0.000229 -0.000117
  3Cl  1dxz       0.000142  0.000007 -0.000045  0.000102 -0.000153  0.000282
  3Cl  1dyz       0.000079  0.000010 -0.000066  0.000112  0.000018  0.000133
  3Cl  1dx2y2     0.000075 -0.000040  0.000021 -0.000018 -0.000206  0.000151
  3Cl  1dxy       0.000172 -0.000100 -0.000116  0.000409  0.000324  0.000311
  4Cl  1s         0.574109  0.811456  0.006386  0.000009 -0.000016  0.168610
  4Cl  2s         0.012935  0.018219  0.000143 -0.000051  0.000155 -0.551998
  4Cl  3s        -0.006521 -0.008393 -0.000066  0.000023 -0.001520 -0.030630
  4Cl  4s         0.006040  0.005615  0.000044 -0.000486  0.004005  0.017888
  4Cl  1pz        0.000075  0.000082  0.000002  0.000004  0.000053 -0.001147
  4Cl  1px       -0.000008 -0.000010  0.000009  0.000001 -0.000003  0.000132
  4Cl  1py        0.000008  0.000016  0.000001 -0.000019 -0.000034 -0.000176
  4Cl  2pz        0.000422  0.000410  0.000007  0.000136  0.000404  0.001262
  4Cl  2px       -0.000048 -0.000048  0.000034 -0.000007 -0.000024 -0.000141
  4Cl  2py        0.000061  0.000072  0.000003 -0.000091 -0.000214  0.000143
  4Cl  3pz       -0.001890 -0.001243 -0.000000 -0.000411 -0.002214 -0.004698
  4Cl  3px        0.000230  0.000138  0.000096  0.000014  0.000161  0.000564
  4Cl  3py       -0.000441 -0.000132  0.000007  0.000352  0.000817 -0.001007
  4Cl  1dz2       0.000212  0.000177 -0.000010  0.000481  0.000361  0.000369
  4Cl  1dxz      -0.000052 -0.000031 -0.000065 -0.000087 -0.000032 -0.000097
  4Cl  1dyz       0.000133  0.000015 -0.000001  0.000013 -0.000288  0.000264
  4Cl  1dx2y2    -0.000031  0.000013  0.000001  0.000008  0.000090 -0.000079
  4Cl  1dxy      -0.000019  0.000000  0.000036 -0.000001  0.000044 -0.000040
                      6         7         8         9        10        11   
                  -9.23599  -9.23599  -7.05330  -7.05329  -7.05329  -7.05119
                   2.00000   2.00000   2.00000   2.00000   2.00000   2.00000
                  --------  --------  --------  --------  --------  --------
  0P   1s        -0.000000  0.000002 -0.000022  0.000011  0.000054 -0.000001
  0P   2s        -0.000002  0.000018 -0.000079  0.000039  0.000195 -0.000012
  0P   3s        -0.000028  0.000245 -0.000906  0.000445  0.002236 -0.000109
  0P   4s         0.000110 -0.000972  0.005820 -0.002862 -0.014378  0.000083
  0P   1pz       -0.000013 -0.000164  0.000158 -0.000026 -0.000028  0.000026
  0P   1px       -0.000186  0.000018 -0.000023 -0.000156  0.000019 -0.000030
  0P   1py       -0.000013 -0.000089  0.000022  0.000017  0.000166  0.000010
  0P   2pz        0.000024  0.000329  0.000117  0.000031  0.000330 -0.000208
  0P   2px        0.000356 -0.000033 -0.000043 -0.000265  0.000044  0.000239
  0P   2py        0.000027  0.000144  0.000289 -0.000094 -0.000338 -0.000077
  0P   3pz       -0.000329 -0.004052  0.003383 -0.000588 -0.000741  0.001282
  0P   3px       -0.004606  0.000439 -0.000472 -0.003299  0.000398 -0.001269
  0P   3py       -0.000314 -0.002196  0.000355  0.000413  0.003720  0.000144
  0P   1dz2      -0.000003  0.000305 -0.000431 -0.000023 -0.000152  0.000053
  0P   1dxz       0.000041 -0.000043  0.000073 -0.000031  0.000033  0.000014
  0P   1dyz      -0.000027 -0.000073 -0.000000 -0.000023  0.000151  0.000047
  0P   1dx2y2     0.000045  0.000050 -0.000033  0.000097  0.000087  0.000025
  0P   1dxy      -0.000314  0.000005 -0.000018 -0.000448  0.000086  0.000034
  1O   1s         0.000001 -0.000005  0.000021 -0.000010 -0.000051 -0.000005
  1O   2s         0.000006 -0.000053  0.000275 -0.000136 -0.000682 -0.000071
  1O   3s        -0.000020  0.000174 -0.001002  0.000494  0.002490  0.000364
  1O   1pz       -0.000001 -0.000008 -0.000018  0.000009  0.000044  0.000027
  1O   1px       -0.000010  0.000001 -0.000001  0.000000  0.000001 -0.000023
  1O   1py       -0.000000 -0.000007  0.000030 -0.000015 -0.000073  0.000011
  1O   2pz        0.000044  0.000552 -0.000516  0.000092  0.000128 -0.000131
  1O   2px        0.000622 -0.000059  0.000071  0.000499 -0.000060  0.000222
  1O   2py        0.000043  0.000289 -0.000045 -0.000067 -0.000589 -0.000207
  1O   1dz2       0.000018  0.000040 -0.000047  0.000014 -0.000030 -0.000014
  1O   1dxz       0.000108  0.000012 -0.000002  0.000100 -0.000020  0.000013
  1O   1dyz       0.000006 -0.000078  0.000091 -0.000006 -0.000027  0.000004
  1O   1dx2y2    -0.000005  0.000085 -0.000058 -0.000012 -0.000074 -0.000017
  1O   1dxy      -0.000056  0.000020 -0.000021 -0.000069  0.000003 -0.000018
  2Cl  1s         0.223395 -0.111896 -0.000170 -0.000752 -0.000507  0.000004
  2Cl  2s        -0.731435  0.366368  0.000628  0.002848  0.001948 -0.000025
  2Cl  3s        -0.038783  0.019371 -0.000229 -0.002805 -0.002668  0.000014
  2Cl  4s         0.016718 -0.008160 -0.000521  0.004713  0.006221  0.000493
  2Cl  1pz        0.000174 -0.000063  0.021443  0.085281  0.057486  0.130740
  2Cl  1px       -0.001346  0.000687 -0.155787 -0.684760 -0.456974  0.243823
  2Cl  1py        0.000813 -0.000393  0.092976  0.405215  0.272759  0.385014
  2Cl  2pz       -0.000121  0.000183 -0.001215 -0.004658 -0.003183 -0.007007
  2Cl  2px        0.001177 -0.000521  0.008457  0.037508  0.025117 -0.013099
  2Cl  2py       -0.000602  0.000369 -0.005074 -0.022151 -0.015007 -0.020643
  2Cl  3pz        0.000313 -0.000033 -0.000039  0.001021  0.000940  0.001051
  2Cl  3px       -0.002377  0.001142 -0.001066 -0.007751 -0.006665  0.001888
  2Cl  3py        0.001491 -0.000639  0.000688  0.004643  0.003656  0.003550
  2Cl  1dz2      -0.000112 -0.000050  0.000114  0.000014 -0.000055 -0.000009
  2Cl  1dxz      -0.000011 -0.000080  0.000126  0.000002 -0.000093  0.000041
  2Cl  1dyz       0.000063  0.000066 -0.000067  0.000028 -0.000009 -0.000048
  2Cl  1dx2y2    -0.000017 -0.000086 -0.000046 -0.000081  0.000186  0.000051
  2Cl  1dxy      -0.000118  0.000088  0.000058  0.000064 -0.000085 -0.000047
  3Cl  1s        -0.216780 -0.126480 -0.000133  0.000526 -0.000747 -0.000001
  3Cl  2s         0.709773  0.414119  0.000488 -0.001981  0.002853  0.000007
  3Cl  3s         0.037647  0.021903 -0.000099  0.001658 -0.003504  0.000011
  3Cl  4s        -0.016274 -0.009253 -0.000719 -0.002107  0.007498 -0.000222
  3Cl  1pz       -0.000418 -0.000222  0.040137 -0.150258  0.211705 -0.525376
  3Cl  1px       -0.001102 -0.000663  0.102870 -0.407707  0.572078  0.486911
  3Cl  1py       -0.000984 -0.000562  0.091154 -0.355420  0.502543 -0.334218
  3Cl  2pz        0.000329  0.000301 -0.002225  0.008204 -0.011640  0.028132
  3Cl  2px        0.000995  0.000475 -0.005556  0.022313 -0.031399 -0.026074
  3Cl  2py        0.000755  0.000495 -0.004964  0.019398 -0.027584  0.017893
  3Cl  3pz       -0.000755 -0.000303  0.000048 -0.001521  0.002952 -0.004642
  3Cl  3px       -0.001953 -0.001126  0.000621 -0.004096  0.007667  0.004138
  3Cl  3py       -0.001807 -0.000933  0.000572 -0.003761  0.006443 -0.002970
  3Cl  1dz2       0.000107 -0.000017  0.000064 -0.000017 -0.000009 -0.000012
  3Cl  1dxz      -0.000037  0.000065 -0.000146  0.000080  0.000118 -0.000002
  3Cl  1dyz      -0.000093  0.000050 -0.000100  0.000008  0.000033  0.000013
  3Cl  1dx2y2     0.000059 -0.000063  0.000004  0.000095  0.000098 -0.000037
  3Cl  1dxy      -0.000085 -0.000132 -0.000042  0.000134  0.000092 -0.000031
  4Cl  1s        -0.009253  0.261661  0.000896 -0.000066 -0.000213 -0.000003
  4Cl  2s         0.030297 -0.856722 -0.003397  0.000255  0.000836  0.000020
  4Cl  3s         0.001613 -0.045492  0.003490 -0.000409 -0.001640  0.000012
  4Cl  4s        -0.000719  0.019839 -0.006200  0.001052  0.004652 -0.000602
  4Cl  1pz        0.000067 -0.001823  0.936408 -0.068250 -0.218079 -0.014705
  4Cl  1px        0.000020  0.000208 -0.107173  0.005595  0.025239 -0.304961
  4Cl  1py        0.000011 -0.000251  0.134358 -0.009672 -0.029878 -0.134360
  4Cl  2pz       -0.000041  0.001533 -0.051284  0.003769  0.012074  0.000800
  4Cl  2px        0.000144 -0.000175  0.005873 -0.000244 -0.001409  0.016347
  4Cl  2py        0.000002  0.000274 -0.007382  0.000537  0.001646  0.007232
  4Cl  3pz        0.000140 -0.003387  0.010932 -0.001076 -0.004123  0.000239
  4Cl  3px        0.000101  0.000387 -0.001250  0.000265  0.000469 -0.002566
  4Cl  3py        0.000027 -0.000439  0.001612 -0.000202 -0.000891 -0.001161
  4Cl  1dz2      -0.000031  0.000187  0.000054  0.000014  0.000191 -0.000070
  4Cl  1dxz      -0.000131 -0.000035 -0.000014 -0.000119 -0.000036 -0.000075
  4Cl  1dyz      -0.000000 -0.000002  0.000007  0.000034  0.000191 -0.000017
  4Cl  1dx2y2    -0.000005  0.000032 -0.000005 -0.000012 -0.000062  0.000014
  4Cl  1dxy       0.000110  0.000009  0.000001  0.000069 -0.000044  0.000024
                     12        13        14        15        16        17   
                  -7.05119  -7.05119  -7.05118  -7.05117  -7.05117  -6.36929
                   2.00000   2.00000   2.00000   2.00000   2.00000   2.00000
                  --------  --------  --------  --------  --------  --------
  0P   1s         0.000002 -0.000001  0.000011 -0.000002  0.000001 -0.300040
  0P   2s         0.000024 -0.000007  0.000133 -0.000023  0.000006 -1.017678
  0P   3s         0.000220 -0.000061  0.001211 -0.000211  0.000056  0.058583
  0P   4s        -0.000159  0.000047 -0.000868  0.000141 -0.000059 -0.019077
  0P   1pz       -0.000037  0.000058 -0.000013  0.000017  0.000022 -0.000628
  0P   1px        0.000056  0.000043 -0.000018 -0.000031  0.000023 -0.000019
  0P   1py       -0.000011  0.000033  0.000047 -0.000000  0.000017  0.001033
  0P   2pz        0.000295 -0.000462  0.000126 -0.000140 -0.000183 -0.001244
  0P   2px       -0.000443 -0.000346  0.000144  0.000250 -0.000191 -0.000037
  0P   2py        0.000081 -0.000262 -0.000417  0.000006 -0.000137  0.002045
  0P   3pz       -0.001899  0.002550 -0.002508  0.001152  0.001002 -0.003387
  0P   3px        0.002329  0.001823 -0.000847 -0.001450  0.001109 -0.000102
  0P   3py        0.000126  0.001244  0.005277 -0.000523  0.000935  0.005568
  0P   1dz2      -0.000082  0.000066 -0.000043  0.000024  0.000095 -0.000302
  0P   1dxz      -0.000071 -0.000114 -0.000025 -0.000189  0.000228  0.000045
  0P   1dyz      -0.000140  0.000040 -0.000505 -0.000066 -0.000165 -0.002449
  0P   1dx2y2    -0.000003 -0.000009 -0.000398  0.000247  0.000150 -0.002012
  0P   1dxy      -0.000040 -0.000061  0.000018  0.000142 -0.000050 -0.000074
  1O   1s         0.000010 -0.000003  0.000057 -0.000010  0.000002  0.000275
  1O   2s         0.000144 -0.000039  0.000794 -0.000140  0.000034  0.001291
  1O   3s        -0.000740  0.000203 -0.004076  0.000720 -0.000175 -0.008669
  1O   1pz       -0.000018  0.000037 -0.000007  0.000089  0.000117 -0.000013
  1O   1px        0.000019  0.000013 -0.000034 -0.000137  0.000104 -0.000000
  1O   1py       -0.000001  0.000020  0.000048  0.000042  0.000075  0.000021
  1O   2pz        0.000086 -0.000360 -0.000759 -0.000165 -0.000454 -0.003783
  1O   2px       -0.000351 -0.000263  0.000158  0.000518 -0.000392 -0.000114
  1O   2py        0.000313 -0.000297  0.001014 -0.000351 -0.000220  0.006219
  1O   1dz2       0.000016 -0.000033  0.000002 -0.000019 -0.000022  0.000066
  1O   1dxz      -0.000027 -0.000026  0.000005  0.000008 -0.000001 -0.000010
  1O   1dyz      -0.000003  0.000021  0.000083 -0.000013  0.000011  0.000533
  1O   1dx2y2     0.000029 -0.000029  0.000059 -0.000009 -0.000004  0.000438
  1O   1dxy       0.000031  0.000020 -0.000009 -0.000025  0.000022  0.000016
  2Cl  1s        -0.000005 -0.000002  0.000003  0.000001 -0.000001 -0.000034
  2Cl  2s         0.000039  0.000013 -0.000026 -0.000016  0.000009  0.000288
  2Cl  3s        -0.000021  0.000004 -0.000127  0.000024 -0.000011 -0.000695
  2Cl  4s        -0.000811 -0.000280  0.001550  0.000386 -0.000125  0.002352
  2Cl  1pz        0.671546 -0.331753  0.273733  0.107885 -0.534025 -0.000029
  2Cl  1px       -0.095577 -0.256032 -0.203468 -0.196608 -0.210378 -0.000004
  2Cl  1py       -0.305802 -0.362122 -0.397378 -0.352158 -0.242299  0.000050
  2Cl  2pz       -0.035974  0.017790 -0.014622 -0.005685  0.028332 -0.000161
  2Cl  2px        0.005144  0.013721  0.010876  0.010398  0.011184  0.000198
  2Cl  2py        0.016350  0.019388  0.021237  0.018665  0.012875  0.000104
  2Cl  3pz        0.005851 -0.003140  0.002622  0.000674 -0.004159  0.000494
  2Cl  3px       -0.000443 -0.002167 -0.002632 -0.001611 -0.001636  0.000441
  2Cl  3py       -0.002954 -0.003321 -0.003196 -0.002396 -0.002028 -0.001151
  2Cl  1dz2       0.000055 -0.000006 -0.000056 -0.000031  0.000061  0.000751
  2Cl  1dxz       0.000028  0.000068 -0.000088  0.000065 -0.000076  0.000107
  2Cl  1dyz      -0.000008 -0.000040  0.000034 -0.000040  0.000040 -0.000080
  2Cl  1dx2y2    -0.000013  0.000018  0.000135 -0.000128 -0.000013 -0.000461
  2Cl  1dxy       0.000059  0.000031 -0.000051 -0.000118 -0.000008  0.001226
  3Cl  1s         0.000002  0.000007  0.000000 -0.000001  0.000001 -0.000034
  3Cl  2s        -0.000017 -0.000050 -0.000008  0.000012 -0.000019  0.000288
  3Cl  3s        -0.000023  0.000008 -0.000129  0.000020 -0.000005 -0.000695
  3Cl  4s         0.000561  0.001113  0.001121 -0.000478  0.000682  0.002352
  3Cl  1pz        0.013124 -0.536892  0.230522 -0.461959  0.246725 -0.000029
  3Cl  1px       -0.101454 -0.103521  0.280372  0.240525  0.248888  0.000001
  3Cl  1py        0.111397  0.347695 -0.415784 -0.080492 -0.386166  0.000051
  3Cl  2pz       -0.000721  0.028760 -0.012385  0.024494 -0.013097 -0.000200
  3Cl  2px        0.005457  0.005587 -0.015004 -0.012737 -0.013182 -0.000175
  3Cl  2py       -0.005971 -0.018608  0.022245  0.004238  0.020498  0.000074
  3Cl  3pz        0.000448 -0.004572  0.002491 -0.003689  0.001947  0.000414
  3Cl  3px       -0.000796 -0.000415  0.003034  0.001633  0.002169 -0.000343
  3Cl  3py        0.001245  0.003463 -0.003489 -0.000752 -0.002657 -0.001214
  3Cl  1dz2       0.000016 -0.000045  0.000016  0.000085 -0.000055  0.000661
  3Cl  1dxz       0.000079  0.000043  0.000119  0.000008 -0.000051 -0.000373
  3Cl  1dyz       0.000082  0.000009  0.000066  0.000029 -0.000024 -0.000378
  3Cl  1dx2y2    -0.000049  0.000029  0.000119 -0.000040 -0.000115 -0.000005
  3Cl  1dxy       0.000017  0.000090  0.000039 -0.000022  0.000098 -0.001257
  4Cl  1s         0.000004 -0.000005  0.000001 -0.000002 -0.000002 -0.000034
  4Cl  2s        -0.000029  0.000037 -0.000007  0.000015  0.000016  0.000288
  4Cl  3s        -0.000025  0.000009 -0.000123  0.000016 -0.000012 -0.000695
  4Cl  4s         0.000908 -0.001019  0.000946 -0.000531 -0.000371  0.002352
  4Cl  1pz       -0.097885  0.033494  0.104990 -0.019312 -0.094339 -0.000033
  4Cl  1px       -0.572304 -0.243413  0.206567  0.481717 -0.440751 -0.000001
  4Cl  1py        0.217360 -0.416989 -0.573010  0.525890  0.312706  0.000048
  4Cl  2pz        0.005227 -0.001764 -0.005601  0.001041  0.005022  0.000096
  4Cl  2px        0.030692  0.013063 -0.011024 -0.025605  0.023384 -0.000031
  4Cl  2py       -0.011644  0.022365  0.030707 -0.027973 -0.016579  0.000257
  4Cl  3pz       -0.001385  0.000866  0.000443  0.000151 -0.000503  0.001035
  4Cl  3px       -0.005098 -0.002400  0.001844  0.003832 -0.003488 -0.000039
  4Cl  3py        0.001748 -0.003621 -0.005511  0.004233  0.002308 -0.000830
  4Cl  1dz2       0.000077 -0.000080  0.000038 -0.000058 -0.000074 -0.001485
  4Cl  1dxz       0.000006  0.000085 -0.000020  0.000062 -0.000045  0.000276
  4Cl  1dyz       0.000060 -0.000021  0.000172  0.000084  0.000107 -0.000130
  4Cl  1dx2y2    -0.000021  0.000006 -0.000017 -0.000012  0.000008 -0.000016
  4Cl  1dxy       0.000019  0.000018 -0.000015  0.000028 -0.000051  0.000013
                     18        19        20        21        22        23   
                  -4.58416  -4.58097  -4.58096  -1.02676  -0.84328  -0.79888
                   2.00000   2.00000   2.00000   2.00000   2.00000   2.00000
                  --------  --------  --------  --------  --------  --------
  0P   1s         0.000635 -0.000000  0.000000 -0.030484  0.028200 -0.000000
  0P   2s         0.002665 -0.000000  0.000000 -0.181605  0.171873 -0.000001
  0P   3s         0.002531  0.000001  0.000000 -0.267304  0.261122 -0.000001
  0P   4s         0.005753 -0.000000  0.000001  0.042380 -0.003089  0.000000
  0P   1pz       -0.509623 -0.776502 -0.316995 -0.042781 -0.030189  0.021961
  0P   1px       -0.015249  0.379547 -0.905167 -0.001288 -0.000909  0.059705
  0P   1py        0.837835 -0.465409 -0.209291  0.070325  0.049628  0.014453
  0P   2pz       -0.030004 -0.042890 -0.017510  0.060707  0.047792 -0.035107
  0P   2px       -0.000898  0.020964 -0.049998  0.001828  0.001440 -0.095445
  0P   2py        0.049327 -0.025707 -0.011560 -0.099792 -0.078565 -0.023105
  0P   3pz        0.004171  0.009180  0.003747  0.022728  0.018943 -0.015838
  0P   3px        0.000124 -0.004487  0.010701  0.000684  0.000570 -0.043058
  0P   3py       -0.006857  0.005502  0.002475 -0.037358 -0.031138 -0.010423
  0P   1dz2      -0.000430 -0.001150 -0.000207  0.005386  0.002812 -0.008797
  0P   1dxz       0.000064  0.000103  0.000623 -0.000799 -0.000417  0.013832
  0P   1dyz      -0.003483 -0.000209  0.000109  0.043618  0.022776  0.004334
  0P   1dx2y2    -0.002862  0.000437 -0.000128  0.035838  0.018714 -0.004975
  0P   1dxy      -0.000105 -0.000209  0.001074  0.001314  0.000686  0.036310
  1O   1s         0.001003  0.000000  0.000000 -0.279101 -0.071731  0.000000
  1O   2s         0.001511  0.000000  0.000000 -0.577288 -0.156598  0.000000
  1O   3s        -0.006156 -0.000000 -0.000001 -0.309973 -0.078162  0.000000
  1O   1pz        0.000265  0.000190  0.000078 -0.074216  0.000636 -0.006070
  1O   1px        0.000008 -0.000093  0.000222 -0.002236  0.000019 -0.016502
  1O   1py       -0.000436  0.000114  0.000051  0.122007 -0.001043 -0.003995
  1O   2pz       -0.003500 -0.000886 -0.000362 -0.020868  0.003305 -0.002280
  1O   2px       -0.000105  0.000433 -0.001033 -0.000628  0.000100 -0.006198
  1O   2py        0.005753 -0.000531 -0.000238  0.034305 -0.005431 -0.001500
  1O   1dz2       0.000018  0.000242  0.000091  0.001303 -0.000140 -0.000808
  1O   1dxz      -0.000003 -0.000058  0.000126 -0.000194  0.000021 -0.001106
  1O   1dyz       0.000147 -0.000121 -0.000052  0.010559 -0.001135  0.000456
  1O   1dx2y2     0.000121  0.000106  0.000062  0.008675 -0.000933 -0.000537
  1O   1dxy       0.000004  0.000105 -0.000261  0.000318 -0.000034  0.002163
  2Cl  1s         0.000009  0.000001 -0.000001 -0.004947  0.043838 -0.048883
  2Cl  2s        -0.000126  0.000076 -0.000075  0.030150 -0.273134  0.305838
  2Cl  3s         0.000440  0.000132 -0.000130 -0.033118  0.368223 -0.420679
  2Cl  4s        -0.001860  0.001210 -0.001195 -0.040389  0.184898 -0.198685
  2Cl  1pz        0.000012  0.000042  0.000010  0.000078  0.004894 -0.003961
  2Cl  1px       -0.000001 -0.000049  0.000074  0.006041 -0.026634  0.014771
  2Cl  1py       -0.000018  0.000039 -0.000006 -0.004915  0.013184 -0.012326
  2Cl  2pz        0.000123  0.000238  0.000121  0.000418  0.008003 -0.006612
  2Cl  2px       -0.000194  0.000050  0.000126  0.007924 -0.043018  0.025310
  2Cl  2py       -0.000046  0.000043  0.000178 -0.006959  0.021135 -0.021001
  2Cl  3pz       -0.000545 -0.001127 -0.000498 -0.002392  0.006487 -0.005052
  2Cl  3px        0.000434  0.000318 -0.001102  0.018285 -0.041193  0.020525
  2Cl  3py        0.000538 -0.000541 -0.000460 -0.010621  0.022145 -0.015614
  2Cl  1dz2      -0.000399  0.000656 -0.000639  0.003218 -0.007731  0.004478
  2Cl  1dxz      -0.000122  0.000232 -0.000182  0.000020 -0.003889  0.003030
  2Cl  1dyz       0.000103 -0.000141  0.000099  0.000101  0.002496 -0.001745
  2Cl  1dx2y2     0.000356 -0.000525  0.000566 -0.001204  0.008690 -0.002397
  2Cl  1dxy      -0.000629  0.001017 -0.000998  0.005396 -0.011490  0.009628
  3Cl  1s         0.000009  0.000000  0.000001 -0.004947  0.043838  0.068832
  3Cl  2s        -0.000126  0.000027  0.000103  0.030150 -0.273135 -0.430654
  3Cl  3s         0.000440  0.000047  0.000179 -0.033117  0.368225  0.592363
  3Cl  4s        -0.001861  0.000430  0.001645 -0.040389  0.184897  0.279769
  3Cl  1pz        0.000012  0.000041  0.000030 -0.001063  0.009956  0.006855
  3Cl  1px        0.000002 -0.000009  0.000079 -0.005073  0.022656  0.018459
  3Cl  1py       -0.000018  0.000030  0.000038 -0.005813  0.017166  0.018853
  3Cl  2pz        0.000161  0.000238  0.000036 -0.001077  0.016180  0.011653
  3Cl  2px        0.000170 -0.000177  0.000097 -0.006637  0.036600  0.031576
  3Cl  2py       -0.000017  0.000105 -0.000117 -0.008135  0.027568  0.032227
  3Cl  3pz       -0.000630 -0.001128 -0.000371 -0.005862  0.014310  0.009743
  3Cl  3px       -0.000395  0.000638 -0.001062 -0.015501  0.034981  0.025399
  3Cl  3py        0.000471 -0.000625 -0.000056 -0.013351  0.028299  0.024581
  3Cl  1dz2      -0.000327  0.000185  0.000722  0.002998 -0.005753 -0.006056
  3Cl  1dxz       0.000270 -0.000180 -0.000608 -0.001110  0.006914  0.004790
  3Cl  1dyz       0.000271 -0.000170 -0.000526 -0.001114  0.005899  0.004523
  3Cl  1dx2y2     0.000103 -0.000012 -0.000197  0.000678  0.003606  0.000058
  3Cl  1dxy       0.000666 -0.000368 -0.001464 -0.005386  0.012647  0.012788
  4Cl  1s         0.000009 -0.000001 -0.000000 -0.004947  0.043837 -0.019950
  4Cl  2s        -0.000126 -0.000103 -0.000028  0.030150 -0.273131  0.124818
  4Cl  3s         0.000440 -0.000178 -0.000049 -0.033116  0.368220 -0.171686
  4Cl  4s        -0.001861 -0.001640 -0.000451 -0.040391  0.184895 -0.081087
  4Cl  1pz        0.000010  0.000083  0.000028  0.007741 -0.029093  0.007366
  4Cl  1px        0.000001 -0.000024  0.000042 -0.000765  0.003548 -0.005335
  4Cl  1py       -0.000019  0.000031  0.000013 -0.000378 -0.006938  0.000225
  4Cl  2pz       -0.000128 -0.000022  0.000028  0.010458 -0.046896  0.012617
  4Cl  2px        0.000029 -0.000094  0.000306 -0.000992  0.005734 -0.008881
  4Cl  2py       -0.000195  0.000125  0.000061 -0.001014 -0.011368  0.000394
  4Cl  3pz        0.000028 -0.000766 -0.000365  0.020907 -0.046037  0.010007
  4Cl  3px       -0.000074  0.000520 -0.001357 -0.002403  0.005452 -0.005967
  4Cl  3py        0.000877 -0.000645 -0.000298  0.003172 -0.008953  0.000707
  4Cl  1dz2       0.000798  0.001737  0.000487 -0.006288  0.015326 -0.003766
  4Cl  1dxz      -0.000158 -0.000363 -0.000044  0.001100 -0.003298  0.004277
  4Cl  1dyz       0.000211  0.000420  0.000119  0.000430  0.006512 -0.000235
  4Cl  1dx2y2     0.000022 -0.000012 -0.000008  0.000047 -0.000047 -0.000559
  4Cl  1dxy      -0.000020 -0.000046 -0.000022 -0.000028 -0.000708  0.001467
                     24        25        26        27        28        29   
                  -0.79888  -0.56561  -0.47525  -0.46178  -0.46178  -0.38915
                   2.00000   2.00000   2.00000   2.00000   2.00000   2.00000
                  --------  --------  --------  --------  --------  --------
  0P   1s         0.000000  0.053143  0.008061 -0.000000  0.000000 -0.000000
  0P   2s         0.000001  0.334981  0.050531 -0.000001  0.000002 -0.000000
  0P   3s         0.000002  0.563079  0.063977 -0.000001  0.000002 -0.000001
  0P   4s        -0.000001  0.018276  0.098734 -0.000001  0.000003  0.000000
  0P   1pz       -0.051228  0.004124 -0.077729  0.028477 -0.119065  0.002912
  0P   1px        0.026270  0.000124 -0.002341  0.139012  0.034649  0.048697
  0P   1py       -0.030682 -0.006779  0.127792  0.019867 -0.071785  0.002664
  0P   2pz        0.081894 -0.007056  0.138081 -0.049090  0.205253 -0.005517
  0P   2px       -0.041996 -0.000212  0.004159 -0.239640 -0.059730 -0.092262
  0P   2py        0.049048  0.011596 -0.227014 -0.034248  0.123748 -0.005047
  0P   3pz        0.036944  0.003832  0.080911 -0.042834  0.179099 -0.001781
  0P   3px       -0.018945  0.000115  0.002437 -0.209100 -0.052118 -0.029782
  0P   3py        0.022129 -0.006296 -0.133033 -0.029885  0.107983 -0.001629
  0P   1dz2       0.037894 -0.000747  0.005172  0.005995 -0.007695 -0.003628
  0P   1dxz      -0.004152  0.000111 -0.000767  0.028400  0.000814 -0.047967
  0P   1dyz       0.002609 -0.006049  0.041869 -0.001218  0.019487  0.004554
  0P   1dx2y2    -0.009299 -0.004971  0.034404  0.001647 -0.022278 -0.009883
  0P   1dxy       0.009177 -0.000182  0.001261 -0.011801 -0.007071  0.104137
  1O   1s        -0.000000 -0.104275  0.064467 -0.000001  0.000006  0.000000
  1O   2s        -0.000000 -0.229083  0.125349 -0.000003  0.000011  0.000001
  1O   3s        -0.000001 -0.197975  0.209373 -0.000004  0.000016 -0.000001
  1O   1pz        0.014159  0.156682 -0.244648 -0.077870  0.325591  0.029169
  1O   1px       -0.007261  0.004718 -0.007368 -0.380181 -0.094761  0.487777
  1O   1py        0.008480 -0.257550  0.402107 -0.054346  0.196367  0.026682
  1O   2pz        0.005318  0.078893 -0.124166 -0.045247  0.189187  0.018798
  1O   2px       -0.002727  0.002376 -0.003740 -0.220909 -0.055063  0.314365
  1O   2py        0.003185 -0.129682  0.204077 -0.031576  0.114097  0.017195
  1O   1dz2       0.001996 -0.001203  0.001128 -0.003160  0.013441  0.000648
  1O   1dxz      -0.000515  0.000178 -0.000168 -0.008810 -0.002028  0.006217
  1O   1dyz      -0.001042 -0.009742  0.009150  0.001753 -0.007882 -0.000261
  1O   1dx2y2     0.000923 -0.008005  0.007518 -0.002398  0.007388  0.000729
  1O   1dxy       0.000931 -0.000294  0.000276  0.014812  0.003790 -0.010098
  2Cl  1s        -0.051258 -0.023665 -0.011420  0.013369  0.009930  0.005308
  2Cl  2s         0.320701  0.150960  0.072978 -0.085592 -0.063574 -0.033942
  2Cl  3s        -0.441122 -0.220415 -0.098826  0.119428  0.088704  0.042178
  2Cl  4s        -0.208339 -0.109773 -0.100319  0.120204  0.089284  0.048212
  2Cl  1pz        0.001211  0.007600  0.026960 -0.018822  0.029595 -0.058925
  2Cl  1px        0.018114 -0.060438 -0.076929  0.070376  0.073593  0.102586
  2Cl  1py       -0.009614  0.035598  0.017301 -0.080051 -0.032564 -0.051138
  2Cl  2pz        0.001952  0.012782  0.046506 -0.032726  0.051230 -0.100952
  2Cl  2px        0.030888 -0.100228 -0.133146  0.121866  0.127476  0.179212
  2Cl  2py       -0.016536  0.058744  0.030197 -0.138503 -0.056253 -0.090247
  2Cl  3pz        0.000445  0.013010  0.047203 -0.030600  0.052808 -0.130759
  2Cl  3px        0.024332 -0.110873 -0.129472  0.119010  0.125353  0.206344
  2Cl  3py       -0.012828  0.066813  0.026157 -0.139684 -0.057130 -0.097117
  2Cl  1dz2       0.006673 -0.011196 -0.006598  0.010843  0.010554  0.003944
  2Cl  1dxz      -0.000410 -0.003545 -0.010049  0.005879 -0.008841  0.009749
  2Cl  1dyz       0.000312  0.002173  0.005126 -0.004158  0.006494 -0.007903
  2Cl  1dx2y2    -0.005429  0.009473  0.016033  0.001833 -0.010811 -0.008181
  2Cl  1dxy       0.008240 -0.017450 -0.006878  0.022528  0.012397  0.012460
  3Cl  1s        -0.016704 -0.023665 -0.011420 -0.015284  0.006612 -0.005012
  3Cl  2s         0.104512  0.150960  0.072979  0.097854 -0.042331  0.032049
  3Cl  3s        -0.143755 -0.220415 -0.098828 -0.136538  0.059065 -0.039826
  3Cl  4s        -0.067894 -0.109773 -0.100322 -0.137424  0.059453 -0.045522
  3Cl  1pz        0.001652  0.019067  0.041655  0.027159  0.021424  0.078543
  3Cl  1px       -0.007424  0.051218  0.066153  0.066567 -0.058254  0.070011
  3Cl  1py       -0.002612  0.044619  0.028864  0.097648 -0.022605  0.065277
  3Cl  2pz        0.002664  0.031799  0.071938  0.047166  0.037102  0.135172
  3Cl  2px       -0.012540  0.084948  0.114487  0.115273 -0.100931  0.122713
  3Cl  2py       -0.004569  0.073706  0.050208  0.168947 -0.039045  0.114804
  3Cl  3pz        0.001185  0.034041  0.071944  0.044104  0.038426  0.170525
  3Cl  3px       -0.009316  0.093907  0.111437  0.112393 -0.099684  0.138339
  3Cl  3py       -0.003863  0.083358  0.045624  0.169800 -0.039414  0.126431
  3Cl  1dz2       0.003538 -0.009120 -0.002369 -0.011090  0.010179  0.000655
  3Cl  1dxz      -0.000030  0.007704  0.013338  0.006352  0.003457  0.009879
  3Cl  1dyz       0.000881  0.006841  0.008795  0.008308  0.006442  0.012262
  3Cl  1dx2y2    -0.002714  0.002413  0.010840 -0.008094 -0.009310  0.000796
  3Cl  1dxy      -0.002935  0.018487  0.009838  0.022458 -0.011688  0.011527
  4Cl  1s         0.067963 -0.023665 -0.011418  0.001916 -0.016544 -0.000296
  4Cl  2s        -0.425215  0.150961  0.072968 -0.012266  0.105918  0.001893
  4Cl  3s         0.584880 -0.220415 -0.098813  0.017114 -0.147788 -0.002352
  4Cl  4s         0.276238 -0.109775 -0.100306  0.017225 -0.148751 -0.002690
  4Cl  1pz       -0.026798 -0.069391 -0.071685  0.010431 -0.129495 -0.013350
  4Cl  1px        0.001584  0.007933  0.010683 -0.045316  0.007499 -0.067809
  4Cl  1py       -0.002109 -0.009985 -0.041109 -0.004499  0.007849 -0.008406
  4Cl  2pz       -0.045805 -0.114902 -0.124220  0.018044 -0.224154 -0.023102
  4Cl  2px        0.002774  0.013162  0.018485 -0.078553  0.012984 -0.116036
  4Cl  2py       -0.003562 -0.016852 -0.070894 -0.007776  0.013398 -0.014388
  4Cl  3pz       -0.035915 -0.128192 -0.118888  0.017818 -0.222199 -0.028191
  4Cl  3px        0.002566  0.014521  0.018042 -0.078489  0.012445 -0.151172
  4Cl  3py       -0.003842 -0.016787 -0.072191 -0.008259  0.017574 -0.018728
  4Cl  1dz2       0.015121  0.022092  0.012786 -0.000471  0.029562  0.003401
  4Cl  1dxz      -0.001875 -0.004422 -0.003856  0.016768 -0.003132  0.014221
  4Cl  1dyz       0.002383  0.005374  0.017046  0.001841 -0.002699  0.002506
  4Cl  1dx2y2    -0.000270 -0.000062 -0.001427 -0.001986 -0.000124 -0.002545
  4Cl  1dxy       0.000134 -0.000602 -0.002026  0.001628  0.000465  0.006775
                     30        31        32        33        34        35   
                  -0.38915  -0.35885  -0.34988  -0.34988  -0.32251  -0.32251
                   2.00000   2.00000   2.00000   2.00000   2.00000   2.00000
                  --------  --------  --------  --------  --------  --------
  0P   1s        -0.000000 -0.003365  0.000000 -0.000000 -0.000000  0.000000
  0P   2s        -0.000001 -0.021904  0.000002 -0.000002 -0.000000  0.000001
  0P   3s         0.000000 -0.040423  0.000008 -0.000006 -0.000003  0.000004
  0P   4s        -0.000006 -0.032103 -0.000008  0.000009  0.000008 -0.000008
  0P   1pz        0.041637 -0.002974  0.012042 -0.006540  0.004524  0.000056
  0P   1px       -0.003871 -0.000089  0.007518  0.014164 -0.000116  0.005293
  0P   1py        0.025259  0.004891  0.007463 -0.003719  0.002751  0.000131
  0P   2pz       -0.078887 -0.001630 -0.028673  0.015573 -0.013545 -0.000167
  0P   2px        0.007335 -0.000049 -0.017902 -0.033728  0.000346 -0.015848
  0P   2py       -0.047855  0.002674 -0.017772  0.008855 -0.008234 -0.000392
  0P   3pz       -0.025457  0.081817  0.040800 -0.022157  0.037413  0.000457
  0P   3px        0.002367  0.002463  0.025479  0.048002 -0.000952  0.043776
  0P   3py       -0.015453 -0.134494  0.025303 -0.012610  0.022736  0.001087
  0P   1dz2      -0.096191 -0.008726 -0.039601  0.043706 -0.026495  0.003015
  0P   1dxz       0.006682  0.001296  0.056031  0.046613  0.004434  0.000208
  0P   1dyz       0.046677 -0.070635 -0.022692  0.029329  0.004280  0.002403
  0P   1dx2y2    -0.041971 -0.058031  0.033448 -0.042401 -0.001218 -0.004350
  0P   1dxy      -0.006297 -0.002126  0.037671  0.031929  0.002372  0.026708
  1O   1s         0.000002  0.011039 -0.000000  0.000000 -0.000000 -0.000000
  1O   2s         0.000003  0.024209 -0.000001  0.000001 -0.000000 -0.000001
  1O   3s         0.000011  0.066867 -0.000004  0.000001 -0.000000 -0.000001
  1O   1pz        0.417093  0.087384  0.084990 -0.046155 -0.127541 -0.001570
  1O   1px       -0.038781  0.002627  0.053064  0.099972  0.003257 -0.149235
  1O   1py        0.253026 -0.143621  0.052689 -0.026256 -0.077531 -0.003687
  1O   2pz        0.268809  0.055375  0.046246 -0.025115 -0.085530 -0.001053
  1O   2px       -0.024995  0.001665  0.028874  0.054399  0.002184 -0.100080
  1O   2py        0.163067 -0.091011  0.028671 -0.014287 -0.051993 -0.002472
  1O   1dz2       0.009098 -0.000318  0.000693  0.000088 -0.002732 -0.000156
  1O   1dxz      -0.000317  0.000047  0.001747  0.001993 -0.000173 -0.002510
  1O   1dyz      -0.005491 -0.002577 -0.001374  0.001127  0.002059 -0.000107
  1O   1dx2y2     0.005273 -0.002117  0.001611 -0.001302 -0.002091 -0.000017
  1O   1dxy       0.000912 -0.000078 -0.000097 -0.001039 -0.000216  0.003132
  2Cl  1s        -0.002723 -0.000039  0.000019  0.000203  0.000443 -0.001002
  2Cl  2s         0.017409  0.000419 -0.000076 -0.000818 -0.002996  0.006775
  2Cl  3s        -0.021633 -0.003376 -0.000819 -0.008697  0.006666 -0.015076
  2Cl  4s        -0.024728 -0.009407  0.000408  0.004279  0.003198 -0.007234
  2Cl  1pz       -0.031009  0.088858  0.150502  0.028859  0.118251 -0.095021
  2Cl  1px       -0.082584 -0.028815  0.076490  0.044444 -0.012567  0.112743
  2Cl  1py       -0.011570 -0.121083  0.080196 -0.118000 -0.014241  0.138575
  2Cl  2pz       -0.053026  0.154198  0.260174  0.049301  0.207159 -0.166134
  2Cl  2px       -0.143210 -0.049656  0.132523  0.079674 -0.022070  0.197794
  2Cl  2py       -0.018408 -0.210393  0.138545 -0.205302 -0.024586  0.242147
  2Cl  3pz       -0.069301  0.189377  0.335858  0.067952  0.258753 -0.212024
  2Cl  3px       -0.172573 -0.055464  0.169962  0.093141 -0.031042  0.252707
  2Cl  3py       -0.034369 -0.262770  0.178677 -0.264215 -0.032338  0.303352
  2Cl  1dz2      -0.009180  0.003971  0.004564  0.007695 -0.003005  0.000872
  2Cl  1dxz       0.006377 -0.010658 -0.012619 -0.000923 -0.005074  0.006098
  2Cl  1dyz      -0.002425  0.001810  0.008882  0.003329  0.003113 -0.000677
  2Cl  1dx2y2     0.013178  0.009570 -0.010806  0.003249  0.001145 -0.009629
  2Cl  1dxy      -0.000042  0.011881 -0.003541  0.014339  0.000774  0.000114
  3Cl  1s        -0.003235 -0.000039 -0.000185 -0.000085  0.000646  0.000885
  3Cl  2s         0.020688  0.000419  0.000748  0.000341 -0.004368 -0.005983
  3Cl  3s        -0.025707 -0.003375  0.007937  0.003649  0.009720  0.013312
  3Cl  4s        -0.029388 -0.009410 -0.003904 -0.001802  0.004666  0.006392
  3Cl  1pz       -0.005739  0.094814  0.023149 -0.130297  0.140964  0.090155
  3Cl  1px        0.095321  0.029142 -0.010339  0.120405  0.014529  0.111241
  3Cl  1py        0.008720 -0.116402  0.138384 -0.019945 -0.039292 -0.114701
  3Cl  2pz       -0.009347  0.164466  0.041063 -0.224818  0.246896  0.157668
  3Cl  2px        0.165012  0.050277 -0.015678  0.209199  0.025499  0.195118
  3Cl  2py        0.016911 -0.202322  0.240823 -0.033777 -0.068334 -0.200373
  3Cl  3pz       -0.015621  0.200945  0.047262 -0.292472  0.310285  0.202232
  3Cl  3px        0.200937  0.057107 -0.027789  0.266244  0.036384  0.247531
  3Cl  3py        0.007190 -0.253678  0.308734 -0.044361 -0.086396 -0.250110
  3Cl  1dz2      -0.010256  0.007731 -0.004581 -0.010038 -0.000760  0.001792
  3Cl  1dxz       0.001260  0.010428  0.003008 -0.005581  0.006893  0.006243
  3Cl  1dyz      -0.001209  0.001386  0.003036 -0.010125  0.004127  0.001244
  3Cl  1dx2y2     0.013162  0.010752 -0.011577  0.009699  0.002008  0.007481
  3Cl  1dxy       0.006031 -0.008908  0.011446  0.006540 -0.000640  0.002866
  4Cl  1s         0.005958 -0.000039  0.000166 -0.000118 -0.001089  0.000117
  4Cl  2s        -0.038098  0.000419 -0.000671  0.000476  0.007365 -0.000792
  4Cl  3s         0.047343 -0.003377 -0.007127  0.005054 -0.016384  0.001761
  4Cl  4s         0.054114 -0.009403  0.003515 -0.002492 -0.007874  0.000851
  4Cl  1pz        0.126344  0.048893  0.097766 -0.045965  0.008647  0.008157
  4Cl  1px       -0.021069  0.006677  0.103333  0.154437 -0.008798  0.089438
  4Cl  1py        0.057202 -0.144770 -0.050329  0.054101  0.216346 -0.016125
  4Cl  2pz        0.221311  0.085286  0.171512 -0.081227  0.015795  0.014238
  4Cl  2px       -0.036582  0.011541  0.178360  0.267254 -0.015419  0.156853
  4Cl  2py        0.097915 -0.251235 -0.086314  0.093042  0.378504 -0.028180
  4Cl  3pz        0.250375  0.111748  0.214625 -0.100109  0.024055  0.017079
  4Cl  3px       -0.043751  0.013476  0.231083  0.343779 -0.020479  0.193731
  4Cl  3py        0.127553 -0.308786 -0.116872  0.123920  0.479231 -0.036083
  4Cl  1dz2      -0.015991 -0.009356 -0.014037  0.005805 -0.003130 -0.000392
  4Cl  1dxz       0.004439 -0.000118 -0.009038 -0.016648  0.001338 -0.004226
  4Cl  1dyz      -0.012105  0.015812  0.005052 -0.005958 -0.011274  0.001186
  4Cl  1dx2y2    -0.001860 -0.004709  0.003222  0.000879  0.002788 -0.000358
  4Cl  1dxy       0.001350 -0.002401 -0.002477 -0.002767  0.001951  0.002768
                     36        37        38        39        40        41   
                  -0.31474  -0.08378  -0.01318  -0.01318   0.00598   0.21075
                   2.00000   0.00000   0.00000   0.00000   0.00000   0.00000
                  --------  --------  --------  --------  --------  --------
  0P   1s        -0.000000  0.061685 -0.000000 -0.000000  0.008825  0.040280
  0P   2s        -0.000000  0.414501 -0.000002 -0.000003  0.059827  0.303505
  0P   3s        -0.000001  0.780828  0.000006  0.000001  0.064373  1.832626
  0P   4s         0.000001  0.795784 -0.000048 -0.000034  0.402710 -2.876400
  0P   1pz        0.000000 -0.039350  0.162208  0.103819  0.081975  0.007744
  0P   1px        0.000001 -0.001186  0.119689 -0.190985  0.002468  0.000233
  0P   1py       -0.000000  0.064688  0.100875  0.059661 -0.134730 -0.012733
  0P   2pz       -0.000000  0.081789 -0.319383 -0.204417 -0.151005  0.016619
  0P   2px       -0.000002  0.002465 -0.235665  0.376046 -0.004547  0.000500
  0P   2py        0.000000 -0.134457 -0.198620 -0.117471  0.248175 -0.027310
  0P   3pz        0.000001  0.124120 -0.784732 -0.502254 -0.667586 -0.086351
  0P   3px        0.000005  0.003740 -0.579040  0.923959 -0.020105 -0.002600
  0P   3py        0.000003 -0.204042 -0.488057 -0.288655  1.097339  0.141934
  0P   1dz2       0.000000  0.002991  0.063178  0.071310  0.019162  0.017707
  0P   1dxz       0.000003 -0.000443 -0.072429  0.046778 -0.002845 -0.002624
  0P   1dyz       0.000001  0.024215  0.018690  0.035356  0.155161  0.143403
  0P   1dx2y2    -0.000000  0.019897 -0.031544 -0.054737  0.127480  0.117833
  0P   1dxy       0.000001  0.000730 -0.063281  0.055380  0.004671  0.004321
  1O   1s        -0.000000 -0.041601  0.000004  0.000002 -0.083566  0.038990
  1O   2s         0.000000 -0.108567  0.000003  0.000000 -0.158945  0.086959
  1O   3s        -0.000002 -0.135410  0.000053  0.000038 -0.799308  0.466569
  1O   1pz       -0.000004 -0.104557  0.174082  0.111419 -0.117369 -0.047831
  1O   1px        0.000003 -0.003150  0.128443 -0.204953 -0.003536 -0.001439
  1O   1py       -0.000002  0.171880  0.108243  0.064018  0.192972  0.078611
  1O   2pz       -0.000003 -0.085236  0.196316  0.125650 -0.179990  0.064124
  1O   2px        0.000001 -0.002567  0.144844 -0.231124 -0.005419  0.001930
  1O   2py       -0.000001  0.140115  0.122053  0.072183  0.295885 -0.105395
  1O   1dz2      -0.000000 -0.000131 -0.006748 -0.003349  0.000500 -0.002956
  1O   1dxz       0.000000  0.000019 -0.006149  0.007311 -0.000075  0.000439
  1O   1dyz       0.000000 -0.001062  0.005740  0.004561  0.004054 -0.023940
  1O   1dx2y2    -0.000000 -0.000872 -0.006259 -0.004591  0.003330 -0.019670
  1O   1dxy       0.000000 -0.000032  0.004033 -0.008074  0.000122 -0.000721
  2Cl  1s         0.000000 -0.015307  0.002806 -0.016827 -0.000129  0.022522
  2Cl  2s        -0.000001  0.101584 -0.018723  0.112292  0.001789 -0.160203
  2Cl  3s         0.000003 -0.143083  0.027125 -0.162681 -0.032871  0.425859
  2Cl  4s        -0.000004 -0.264282  0.071363 -0.428014  0.162349  0.184213
  2Cl  1pz       -0.134901 -0.018154  0.055176  0.010722  0.044934  0.009780
  2Cl  1px       -0.066011  0.116577  0.013144  0.088356 -0.030780 -0.014663
  2Cl  1py       -0.083277 -0.063001  0.045696 -0.063150 -0.048385 -0.004223
  2Cl  2pz       -0.236727 -0.030518  0.098762  0.018934  0.079504  0.019832
  2Cl  2px       -0.115837  0.203213  0.024678  0.151123 -0.050486 -0.025385
  2Cl  2py       -0.146136 -0.111648  0.080770 -0.107061 -0.088760 -0.012013
  2Cl  3pz       -0.297938 -0.075048  0.199352  0.032916  0.177164  0.049133
  2Cl  3px       -0.145789  0.426143  0.027610  0.435632 -0.183080 -0.249068
  2Cl  3py       -0.183927 -0.216232  0.178387 -0.311415 -0.141855  0.117849
  2Cl  1dz2       0.001788 -0.028676  0.003847 -0.035176 -0.003407 -0.059850
  2Cl  1dxz       0.003620 -0.014995  0.056194  0.016723  0.062133  0.011988
  2Cl  1dyz      -0.003504  0.006341 -0.045413 -0.003762 -0.015142  0.006426
  2Cl  1dx2y2     0.004081  0.030248  0.053826  0.019763 -0.067514  0.018354
  2Cl  1dxy      -0.000104 -0.041773  0.024726 -0.060806 -0.035114 -0.108350
  3Cl  1s        -0.000000 -0.015307 -0.015976  0.005984 -0.000130  0.022522
  3Cl  2s         0.000001  0.101584  0.106610 -0.039933  0.001792 -0.160202
  3Cl  3s        -0.000004 -0.143083 -0.154448  0.057852 -0.032877  0.425856
  3Cl  4s         0.000007 -0.264281 -0.406356  0.152202  0.162350  0.184215
  3Cl  1pz        0.117419 -0.040292  0.003524  0.050903  0.051006  0.012607
  3Cl  1px       -0.104269 -0.098987 -0.082052 -0.015645  0.028359  0.012866
  3Cl  1py        0.069519 -0.080418 -0.067042  0.056034 -0.043608 -0.001997
  3Cl  2pz        0.206049 -0.069101  0.007315  0.090696  0.089497  0.024742
  3Cl  2px       -0.182974 -0.172487 -0.141262 -0.030067  0.046835  0.022434
  3Cl  2py        0.121993 -0.142003 -0.113344  0.097779 -0.080900 -0.008144
  3Cl  3pz        0.259330 -0.156021 -0.013873  0.192984  0.212775  0.096490
  3Cl  3px       -0.230285 -0.362324 -0.389436 -0.020910  0.163691  0.212060
  3Cl  3py        0.153540 -0.279936 -0.337814  0.237728 -0.113840  0.155102
  3Cl  1dz2      -0.000678 -0.021126 -0.039946 -0.004771 -0.026630 -0.060425
  3Cl  1dxz       0.002576  0.026262 -0.008074 -0.032802 -0.067476  0.007015
  3Cl  1dyz       0.003771  0.018886 -0.002966 -0.055307 -0.020354  0.028248
  3Cl  1dx2y2    -0.004350  0.011546  0.014024  0.064961 -0.062503 -0.016063
  3Cl  1dxy      -0.002235  0.046058  0.063794 -0.006988  0.017592  0.105298
  4Cl  1s        -0.000000 -0.015307  0.013170  0.010844 -0.000128  0.022521
  4Cl  2s         0.000001  0.101582 -0.087888 -0.072362  0.001782 -0.160198
  4Cl  3s        -0.000002 -0.143080  0.127326  0.104835 -0.032861  0.425840
  4Cl  4s         0.000001 -0.264280  0.334990  0.275809  0.162372  0.184234
  4Cl  1pz        0.017489  0.130482 -0.079755 -0.075101  0.004142 -0.009200
  4Cl  1px        0.170293 -0.015420  0.053375 -0.047927  0.005435  0.002194
  4Cl  1py        0.013765  0.025000  0.008263 -0.000621 -0.072530 -0.015459
  4Cl  2pz        0.030689  0.228537 -0.135591 -0.128520  0.012374 -0.013135
  4Cl  2px        0.298833 -0.026842  0.094811 -0.086314  0.009111  0.003897
  4Cl  2py        0.024156  0.041727  0.014237 -0.001561 -0.128496 -0.031526
  4Cl  3pz        0.038625  0.468622 -0.399659 -0.362985 -0.061991 -0.268837
  4Cl  3px        0.376103 -0.056665  0.203808 -0.162576  0.029268  0.033297
  4Cl  3py        0.030400  0.105656  0.026282 -0.005057 -0.283429 -0.070409
  4Cl  1dz2      -0.001111  0.055642 -0.045409 -0.058748  0.013993  0.122603
  4Cl  1dxz      -0.006199 -0.012134  0.067106 -0.063576  0.007726 -0.019350
  4Cl  1dyz      -0.000269  0.022074  0.012131  0.000375 -0.094382 -0.015819
  4Cl  1dx2y2     0.000269 -0.002930 -0.012058  0.002262  0.023310  0.013205
  4Cl  1dxy       0.002340 -0.002860 -0.002601 -0.000268  0.013612  0.003622
                     42        43        44        45        46        47   
                   0.30999   0.30999   0.36323   0.36323   0.46082   0.46083
                   0.00000   0.00000   0.00000   0.00000   0.00000   0.00000
                  --------  --------  --------  --------  --------  --------
  0P   1s        -0.000000  0.000000 -0.000000 -0.000000 -0.000002 -0.000001
  0P   2s        -0.000002  0.000001 -0.000001 -0.000002 -0.000013 -0.000010
  0P   3s        -0.000009  0.000005 -0.000003 -0.000012 -0.000090 -0.000045
  0P   4s         0.000012 -0.000016  0.000008  0.000041  0.000244  0.000093
  0P   1pz        0.069569 -0.142192  0.027002  0.051590 -0.017529 -0.001844
  0P   1px        0.165623  0.082995  0.060071 -0.032176  0.002341 -0.020480
  0P   1py        0.045355 -0.084979  0.017528  0.030798 -0.010596 -0.001476
  0P   2pz       -0.256773  0.524815 -0.121019 -0.231214  0.061096  0.006426
  0P   2px       -0.611300 -0.306327 -0.269225  0.144205 -0.008158  0.071382
  0P   2py       -0.167402  0.313648 -0.078556 -0.138024  0.036932  0.005143
  0P   3pz        0.243262 -0.497191  0.160082  0.305836  0.312537  0.032703
  0P   3px        0.579128  0.290204  0.356118 -0.190743 -0.041809  0.365426
  0P   3py        0.158597 -0.297149  0.103911  0.182572  0.189453  0.026680
  0P   1dz2      -0.024520  0.320397 -0.219194 -0.300842 -0.222343  0.002737
  0P   1dxz       0.467165  0.045113 -0.519700  0.180136  0.035009 -0.005873
  0P   1dyz      -0.019248  0.247520  0.146637  0.384464  0.040734  0.022360
  0P   1dx2y2     0.028004 -0.348568 -0.170785 -0.409014 -0.015324 -0.036042
  0P   1dxy       0.259767  0.005037  0.372949 -0.264260 -0.002885  0.225220
  1O   1s         0.000000 -0.000000  0.000000  0.000000 -0.000004 -0.000001
  1O   2s         0.000001 -0.000004  0.000001  0.000004 -0.000012 -0.000002
  1O   3s        -0.000005  0.000015 -0.000003 -0.000024 -0.000079 -0.000049
  1O   1pz        0.002339 -0.004780 -0.103486 -0.197703 -0.028846 -0.003010
  1O   1px        0.005568  0.002792 -0.230211  0.123305  0.003861 -0.033740
  1O   1py        0.001523 -0.002855 -0.067173 -0.118014 -0.017513 -0.002476
  1O   2pz       -0.025718  0.052563 -0.035423 -0.067683 -0.087941 -0.009219
  1O   2px       -0.061222 -0.030678 -0.078803  0.042210  0.011758 -0.102787
  1O   2py       -0.016764  0.031405 -0.022992 -0.040389 -0.053239 -0.007471
  1O   1dz2      -0.004817  0.015131  0.007724  0.017799  0.004098  0.002198
  1O   1dxz       0.003095 -0.001952  0.004009 -0.004113  0.001230  0.012598
  1O   1dyz       0.002108 -0.000517 -0.003901 -0.005530 -0.008734  0.000558
  1O   1dx2y2    -0.002316 -0.001876  0.004354  0.003652  0.009961 -0.000504
  1O   1dxy       0.014831  0.005103 -0.018474  0.008577  0.002444 -0.005976
[...]
   4  :   -0.001720288   -0.001230727   -0.000798695
   5  :   -0.000270582    0.000597566    0.002163136

  |G| =    0.012681504


The revPBE functional is recognized
Active option DFTDOPT                   ...         5   



------------------- 
Dispersion Gradient 
------------------- 
   1  :   -0.000001653    0.000010071   -0.000006093
   2  :   -0.000028233    0.001550278   -0.000943237
   3  :    0.002019489   -0.000928735   -0.000414644
   4  :   -0.001719291   -0.001230062   -0.000798471
   5  :   -0.000270264    0.000597553    0.002162988

  |G| =    0.012681064


The revPBE functional is recognized
Active option DFTDOPT                   ...         5   



------------------- 
Dispersion Gradient 
------------------- 
   1  :   -0.000000137    0.000010075   -0.000006264
   2  :   -0.000028384    0.001550166   -0.000943821
   3  :    0.002018788   -0.000928345   -0.000412371
   4  :   -0.001719771   -0.001230392   -0.000799357
   5  :   -0.000270488    0.000597600    0.002162350

  |G| =    0.012678309


The revPBE functional is recognized
Active option DFTDOPT                   ...         5   



------------------- 
Dispersion Gradient 
------------------- 
   1  :   -0.000000212    0.000010090   -0.000005937
   2  :   -0.000028508    0.001550369   -0.000942640
   3  :    0.002018903   -0.000928473   -0.000416834
   4  :   -0.001719805   -0.001230396   -0.000797809
   5  :   -0.000270353    0.000597516    0.002163769

  |G| =    0.012681614


Dispersion correction Hessian from Numerical Differentiation: 
                  0          1          2          3          4          5    
      0       0.000296   0.000000   0.000000   0.000000   0.000000   0.000000
      1       0.000000   0.000000   0.000000   0.000000   0.000000   0.000000
      2       0.000000   0.000000   0.000000   0.000000   0.000000   0.000000
      3       0.000000   0.000000   0.000000   0.000000   0.000000   0.000000
      4       0.000000   0.000000   0.000000   0.000000   0.000000   0.000000
      5       0.000000   0.000000   0.000000   0.000000   0.000000   0.000000
      6       0.000000   0.000000   0.000000   0.000000   0.000000   0.000000
      7       0.000000   0.000000   0.000000   0.000000   0.000000   0.000000
      8       0.000007  -0.000001  -0.000033   0.000012  -0.000020  -0.000118
      9       0.000000   0.000000   0.000000   0.000000   0.000000   0.000000
     10       0.000000   0.000000   0.000000   0.000000   0.000000   0.000000
     11       0.000000   0.000000   0.000000   0.000000   0.000000   0.000000
     12       0.000000   0.000000   0.000000   0.000000   0.000000   0.000000
     13       0.000000   0.000000   0.000000   0.000000   0.000000   0.000000
     14       0.000000   0.000000   0.000000   0.000000   0.000000   0.000000
                  6          7          8          9         10         11    
      0       0.000000   0.000000   0.000007   0.000000   0.000000   0.000000
      1       0.000000   0.000000  -0.000001   0.000000   0.000000   0.000000
      2       0.000000   0.000000  -0.000033   0.000000   0.000000   0.000000
      3       0.000000   0.000000   0.000012   0.000000   0.000000   0.000000
      4       0.000000   0.000000  -0.000020   0.000000   0.000000   0.000000
      5       0.000000   0.000000  -0.000118   0.000000   0.000000   0.000000
      6       0.000000   0.000000  -0.000011   0.000000   0.000000   0.000000
      7       0.000000   0.000000   0.000013   0.000000   0.000000   0.000000
      8      -0.000011   0.000013   0.000446   0.000000   0.000000   0.000000
      9       0.000000   0.000000   0.000000   0.000000   0.000000   0.000000
     10       0.000000   0.000000   0.000000   0.000000   0.000000   0.000000
     11       0.000000   0.000000   0.000000   0.000000   0.000000   0.000000
     12       0.000000   0.000000   0.000000   0.000000   0.000000   0.000000
     13       0.000000   0.000000   0.000000   0.000000   0.000000   0.000000
     14       0.000000   0.000000   0.000000   0.000000   0.000000   0.000000
                  12         13         14    
      0       0.000000   0.000000   0.000000
      1       0.000000   0.000000   0.000000
      2       0.000000   0.000000   0.000000
      3       0.000000   0.000000   0.000000
      4       0.000000   0.000000   0.000000
      5       0.000000   0.000000   0.000000
      6       0.000000   0.000000   0.000000
      7       0.000000   0.000000   0.000000
      8       0.000000   0.000000   0.000000
      9       0.000000   0.000000   0.000000
     10       0.000000   0.000000   0.000000
     11       0.000000   0.000000   0.000000
     12       0.000000   0.000000   0.000000
     13       0.000000   0.000000   0.000000
     14       0.000000   0.000000   0.000000

done   (      0.3 sec)
gCP correction in the Hessian                    ...  
-----------------
gCP hessian 
from Numerical Differentiation: 
-----------------
                  0          1          2          3          4          5    
      0      -0.000207  -0.000027   0.000016   0.001002   0.000041  -0.000025
      1      -0.000027   0.001235  -0.000878   0.000041  -0.001224   0.001355
      2       0.000016  -0.000878   0.000327  -0.000025   0.001355   0.000178
      3       0.001002   0.000041  -0.000025  -0.001035  -0.000049   0.000030
      4       0.000041  -0.001224   0.001355  -0.000049   0.001618  -0.001615
      5      -0.000025   0.001355   0.000178   0.000030  -0.001615  -0.000053
      6      -0.000740   0.000716   0.000109  -0.000056   0.000208  -0.000053
      7       0.000716  -0.000071  -0.000069   0.000208  -0.000185   0.000072
      8       0.000109  -0.000069   0.000374  -0.000053   0.000072   0.000079
      9      -0.000420  -0.000748  -0.000272  -0.000006  -0.000190   0.000020
     10      -0.000748  -0.000309  -0.000253  -0.000190  -0.000249   0.000037
     11      -0.000272  -0.000253   0.000293   0.000020   0.000037   0.000093
     12       0.000366   0.000017   0.000172   0.000095  -0.000011   0.000028
     13       0.000017   0.000369  -0.000155  -0.000011   0.000040   0.000151
     14       0.000172  -0.000155  -0.001172   0.000028   0.000151  -0.000297
                  6          7          8          9         10         11    
      0      -0.000740   0.000716   0.000109  -0.000420  -0.000748  -0.000272
      1       0.000716  -0.000071  -0.000069  -0.000748  -0.000309  -0.000253
      2       0.000109  -0.000069   0.000374  -0.000272  -0.000253   0.000293
      3      -0.000056   0.000208  -0.000053  -0.000006  -0.000190   0.000020
      4       0.000208  -0.000185   0.000072  -0.000190  -0.000249   0.000037
      5      -0.000053   0.000072   0.000079   0.000020   0.000037   0.000093
      6       0.001148  -0.000983  -0.000167  -0.000285  -0.000028  -0.000036
      7      -0.000983   0.000186   0.000098  -0.000028   0.000063  -0.000003
      8      -0.000167   0.000098  -0.000413  -0.000036  -0.000003   0.000061
      9      -0.000285  -0.000028  -0.000036   0.000699   0.001032   0.000396
     10      -0.000028   0.000063  -0.000003   0.001032   0.000514   0.000354
     11      -0.000036  -0.000003   0.000061   0.000396   0.000354  -0.000293
     12      -0.000066   0.000088   0.000148   0.000013  -0.000066  -0.000108
     13       0.000088   0.000007  -0.000099  -0.000066  -0.000019  -0.000136
     14       0.000148  -0.000099  -0.000101  -0.000108  -0.000136  -0.000155
                  12         13         14    
      0       0.000366   0.000017   0.000172
      1       0.000017   0.000369  -0.000155
      2       0.000172  -0.000155  -0.001172
      3       0.000095  -0.000011   0.000028
      4      -0.000011   0.000040   0.000151
      5       0.000028   0.000151  -0.000297
      6      -0.000066   0.000088   0.000148
      7       0.000088   0.000007  -0.000099
      8       0.000148  -0.000099  -0.000101
      9       0.000013  -0.000066  -0.000108
     10      -0.000066  -0.000019  -0.000136
     11      -0.000108  -0.000136  -0.000155
     12      -0.000407  -0.000027  -0.000241
     13      -0.000027  -0.000397   0.000239
     14      -0.000241   0.000239   0.001725

done   (      0.1 sec)
Dipol derivatives                                ... done   (      0.2 sec)

-------
TIMINGS
-------

Total SCF Hessian time: 0 days 0 hours 0 min 13 sec 
                   F(y)            G[Q(x)]           CPSCF         Total
Table01         0.4  0.03         0.6  0.04         5.5  0.42        13.1 
Table01a        0.4  0.03,        0.6, 0.04,        5.5  0.42        13.1 
Table01b        0.4   2.8,        0.6,  4.3,        5.5  41.8        13.1 

Writing the Hessian file to the disk             ... done


Maximum memory used throughout the entire calculation: 132.8 MB

-----------------------
VIBRATIONAL FREQUENCIES
-----------------------

Scaling factor for frequencies =  1.000000000  (already applied!)

   0:         0.00 cm**-1
   1:         0.00 cm**-1
   2:         0.00 cm**-1
   3:         0.00 cm**-1
   4:         0.00 cm**-1
   5:         0.00 cm**-1
   6:       170.46 cm**-1
   7:       170.70 cm**-1
   8:       245.71 cm**-1
   9:       303.27 cm**-1
  10:       304.00 cm**-1
  11:       442.57 cm**-1
  12:       550.30 cm**-1
  13:       550.45 cm**-1
  14:      1256.81 cm**-1


------------
NORMAL MODES
------------

These modes are the Cartesian displacements weighted by the diagonal matrix
M(i,i)=1/sqrt(m[i]) where m[i] is the mass of the displaced atom
Thus, these vectors are normalized but *not* orthogonal

                  0          1          2          3          4          5    
      0       0.000000   0.000000   0.000000   0.000000   0.000000   0.000000
      1       0.000000   0.000000   0.000000   0.000000   0.000000   0.000000
      2       0.000000   0.000000   0.000000   0.000000   0.000000   0.000000
      3       0.000000   0.000000   0.000000   0.000000   0.000000   0.000000
      4       0.000000   0.000000   0.000000   0.000000   0.000000   0.000000
      5       0.000000   0.000000   0.000000   0.000000   0.000000   0.000000
      6       0.000000   0.000000   0.000000   0.000000   0.000000   0.000000
      7       0.000000   0.000000   0.000000   0.000000   0.000000   0.000000
      8       0.000000   0.000000   0.000000   0.000000   0.000000   0.000000
      9       0.000000   0.000000   0.000000   0.000000   0.000000   0.000000
     10       0.000000   0.000000   0.000000   0.000000   0.000000   0.000000
     11       0.000000   0.000000   0.000000   0.000000   0.000000   0.000000
     12       0.000000   0.000000   0.000000   0.000000   0.000000   0.000000
     13       0.000000   0.000000   0.000000   0.000000   0.000000   0.000000
     14       0.000000   0.000000   0.000000   0.000000   0.000000   0.000000
                  6          7          8          9         10         11    
      0      -0.098079  -0.164322   0.007275  -0.081212   0.146972  -0.006414
      1      -0.086204   0.048250  -0.382937  -0.077287  -0.039923   0.386548
      2      -0.138760   0.085914   0.231640  -0.126082  -0.070217  -0.234365
      3      -0.248085  -0.411550   0.008748   0.404216  -0.736481  -0.008674
      4      -0.218458   0.122380  -0.394724   0.388833   0.200433   0.458059
      5      -0.351353   0.215145   0.243525   0.625006   0.351423  -0.277777
      6       0.176556  -0.318897   0.360775   0.021275   0.273784   0.328983
      7       0.254527  -0.181645   0.097604   0.095731  -0.281650  -0.247546
      8       0.479574   0.162179  -0.236108   0.100414   0.057949  -0.008160
      9      -0.367005   0.228811  -0.316804  -0.237770   0.017388  -0.277444
     10       0.178298  -0.179892   0.042113  -0.279678   0.182836  -0.296865
     11      -0.121451  -0.471637  -0.304482   0.034113   0.085047  -0.070553
     12       0.388091   0.419370  -0.054275   0.105034  -0.087223  -0.042021
     13      -0.258928   0.264155   0.372970   0.076000   0.043243  -0.000012
     14      -0.078338   0.137309   0.228318  -0.306422  -0.240238   0.408823
                  12         13         14    
      0      -0.391836  -0.741202   0.007659
      1      -0.389931   0.193694  -0.415672
      2      -0.630556   0.340843   0.252908
      3       0.108569   0.206273  -0.013735
      4       0.108993  -0.053960   0.745793
      5       0.174101  -0.094932  -0.453951
      6       0.049156   0.344202  -0.010903
      7       0.003774  -0.192325   0.011064
      8       0.030365  -0.055046  -0.001466
      9       0.256003   0.147847   0.009077
     10       0.228104   0.085281   0.012686
     11       0.119591   0.021547   0.000580
     12      -0.011819   0.062426   0.001334
     13       0.059604  -0.037829   0.002850
     14       0.322371  -0.221443  -0.015214


-----------
IR SPECTRUM
-----------

 Mode    freq (cm**-1)   T**2         TX         TY         TZ
-------------------------------------------------------------------
   6:       170.46    0.001550  ( -0.022916  -0.015703  -0.027897)
   7:       170.70    0.002873  ( -0.046213   0.010294   0.025130)
   8:       245.71    1.872136  (  0.021383  -1.175881   0.699273)
   9:       303.27    6.406146  ( -1.220291  -1.169647  -1.883869)
  10:       304.00    6.348564  (  2.208036  -0.602464  -1.053650)
  11:       442.57   16.894273  ( -0.052144   3.517437  -2.125838)
  12:       550.30  217.667156  ( -6.893831  -6.866465 -11.090262)
  13:       550.45  217.742210  (-13.044454   3.408953   5.996956)
  14:      1256.81  117.778597  (  0.170435  -9.270147   5.640384)

The first frequency considered to be a vibration is 6
The total number of vibrations considered is 9


--------------------------
THERMOCHEMISTRY AT 298.15K
--------------------------

Temperature         ... 298.15 K
Pressure            ... 1.00 atm
Total Mass          ... 153.33 AMU

Throughout the following assumptions are being made:
  (1) The electronic state is orbitally nondegenerate
  (2) There are no thermally accessible electronically excited states
  (3) Hindered rotations indicated by low frequency modes are not
      treated as such but are treated as vibrations and this may
      cause some error
  (4) All equations used are the standard statistical mechanics
      equations for an ideal gas
  (5) All vibrations are strictly harmonic

freq.     170.46  E(vib)   ...       0.38 
freq.     170.70  E(vib)   ...       0.38 
freq.     245.71  E(vib)   ...       0.31 
freq.     303.27  E(vib)   ...       0.26 
freq.     304.00  E(vib)   ...       0.26 
freq.     442.57  E(vib)   ...       0.17 
freq.     550.30  E(vib)   ...       0.12 
freq.     550.45  E(vib)   ...       0.12 
freq.    1256.81  E(vib)   ...       0.01 

------------
INNER ENERGY
------------

The inner energy is: U= E(el) + E(ZPE) + E(vib) + E(rot) + E(trans)
    E(el)   - is the total energy from the electronic structure calculation
              = E(kin-el) + E(nuc-el) + E(el-el) + E(nuc-nuc)
    E(ZPE)  - the the zero temperature vibrational energy from the frequency calculation
    E(vib)  - the the finite temperature correction to E(ZPE) due to population
              of excited vibrational states
    E(rot)  - is the rotational thermal energy
    E(trans)- is the translational thermal energy

Summary of contributions to the inner energy U:
Electronic energy                ...  -1796.32263648 Eh
Zero point energy                ...      0.00909957 Eh       5.71 kcal/mol
Thermal vibrational correction   ...      0.00320294 Eh       2.01 kcal/mol
Thermal rotational correction    ...      0.00141627 Eh       0.89 kcal/mol
Thermal translational correction ...      0.00141627 Eh       0.89 kcal/mol
-----------------------------------------------------------------------
Total thermal energy                  -1796.30750142 Eh


Summary of corrections to the electronic energy:
(perhaps to be used in another calculation)
Total thermal correction                  0.00603548 Eh       3.79 kcal/mol
Non-thermal (ZPE) correction              0.00909957 Eh       5.71 kcal/mol
-----------------------------------------------------------------------
Total correction                          0.01513505 Eh       9.50 kcal/mol


--------
ENTHALPY
--------

The enthalpy is H = U + kB*T
                kB is Boltzmann's constant
Total free energy                 ...  -1796.30750142 Eh 
Thermal Enthalpy correction       ...      0.00094421 Eh       0.59 kcal/mol
-----------------------------------------------------------------------
Total Enthalpy                    ...  -1796.30655721 Eh


Note: Only C1 symmetry has been detected, increase convergence thresholds 
      if your molecule has a higher symmetry. Symmetry factor of 1.0 is   
      used for the rotational entropy correction. 
 

Note: Rotational entropy computed according to Herzberg 
Infrared and Raman Spectra, Chapter V,1, Van Nostrand Reinhold, 1945 
Point Group:  C1, Symmetry Number:   1  
Rotational constants in cm-1:     0.062538     0.062529     0.045968 

Vibrational entropy computed according to the QRRHO of S. Grimme
Chem.Eur.J. 2012 18 9955


-------
ENTROPY
-------

The entropy contributions are T*S = T*(S(el)+S(vib)+S(rot)+S(trans))
     S(el)   - electronic entropy
     S(vib)  - vibrational entropy
     S(rot)  - rotational entropy
     S(trans)- translational entropy
The entropies will be listed as mutliplied by the temperature to get
units of energy

Electronic entropy                ...      0.00000000 Eh      0.00 kcal/mol
Vibrational entropy               ...      0.00539066 Eh      3.38 kcal/mol
Rotational entropy                ...      0.01358207 Eh      8.52 kcal/mol
Translational entropy             ...      0.01947661 Eh     12.22 kcal/mol
-----------------------------------------------------------------------
Final entropy term                ...      0.03844935 Eh     24.13 kcal/mol

In case the symmetry of your molecule has not been determined correctly
or in case you have a reason to use a different symmetry number we print 
out the resulting rotational entropy values for sn=1,12 :
 --------------------------------------------------------
|  sn= 1 | S(rot)=       0.01358207 Eh      8.52 kcal/mol|
|  sn= 2 | S(rot)=       0.01292762 Eh      8.11 kcal/mol|
|  sn= 3 | S(rot)=       0.01254479 Eh      7.87 kcal/mol|
|  sn= 4 | S(rot)=       0.01227316 Eh      7.70 kcal/mol|
|  sn= 5 | S(rot)=       0.01206247 Eh      7.57 kcal/mol|
|  sn= 6 | S(rot)=       0.01189033 Eh      7.46 kcal/mol|
|  sn= 7 | S(rot)=       0.01174478 Eh      7.37 kcal/mol|
|  sn= 8 | S(rot)=       0.01161871 Eh      7.29 kcal/mol|
|  sn= 9 | S(rot)=       0.01150750 Eh      7.22 kcal/mol|
|  sn=10 | S(rot)=       0.01140802 Eh      7.16 kcal/mol|
|  sn=11 | S(rot)=       0.01131803 Eh      7.10 kcal/mol|
|  sn=12 | S(rot)=       0.01123587 Eh      7.05 kcal/mol|
 --------------------------------------------------------


-------------------
GIBBS FREE ENERGY
-------------------

The Gibbs free energy is G = H - T*S

Total enthalpy                    ...  -1796.30655721 Eh 
Total entropy correction          ...     -0.03844935 Eh    -24.13 kcal/mol
-----------------------------------------------------------------------
Final Gibbs free energy         ...  -1796.34500656 Eh

For completeness - the Gibbs free energy minus the electronic energy
G-E(el)                           ...     -0.02237008 Eh    -14.04 kcal/mol


Timings for individual modules:

Sum of individual times         ...       54.317 sec (=   0.905 min)
GTO integral calculation        ...        3.795 sec (=   0.063 min)   7.0 %
SCF iterations                  ...       29.810 sec (=   0.497 min)  54.9 %
SCF Gradient evaluation         ...        7.018 sec (=   0.117 min)  12.9 %
Geometry relaxation             ...        0.113 sec (=   0.002 min)   0.2 %
Analytical frequency calculation...       13.580 sec (=   0.226 min)  25.0 %
                             ****ORCA TERMINATED NORMALLY****
TOTAL RUN TIME: 0 days 0 hours 0 minutes 55 seconds 354 msec
