
                                 *****************
                                 * O   R   C   A *
                                 *****************

           --- An Ab Initio, DFT and Semiempirical electronic structure package ---

                  #######################################################
                  #                        -***-                        #
                  #          Department of theory and spectroscopy      #
                  #               Directorship: Frank Neese             #
                  #        Max Planck Institute fuer Kohlenforschung    #
                  #                Kaiser Wilhelm Platz 1               #
                  #                 D-45470 Muelheim/Ruhr               #
                  #                      Germany                        #
                  #                                                     #
                  #                  All rights reserved                #
                  #                        -***-                        #
                  #######################################################


                         Program Version 4.1.1  - RELEASE  -


 With contributions from (in alphabetic order):
   Daniel Aravena         : Magnetic Properties
   Michael Atanasov       : Ab Initio Ligand Field Theory
   Alexander A. Auer      : GIAO ZORA
   Ute Becker             : Parallelization
   Giovanni Bistoni       : ED, Open-shell LED
   Martin Brehm           : Molecular dynamics
   Dmytro Bykov           : SCF Hessian
   Vijay G. Chilkuri      : MRCI spin determinant printing
   Dipayan Datta          : RHF DLPNO-CCSD density
   Achintya Kumar Dutta   : EOM-CC, STEOM-CC
   Dmitry Ganyushin       : Spin-Orbit,Spin-Spin,Magnetic field MRCI
   Miquel Garcia          : C-PCM Hessian
   Yang Guo               : DLPNO-NEVPT2, CIM, IAO-localization
   Andreas Hansen         : Spin unrestricted coupled pair/coupled cluster methods
   Benjamin Helmich-Paris : CASSCF linear response (MC-RPA)
   Lee Huntington         : MR-EOM, pCC
   Robert Izsak           : Overlap fitted RIJCOSX, COSX-SCS-MP3, EOM
   Christian Kollmar      : KDIIS, OOCD, Brueckner-CCSD(T), CCSD density
   Simone Kossmann        : Meta GGA functionals, TD-DFT gradient, OOMP2, MP2 Hessian
   Martin Krupicka        : AUTO-CI
   Lucas Lang             : DCDCAS
   Dagmar Lenk            : GEPOL surface, SMD
   Dimitrios Liakos       : Extrapolation schemes; parallel MDCI
   Dimitrios Manganas     : ROCIS; embedding schemes
   Dimitrios Pantazis     : SARC Basis sets
   Taras Petrenko         : DFT Hessian,TD-DFT gradient, ASA, ECA, R-Raman, ABS, FL, XAS/XES, NRVS
   Peter Pinski           : DLPNO-MP2, DLPNO-MP2 Gradient
   Christoph Reimann      : Effective Core Potentials
   Marius Retegan         : Local ZFS, SOC
   Christoph Riplinger    : Optimizer, TS searches, QM/MM, DLPNO-CCSD(T), (RO)-DLPNO pert. Triples
   Tobias Risthaus        : Range-separated hybrids, TD-DFT gradient, RPA, STAB
   Michael Roemelt        : Restricted open shell CIS
   Masaaki Saitow         : Open-shell DLPNO
   Barbara Sandhoefer     : DKH picture change effects
   Avijit Sen             : IP-ROCIS
   Kantharuban Sivalingam : CASSCF convergence, NEVPT2, FIC-MRCI
   Bernardo de Souza      : ESD, SOC TD-DFT
   Georgi Stoychev        : AutoAux, RI-MP2 NMR
   Willem Van den Heuvel  : Paramagnetic NMR
   Boris Wezisla          : Elementary symmetry handling
   Frank Wennmohs         : Technical directorship


 We gratefully acknowledge several colleagues who have allowed us to
 interface, adapt or use parts of their codes:
   Stefan Grimme, W. Hujo, H. Kruse,             : VdW corrections, initial TS optimization,
                  C. Bannwarth                     DFT functionals, gCP, sTDA/sTD-DF
   Ed Valeev                                     : LibInt (2-el integral package), F12 methods
   Garnet Chan, S. Sharma, J. Yang, R. Olivares  : DMRG
   Ulf Ekstrom                                   : XCFun DFT Library
   Mihaly Kallay                                 : mrcc  (arbitrary order and MRCC methods)
   Andreas Klamt, Michael Diedenhofen            : otool_cosmo (COSMO solvation model)
   Jiri Pittner, Ondrej Demel                    : Mk-CCSD
   Frank Weinhold                                : gennbo (NPA and NBO analysis)
   Christopher J. Cramer and Donald G. Truhlar   : smd solvation model
   Lars Goerigk                                  : TD-DFT with DH, B97 family of functionals
   V. Asgeirsson, H. Jonsson                     : NEB implementation
   FAccTs GmbH                                   : IRC, NEB, NEB-TS, Multilevel


 Your calculation uses the libint2 library for the computation of 2-el integrals
 For citations please refer to: http://libint.valeyev.net

 This ORCA versions uses:
   CBLAS   interface :  Fast vector & matrix operations
   LAPACKE interface :  Fast linear algebra routines
   SCALAPACK package :  Parallel linear algebra routines


----- Orbital basis set information -----
Your calculation utilizes the basis: 6-311G**
   H, Li - Ne  : R. Krishnan, J. S. Binkley, R. Seeger and J. A. Pople, J. Chem. Phys. 72, 650 (1980).
   Na - Ar     : A. D. McLean and G. S. Chandler J. Chem. Phys. 72, 5639, (1980).
   K  - Ca     : J.-P. Blaudeau, M. P. McGrath, L. A. Curtiss and L. Radom, J. Chem. Phys. 107, 5016 (1997).
   Ga - Kr     : L. A. Curtiss, M. P. McGrath, J.-P. Blandeau, N. E. Davis, R. C. Binning and L. Radom, J. Chem. Phys. 103, 6104 (1995).
   Pol./Diff.
   H, Li - Cl  : T. Clark, J. Chandrasekhar and P. v. R. Schleyer, J. Comp. Chem. 4, 294 (1983).
   H - Ne      : M. J. Frisch, J. A. Pople and J. S. Binkley, J. Chem. Phys. 80, 3265 (1984).

================================================================================
                                        WARNINGS
                       Please study these warnings very carefully!
================================================================================


WARNING: Geometry Optimization
  ===> : Switching off AutoStart
         For restart on a previous wavefunction, please use MOREAD

WARNING: Post HF methods need fully converged wavefunctions
  ===> : Setting SCFConvForced true
         You can overwrite this default with %scf ConvForced false 


INFO   : the flag for use of LIBINT has been found!

================================================================================
                                       INPUT FILE
================================================================================
NAME = reactants.inp
|  1> ! UHF MP2 6-311G** Opt Freq NoFrozenCore TightOpt TightSCF
|  2> 
|  3> *xyz 0 2
|  4> C        0.000000000      0.000000000     -3.007305786
|  5> H       -0.513643152      0.889656037     -3.371149786
|  6> H        1.027286305      0.000000000     -3.371149786
|  7> H        0.000000000      0.000000000     -1.917974786
|  8> H       -0.513643152     -0.889656037     -3.371149786
|  9> Cl       0.000000000      0.000000000      1.378748214
| 10> *
| 11> %pal
| 12>  nprocs 4
| 13> end
| 14> 
| 15>                          ****END OF INPUT****
================================================================================

                       *****************************
                       * Geometry Optimization Run *
                       *****************************

Geometry optimization settings:
Update method            Update   .... BFGS
Choice of coordinates    CoordSys .... Z-matrix Internals
Initial Hessian          InHess   .... Almoef's Model

Convergence Tolerances:
Energy Change            TolE     ....  1.0000e-06 Eh
Max. Gradient            TolMAXG  ....  1.0000e-04 Eh/bohr
RMS Gradient             TolRMSG  ....  3.0000e-05 Eh/bohr
Max. Displacement        TolMAXD  ....  1.0000e-03 bohr
RMS Displacement         TolRMSD  ....  6.0000e-04 bohr

------------------------------------------------------------------------------
                        ORCA OPTIMIZATION COORDINATE SETUP
------------------------------------------------------------------------------

The optimization will be done in new redundant internal coordinates
Making redundant internal coordinates   ...  (new redundants) done
Evaluating the initial hessian          ...  (Almloef) done
Evaluating the coordinates              ...  done
Calculating the B-matrix                .... done
Calculating the G-matrix                .... done
Diagonalizing the G-matrix              .... done
The first mode is                       ....    1
The number of degrees of freedom        ....   12

    -----------------------------------------------------------------
                    Redundant Internal Coordinates


    -----------------------------------------------------------------
         Definition                    Initial Value    Approx d2E/dq
    -----------------------------------------------------------------
      1. B(H   1,C   0)                  1.0898         0.360343   
      2. B(H   2,C   0)                  1.0898         0.360343   
      3. B(H   3,C   0)                  1.0893         0.360986   
      4. B(H   4,C   0)                  1.0898         0.360343   
      5. B(Cl  5,H   3)                  3.2967         0.000244   
      6. A(H   1,C   0,H   2)          109.4393         0.290901   
      7. A(H   1,C   0,H   4)          109.4393         0.290901   
      8. A(H   1,C   0,H   3)          109.5031         0.290983   
      9. A(H   2,C   0,H   4)          109.4393         0.290901   
     10. A(H   3,C   0,H   4)          109.5031         0.290983   
     11. A(H   2,C   0,H   3)          109.5031         0.290983   
     12. L(C   0,H   3,Cl  5,H   2, 1) 180.0000         0.130818   
     13. L(C   0,H   3,Cl  5,H   2, 2) 180.0000         0.130818   
    -----------------------------------------------------------------

Number of atoms                         .... 6
Number of degrees of freedom            .... 13

         *************************************************************
         *                GEOMETRY OPTIMIZATION CYCLE   1            *
         *************************************************************
---------------------------------
CARTESIAN COORDINATES (ANGSTROEM)
---------------------------------
  C      0.000000    0.000000   -3.007306
  H     -0.513643    0.889656   -3.371150
  H      1.027286    0.000000   -3.371150
  H      0.000000    0.000000   -1.917975
  H     -0.513643   -0.889656   -3.371150
  Cl     0.000000    0.000000    1.378748

----------------------------
CARTESIAN COORDINATES (A.U.)
----------------------------
  NO LB      ZA    FRAG     MASS         X           Y           Z
   0 C     6.0000    0    12.011    0.000000    0.000000   -5.682984
   1 H     1.0000    0     1.008   -0.970645    1.681206   -6.370550
   2 H     1.0000    0     1.008    1.941290    0.000000   -6.370550
   3 H     1.0000    0     1.008    0.000000    0.000000   -3.624447
   4 H     1.0000    0     1.008   -0.970645   -1.681206   -6.370550
   5 Cl   17.0000    0    35.453    0.000000    0.000000    2.605457

--------------------------------
INTERNAL COORDINATES (ANGSTROEM)
--------------------------------
 C      0   0   0     0.000000000000     0.00000000     0.00000000
 H      1   0   0     1.089816318516     0.00000000     0.00000000
 H      1   2   0     1.089816318825   109.43930818     0.00000000
 H      1   2   3     1.089331000000   109.50311425   120.03904231
 H      1   2   3     1.089816318516   109.43930823   240.07808465
 Cl     4   1   2     3.296723000000   179.99999915     0.00000000

---------------------------
INTERNAL COORDINATES (A.U.)
---------------------------
 C      0   0   0     0.000000000000     0.00000000     0.00000000
 H      1   0   0     2.059454378273     0.00000000     0.00000000
 H      1   2   0     2.059454378857   109.43930818     0.00000000
 H      1   2   3     2.058537259191   109.50311425   120.03904231
 H      1   2   3     2.059454378273   109.43930823   240.07808465
 Cl     4   1   2     6.229903609399   179.99999915     0.00000000

---------------------
BASIS SET INFORMATION
---------------------
There are 3 groups of distinct atoms

 Group   1 Type C   : 11s5p1d contracted to 4s3p1d pattern {6311/311/1}
 Group   2 Type H   : 5s1p contracted to 3s1p pattern {311/1}
 Group   3 Type Cl  : 13s10p1d contracted to 6s5p1d pattern {631111/52111/1}

Atom   0C    basis set group =>   1
Atom   1H    basis set group =>   2
Atom   2H    basis set group =>   2
Atom   3H    basis set group =>   2
Atom   4H    basis set group =>   2
Atom   5Cl   basis set group =>   3


           ************************************************************
           *        Program running with 4 parallel MPI-processes     *
           *              working on a common directory               *
           ************************************************************
------------------------------------------------------------------------------
                           ORCA GTO INTEGRAL CALCULATION
------------------------------------------------------------------------------

                         BASIS SET STATISTICS AND STARTUP INFO

 # of primitive gaussian shells          ...   65
 # of primitive gaussian functions       ...  111
 # of contracted shells                  ...   36
 # of contracted basis functions         ...   68
 Highest angular momentum                ...    2
 Maximum contraction depth               ...    6
 Integral package used                   ... LIBINT
 Integral threshhold            Thresh   ...  2.500e-11
 Primitive cut-off              TCut     ...  2.500e-12


------------------------------ INTEGRAL EVALUATION ----------------------------


 * One electron integrals 
 Pre-screening matrix                    ... done
 Shell pair data                         ... done (   0.000 sec)



           ************************************************************
           *        Program running with 4 parallel MPI-processes     *
           *              working on a common directory               *
           ************************************************************
-------------------------------------------------------------------------------
                                 ORCA SCF
-------------------------------------------------------------------------------

------------
SCF SETTINGS
------------
Hamiltonian:
 Ab initio Hamiltonian  Method          .... Hartree-Fock(GTOs)


General Settings:
 Integral files         IntName         .... reactants
 Hartree-Fock type      HFTyp           .... UHF
 Total Charge           Charge          ....    0
 Multiplicity           Mult            ....    2
 Number of Electrons    NEL             ....   27
 Basis Dimension        Dim             ....   68
 Nuclear Repulsion      ENuc            ....     34.0276374955 Eh

Convergence Acceleration:
 DIIS                   CNVDIIS         .... on
   Start iteration      DIISMaxIt       ....    12
   Startup error        DIISStart       ....  0.200000
   # of expansion vecs  DIISMaxEq       ....     5
   Bias factor          DIISBfac        ....   1.050
   Max. coefficient     DIISMaxC        ....  10.000
 Newton-Raphson         CNVNR           .... off
 SOSCF                  CNVSOSCF        .... off
 Level Shifting         CNVShift        .... on
   Level shift para.    LevelShift      ....    0.2500
   Turn off err/grad.   ShiftErr        ....    0.0010
 Zerner damping         CNVZerner       .... off
 Static damping         CNVDamp         .... on
   Fraction old density DampFac         ....    0.7000
   Max. Damping (<1)    DampMax         ....    0.9800
   Min. Damping (>=0)   DampMin         ....    0.0000
   Turn off err/grad.   DampErr         ....    0.1000
 Fernandez-Rico         CNVRico         .... off

SCF Procedure:
 Maximum # iterations   MaxIter         ....   125
 SCF integral mode      SCFMode         .... Direct
   Integral package                     .... LIBINT
 Reset frequency        DirectResetFreq ....    20
 Integral Threshold     Thresh          ....  2.500e-11 Eh
 Primitive CutOff       TCut            ....  2.500e-12 Eh

Convergence Tolerance:
 Convergence Check Mode ConvCheckMode   .... Total+1el-Energy
 Convergence forced     ConvForced      .... 1
 Energy Change          TolE            ....  1.000e-08 Eh
 1-El. energy change                    ....  1.000e-05 Eh
 DIIS Error             TolErr          ....  5.000e-07


Diagonalization of the overlap matrix:
Smallest eigenvalue                        ... 1.211e-02
Time for diagonalization                   ...    0.949 sec
Threshold for overlap eigenvalues          ... 1.000e-08
Number of eigenvalues below threshold      ... 0
Time for construction of square roots      ...    0.018 sec
Total time needed                          ...    0.967 sec

-------------------
DFT GRID GENERATION
-------------------

General Integration Accuracy     IntAcc      ...  4.340
Radial Grid Type                 RadialGrid  ... Gauss-Chebyshev
Angular Grid (max. acc.)         AngularGrid ... Lebedev-110
Angular grid pruning method      GridPruning ... 3 (G Style)
Weight generation scheme         WeightScheme... Becke
Basis function cutoff            BFCut       ...    1.0000e-11
Integration weight cutoff        WCut        ...    1.0000e-14
Grids for H and He will be reduced by one unit

# of grid points (after initial pruning)     ...   6676 (   0.0 sec)
# of grid points (after weights+screening)   ...   6532 (   0.0 sec)
nearest neighbour list constructed           ...    0.0 sec
Grid point re-assignment to atoms done       ...    0.0 sec
Grid point division into batches done        ...    0.0 sec
Reduced shell lists constructed in    0.0 sec

Total number of grid points                  ...     6532
Total number of batches                      ...      104
Average number of points per batch           ...       62
Average number of grid points per atom       ...     1089
Average number of shells per batch           ...    24.37 (67.70%)
Average number of basis functions per batch  ...    44.00 (64.71%)
Average number of large shells per batch     ...    22.26 (91.34%)
Average number of large basis fcns per batch ...    39.74 (90.32%)
Maximum spatial batch extension              ...  17.62, 15.68, 18.63 au
Average spatial batch extension              ...   1.03,  0.93,  1.13 au

Time for grid setup =    0.397 sec

------------------------------
INITIAL GUESS: MODEL POTENTIAL
------------------------------
Loading Hartree-Fock densities                     ... done
Calculating cut-offs                               ... done
Setting up the integral package                    ... done
Initializing the effective Hamiltonian             ... done
Starting the Coulomb interaction                   ... done (   0.0 sec)
Reading the grid                                   ... done
Mapping shells                                     ... done
Starting the XC term evaluation                    ... done (   0.0 sec)
Transforming the Hamiltonian                       ... done (   0.0 sec)
Diagonalizing the Hamiltonian                      ... done (   0.0 sec)
Back transforming the eigenvectors                 ... done (   0.0 sec)
Now organizing SCF variables                       ... done
                      ------------------
                      INITIAL GUESS DONE (   0.8 sec)
                      ------------------
--------------
SCF ITERATIONS
--------------
ITER       Energy         Delta-E        Max-DP      RMS-DP      [F,P]     Damp
               ***  Starting incremental Fock matrix formation  ***
  0   -499.5476432687   0.000000000000 0.03122506  0.00082607  0.6517618 0.7000
  1   -499.5946502169  -0.047006948164 0.02158739  0.00064443  0.4574749 0.7000
  2   -499.6234090621  -0.028758845249 0.01243327  0.00043252  0.3210218 0.7000
  3   -499.6415853372  -0.018176275114 0.00731893  0.00028714  0.2253202 0.7000
                               ***Turning on DIIS***
  4   -499.6537427790  -0.012157441783 0.00581924  0.00019773  0.1581821 0.7000
  5   -499.7152156351  -0.061472856111 0.00516962  0.00015268  0.1110714 0.7000
  6   -499.7070881094   0.008127525700 0.01437341  0.00040762  0.0778919 0.0000
  7   -499.6827086714   0.024379438009 0.00190692  0.00005439  0.0019884 0.0000
  8   -499.6820034462   0.000705225180 0.00145300  0.00004229  0.0008729 0.0000
  9   -499.6818966162   0.000106830020 0.00020551  0.00000693  0.0001627 0.0000
 10   -499.6818853927   0.000011223474 0.00005251  0.00000152  0.0000387 0.0000
 11   -499.6819410878  -0.000055695081 0.00003088  0.00000093  0.0000147 0.0000
 12   -499.6819237880   0.000017299805 0.00001296  0.00000040  0.0000036 0.0000
                            ***DIIS convergence achieved***

               *****************************************************
               *                     SUCCESS                       *
               *           SCF CONVERGED AFTER  13 CYCLES          *
               *****************************************************


----------------
TOTAL SCF ENERGY
----------------

Total Energy       :         -499.68192602 Eh          -13597.03647 eV

Components:
Nuclear Repulsion  :           34.02763750 Eh             925.93909 eV
Electronic Energy  :         -533.70956352 Eh          -14522.97556 eV
One Electron Energy:         -755.70434633 Eh          -20563.76071 eV
Two Electron Energy:          221.99478281 Eh            6040.78515 eV

Virial components:
Potential Energy   :         -999.32719331 Eh          -27193.07540 eV
Kinetic Energy     :          499.64526729 Eh           13596.03893 eV
Virial Ratio       :            2.00007337


---------------
SCF CONVERGENCE
---------------

  Last Energy change         ...   -2.2359e-06  Tolerance :   1.0000e-08
  Last MAX-Density change    ...    4.3188e-06  Tolerance :   1.0000e-07
  Last RMS-Density change    ...    1.3086e-07  Tolerance :   5.0000e-09
  Last DIIS Error            ...    7.3575e-07  Tolerance :   5.0000e-07

             **** THE GBW FILE WAS UPDATED (reactants.gbw) ****
             **** DENSITY FILE WAS UPDATED (reactants.scfp.tmp) ****
             **** ENERGY FILE WAS UPDATED (reactants.en.tmp) ****
----------------------
UHF SPIN CONTAMINATION
----------------------

Expectation value of <S**2>     :     0.755183
Ideal value S*(S+1) for S=0.5   :     0.750000
Deviation                       :     0.005183

----------------
ORBITAL ENERGIES
----------------
                 SPIN UP ORBITALS
  NO   OCC          E(Eh)            E(eV) 
   0   1.0000    -104.892327     -2854.2653 
   1   1.0000     -11.206098      -304.9334 
   2   1.0000     -10.616081      -288.8783 
   3   1.0000      -8.102597      -220.4829 
   4   1.0000      -8.077256      -219.7933 
   5   1.0000      -8.077236      -219.7928 
   6   1.0000      -1.138991       -30.9935 
   7   1.0000      -0.941408       -25.6170 
   8   1.0000      -0.581272       -15.8172 
   9   1.0000      -0.544661       -14.8210 
  10   1.0000      -0.543369       -14.7858 
  11   1.0000      -0.543296       -14.7838 
  12   1.0000      -0.506537       -13.7836 
  13   1.0000      -0.505735       -13.7618 
  14   0.0000       0.163996         4.4626 
  15   0.0000       0.237569         6.4646 
  16   0.0000       0.237759         6.4697 
  17   0.0000       0.249965         6.8019 
  18   0.0000       0.371718        10.1150 
  19   0.0000       0.399316        10.8659 
  20   0.0000       0.428326        11.6553 
  21   0.0000       0.432085        11.7576 
  22   0.0000       0.436008        11.8644 
  23   0.0000       0.463550        12.6138 
  24   0.0000       0.736391        20.0382 
  25   0.0000       0.754779        20.5386 
  26   0.0000       0.813148        22.1269 
  27   0.0000       0.813264        22.1300 
  28   0.0000       0.873421        23.7670 
  29   0.0000       0.986524        26.8447 
  30   0.0000       1.047409        28.5015 
  31   0.0000       1.055797        28.7297 
  32   0.0000       1.055941        28.7336 
  33   0.0000       1.110647        30.2222 
  34   0.0000       1.135033        30.8858 
  35   0.0000       1.203449        32.7475 
  36   0.0000       1.203495        32.7488 
  37   0.0000       1.722301        46.8662 
  38   0.0000       1.722422        46.8695 
  39   0.0000       1.722472        46.8708 
  40   0.0000       1.724917        46.9374 
  41   0.0000       1.725141        46.9435 
  42   0.0000       1.725273        46.9471 
  43   0.0000       2.181839        59.3709 
  44   0.0000       2.181916        59.3730 
  45   0.0000       2.200493        59.8785 
  46   0.0000       2.371358        64.5279 
  47   0.0000       2.425907        66.0123 
  48   0.0000       2.462360        67.0042 
  49   0.0000       2.526446        68.7481 
  50   0.0000       2.623158        71.3797 
  51   0.0000       2.623238        71.3819 
  52   0.0000       2.703750        73.5728 
  53   0.0000       2.703890        73.5766 
  54   0.0000       2.707873        73.6850 
  55   0.0000       2.902717        78.9870 
  56   0.0000       2.902775        78.9885 
  57   0.0000       2.923422        79.5504 
  58   0.0000       3.198390        87.0326 
  59   0.0000       4.193168       114.1019 
  60   0.0000       4.193208       114.1030 
  61   0.0000       4.202064       114.3440 
  62   0.0000       9.960568       271.0408 
  63   0.0000      25.160969       684.6648 
  64   0.0000      26.130691       711.0522 
  65   0.0000      26.175543       712.2727 
  66   0.0000      26.288801       715.3547 
  67   0.0000     218.754741      5952.6191 

                 SPIN DOWN ORBITALS
  NO   OCC          E(Eh)            E(eV) 
   0   1.0000    -104.881208     -2853.9628 
   1   1.0000     -11.206106      -304.9336 
   2   1.0000     -10.604548      -288.5644 
   3   1.0000      -8.071271      -219.6304 
   4   1.0000      -8.071258      -219.6301 
   5   1.0000      -8.053522      -219.1475 
   6   1.0000      -1.016733       -27.6667 
   7   1.0000      -0.941429       -25.6176 
   8   1.0000      -0.544235       -14.8094 
   9   1.0000      -0.543374       -14.7860 
  10   1.0000      -0.543299       -14.7839 
  11   1.0000      -0.480564       -13.0768 
  12   1.0000      -0.480372       -13.0716 
  13   0.0000      -0.047993        -1.3059 
  14   0.0000       0.164219         4.4686 
  15   0.0000       0.237616         6.4659 
  16   0.0000       0.237759         6.4698 
  17   0.0000       0.251707         6.8493 
  18   0.0000       0.404023        10.9940 
  19   0.0000       0.421175        11.4607 
  20   0.0000       0.428351        11.6560 
  21   0.0000       0.437436        11.9032 
  22   0.0000       0.455967        12.4075 
  23   0.0000       0.470274        12.7968 
  24   0.0000       0.754033        20.5183 
  25   0.0000       0.754906        20.5420 
  26   0.0000       0.813147        22.1269 
  27   0.0000       0.813257        22.1299 
  28   0.0000       0.878633        23.9088 
  29   0.0000       0.995224        27.0814 
  30   0.0000       1.121224        30.5101 
  31   0.0000       1.139649        31.0114 
  32   0.0000       1.154064        31.4037 
  33   0.0000       1.154239        31.4084 
  34   0.0000       1.176104        32.0034 
  35   0.0000       1.203446        32.7474 
  36   0.0000       1.203488        32.7486 
  37   0.0000       1.722322        46.8668 
  38   0.0000       1.722419        46.8694 
  39   0.0000       1.722468        46.8707 
  40   0.0000       1.724918        46.9374 
  41   0.0000       1.725163        46.9441 
  42   0.0000       1.725276        46.9471 
  43   0.0000       2.181877        59.3719 
  44   0.0000       2.181920        59.3731 
  45   0.0000       2.200576        59.8807 
  46   0.0000       2.436355        66.2966 
  47   0.0000       2.451443        66.7071 
  48   0.0000       2.472059        67.2681 
  49   0.0000       2.527002        68.7632 
  50   0.0000       2.623212        71.3812 
  51   0.0000       2.623242        71.3820 
  52   0.0000       2.703819        73.5746 
  53   0.0000       2.703900        73.5769 
  54   0.0000       2.707885        73.6853 
  55   0.0000       2.902716        78.9869 
  56   0.0000       2.902771        78.9884 
  57   0.0000       2.923458        79.5513 
  58   0.0000       3.198411        87.0332 
  59   0.0000       4.193165       114.1018 
  60   0.0000       4.193204       114.1029 
  61   0.0000       4.202063       114.3439 
  62   0.0000       9.978644       271.5327 
  63   0.0000      25.160964       684.6646 
  64   0.0000      26.154690       711.7053 
  65   0.0000      26.180669       712.4122 
  66   0.0000      26.293894       715.4932 
  67   0.0000     218.760780      5952.7834 

                    ********************************
                    * MULLIKEN POPULATION ANALYSIS *
                    ********************************

--------------------------------------------
MULLIKEN ATOMIC CHARGES AND SPIN POPULATIONS
--------------------------------------------
   0 C :   -0.365850   -0.000190
   1 H :    0.088959    0.000018
   2 H :    0.089267    0.000014
   3 H :    0.103909   -0.001372
   4 H :    0.088959    0.000018
   5 Cl:   -0.005244    1.001512
Sum of atomic charges         :   -0.0000000
Sum of atomic spin populations:    1.0000000

-----------------------------------------------------
MULLIKEN REDUCED ORBITAL CHARGES AND SPIN POPULATIONS
-----------------------------------------------------
CHARGE
  0 C s       :     3.190052  s :     3.190052
      pz      :     1.047375  p :     3.130381
      px      :     1.041417
      py      :     1.041589
      dz2     :     0.015083  d :     0.045418
      dxz     :     0.005081
      dyz     :     0.005080
      dx2y2   :     0.010085
      dxy     :     0.010089
  1 H s       :     0.886065  s :     0.886065
      pz      :     0.005749  p :     0.024976
      px      :     0.007033
      py      :     0.012194
  2 H s       :     0.885764  s :     0.885764
      pz      :     0.005742  p :     0.024969
      px      :     0.014783
      py      :     0.004444
  3 H s       :     0.870914  s :     0.870914
      pz      :     0.016306  p :     0.025177
      px      :     0.004436
      py      :     0.004435
  4 H s       :     0.886065  s :     0.886065
      pz      :     0.005749  p :     0.024976
      px      :     0.007033
      py      :     0.012194
  5 Cls       :     5.997548  s :     5.997548
      pz      :     4.005315  p :    11.005327
      px      :     4.000002
      py      :     3.000010
      dz2     :     0.000604  d :     0.002369
      dxz     :     0.000000
      dyz     :     0.000000
      dx2y2   :     0.001764
      dxy     :     0.000000

SPIN
  0 C s       :    -0.000028  s :    -0.000028
      pz      :    -0.000136  p :    -0.000165
      px      :    -0.000013
      py      :    -0.000016
      dz2     :     0.000001  d :     0.000003
      dxz     :     0.000001
      dyz     :     0.000001
      dx2y2   :     0.000000
      dxy     :     0.000000
  1 H s       :     0.000018  s :     0.000018
      pz      :     0.000000  p :    -0.000000
      px      :    -0.000000
      py      :    -0.000000
  2 H s       :     0.000015  s :     0.000015
      pz      :     0.000000  p :    -0.000000
      px      :    -0.000001
      py      :     0.000000
  3 H s       :    -0.001359  s :    -0.001359
      pz      :    -0.000013  p :    -0.000013
      px      :    -0.000000
      py      :    -0.000000
  4 H s       :     0.000018  s :     0.000018
      pz      :     0.000000  p :    -0.000000
      px      :    -0.000000
      py      :    -0.000000
  5 Cls       :     0.001235  s :     0.001235
      pz      :     0.000483  p :     1.000485
      px      :     0.000002
      py      :     1.000000
      dz2     :    -0.000057  d :    -0.000208
      dxz     :     0.000000
      dyz     :     0.000000
      dx2y2   :    -0.000151
      dxy     :     0.000000


                     *******************************
                     * LOEWDIN POPULATION ANALYSIS *
                     *******************************

-------------------------------------------
LOEWDIN ATOMIC CHARGES AND SPIN POPULATIONS
-------------------------------------------
   0 C :   -0.013253   -0.000186
   1 H :    0.002839    0.000003
   2 H :    0.002932    0.000001
   3 H :    0.001718   -0.000533
   4 H :    0.002839    0.000003
   5 Cl:    0.002925    1.000712

----------------------------------------------------
LOEWDIN REDUCED ORBITAL CHARGES AND SPIN POPULATIONS
----------------------------------------------------
CHARGE
  0 C s       :     2.763254  s :     2.763254
      pz      :     1.059774  p :     3.173339
      px      :     1.056769
      py      :     1.056795
      dz2     :     0.025431  d :     0.076659
      dxz     :     0.008573
      dyz     :     0.008567
      dx2y2   :     0.017046
      dxy     :     0.017042
  1 H s       :     0.930321  s :     0.930321
      pz      :     0.016063  p :     0.066840
      px      :     0.019115
      py      :     0.031662
  2 H s       :     0.930217  s :     0.930217
      pz      :     0.016058  p :     0.066851
      px      :     0.037964
      py      :     0.012829
  3 H s       :     0.930941  s :     0.930941
      pz      :     0.041680  p :     0.067341
      px      :     0.012829
      py      :     0.012832
  4 H s       :     0.930321  s :     0.930321
      pz      :     0.016063  p :     0.066840
      px      :     0.019115
      py      :     0.031662
  5 Cls       :     5.996235  s :     5.996235
      pz      :     3.998469  p :    10.998469
      px      :     3.999994
      py      :     3.000005
      dz2     :     0.000607  d :     0.002371
      dxz     :     0.000000
      dyz     :     0.000000
      dx2y2   :     0.001764
      dxy     :     0.000000

SPIN
  0 C s       :    -0.000036  s :    -0.000036
      pz      :    -0.000141  p :    -0.000155
      px      :    -0.000008
      py      :    -0.000007
      dz2     :     0.000004  d :     0.000006
      dxz     :     0.000001
      dyz     :     0.000001
      dx2y2   :     0.000000
      dxy     :     0.000000
  1 H s       :     0.000008  s :     0.000008
      pz      :    -0.000005  p :    -0.000006
      px      :    -0.000000
      py      :    -0.000001
  2 H s       :     0.000006  s :     0.000006
      pz      :    -0.000005  p :    -0.000006
      px      :    -0.000001
      py      :    -0.000000
  3 H s       :    -0.000493  s :    -0.000493
      pz      :    -0.000039  p :    -0.000039
      px      :    -0.000001
      py      :    -0.000000
  4 H s       :     0.000008  s :     0.000008
      pz      :    -0.000005  p :    -0.000006
      px      :    -0.000000
      py      :    -0.000001
  5 Cls       :     0.000572  s :     0.000572
      pz      :     0.000344  p :     1.000342
      px      :     0.000002
      py      :     0.999996
      dz2     :    -0.000050  d :    -0.000201
      dxz     :     0.000000
      dyz     :     0.000000
      dx2y2   :    -0.000151
      dxy     :     0.000000


                      *****************************
                      * MAYER POPULATION ANALYSIS *
                      *****************************

  NA   - Mulliken gross atomic population
  ZA   - Total nuclear charge
  QA   - Mulliken gross atomic charge
  VA   - Mayer's total valence
  BVA  - Mayer's bonded valence
  FA   - Mayer's free valence

  ATOM       NA         ZA         QA         VA         BVA        FA
  0 C      6.3659     6.0000    -0.3659     3.9552     3.9552     0.0000
  1 H      0.9110     1.0000     0.0890     0.9690     0.9690     0.0000
  2 H      0.9107     1.0000     0.0893     0.9689     0.9689     0.0000
  3 H      0.8961     1.0000     0.1039     0.9550     0.9550     0.0000
  4 H      0.9110     1.0000     0.0890     0.9690     0.9690     0.0000
  5 Cl    17.0052    17.0000    -0.0052     0.9998    -0.0104     1.0102

  Mayer bond orders larger than 0.1
B(  0-C ,  1-H ) :   0.9891 B(  0-C ,  2-H ) :   0.9890 B(  0-C ,  3-H ) :   0.9871 
B(  0-C ,  4-H ) :   0.9891 

-------
TIMINGS
-------

Total SCF time: 0 days 0 hours 0 min 10 sec 

Total time                  ....      10.907 sec
Sum of individual times     ....       9.068 sec  ( 83.1%)

Fock matrix formation       ....       7.865 sec  ( 72.1%)
Diagonalization             ....       0.180 sec  (  1.6%)
Density matrix formation    ....       0.012 sec  (  0.1%)
Population analysis         ....       0.102 sec  (  0.9%)
Initial guess               ....       0.401 sec  (  3.7%)
Orbital Transformation      ....       0.000 sec  (  0.0%)
Orbital Orthonormalization  ....       0.000 sec  (  0.0%)
DIIS solution               ....       0.112 sec  (  1.0%)


           ************************************************************
           *        Program running with 4 parallel MPI-processes     *
           *              working on a common directory               *
           ************************************************************

------------------------------------------------------------------------------
                                ORCA  MP2 
------------------------------------------------------------------------------

MP2 will be done in the AO integral direct mode
The Q1-step will be done using symmetric double matrices
Dimension of the basis                    ...   68
Memory devoted for MP2                    ...  256 MB   
Memory needed for all in one shot         ...    6 MB
Number of MOs that can be treated together...  209      
MP2 density construction                  ... relaxed
The MP2 gradient is requested => amplitudes will be stored on disk
Total number of MOs              ...   14
Number of MOs treated per batch  ...    4 
Number of batches necessary      ...    1 
OPERATORS   0/  0 PASS   0
OPERATORS   0/  1 PASS   0
Total number of MOs              ...   14
Number of MOs treated per batch  ...    4 
Number of batches necessary      ...    1 
OPERATORS   1/  0 PASS   0
OPERATORS   1/  1 PASS   0

Correlation energy components
 E2 and T2 for alpha/alpha pairs :     -0.040874149 Eh
 E2 and T2 for beta/beta   pairs :     -0.031418985 Eh
 E2 and T2 for alpha/beta  pairs :     -0.278070188 Eh

-----------------------------------------------
 MP2 CORRELATION ENERGY   :     -0.350363321 Eh
-----------------------------------------------


---------------------
MP2 DENSITY FORMATION
---------------------

Completing the external part of the density      ... done
Storing the unrelaxed density                    ... done

Calculating G(D)                                 ... done
Completing the Lagrangian                        ... done
Solving the Z-vector equations                   ... 

------------------------------------------------------------------------------
                           ORCA CP-SCF CALCULATION
------------------------------------------------------------------------------

Input orbitals are from        ... reactants.gbw
Input Perturbation             ... reactants.pin.tmp
Wavefunction output            ... reactants.pout.tmp
Perturbation mode              ... Real perturbation (singlet)
Solver                         ... POPLE
Max. number of iterations      ... 128
Convergence tolerance          ... 1.000e-08
Integral handling              ... Direct
Number of perturbations        ... 1
Number of operators            ... 2
Orbital ranges used for CP-SCF:
 Operator 0:  Orbitals   0... 13  to  14... 67
 Operator 1:  Orbitals   0... 12  to  13... 67
Variables per vector in CP-SCF ... 1471
Number of vectors sought       ... 1
     CP-SCF ITERATION   0: 
     CP-SCF ITERATION   1:      0.000012242341
     CP-SCF ITERATION   2:      0.000000605017
     CP-SCF ITERATION   3:      0.000000032491
     CP-SCF ITERATION   4:      0.000000002398
                                                 ... done
Finalizing the relaxed density                   ... done
Transforming P to the AO basis                   ... done
Storing the relaxed density                      ... done

------------------------------------
ENERGY WEIGHTED DENSITY FINALIZATION
------------------------------------

Gathering the parts of the W-matrix              ...                                                                                                           done
Forming the Z-density                            ... done
Transforming Z to the AO basis                   ... done
Calculating G(Z)                                 ... done
Finalizing the W-matrix                          ...                                                                                                           done
Transforming W to the AO basis and storing       ... done

                *********************************************
                * UNRELAXED MP2 DENSITY POPULATION ANALYSIS *
                *********************************************

------------------------------------------------------------------------------
                           ORCA POPULATION ANALYSIS
------------------------------------------------------------------------------
Input electron density              ... reactants.pmp2ur
Input spin density                  ... reactants.rmp2ur
BaseName (.gbw .S,...)              ... reactants

                    ********************************
                    * MULLIKEN POPULATION ANALYSIS *
                    ********************************

------------------------------------------
MULLIKEN ATOMIC CHARGES AND SPIN DENSITIES
------------------------------------------
   0 C :   -0.372310   -0.000188
   1 H :    0.090577    0.000017
   2 H :    0.090883    0.000014
   3 H :    0.105361   -0.001353
   4 H :    0.090577    0.000017
   5 Cl:   -0.005087    1.001493
Sum of atomic charges       :   -0.0000000
Sum of atomic spin densities:    1.0000000

---------------------------------------------------
MULLIKEN REDUCED ORBITAL CHARGES AND SPIN DENSITIES
---------------------------------------------------
CHARGE
  0 C s       :     3.188042  s :     3.188042
      pz      :     1.044044  p :     3.120554
      px      :     1.038169
      py      :     1.038341
      dz2     :     0.018456  d :     0.063714
      dxz     :     0.008938
      dyz     :     0.008937
      dx2y2   :     0.013689
      dxy     :     0.013694
  1 H s       :     0.881182  s :     0.881182
      pz      :     0.007039  p :     0.028242
      px      :     0.008223
      py      :     0.012980
  2 H s       :     0.880884  s :     0.880884
      pz      :     0.007032  p :     0.028233
      px      :     0.015365
      py      :     0.005836
  3 H s       :     0.866210  s :     0.866210
      pz      :     0.016774  p :     0.028429
      px      :     0.005828
      py      :     0.005827
  4 H s       :     0.881182  s :     0.881182
      pz      :     0.007039  p :     0.028242
      px      :     0.008223
      py      :     0.012980
  5 Cls       :     5.987373  s :     5.987373
      pz      :     3.989638  p :    10.973235
      px      :     3.984431
      py      :     2.999166
      dz2     :     0.009432  d :     0.044480
      dxz     :     0.009501
      dyz     :     0.008175
      dx2y2   :     0.009212
      dxy     :     0.008161

SPIN
  0 C s       :    -0.000028  s :    -0.000028
      pz      :    -0.000134  p :    -0.000162
      px      :    -0.000013
      py      :    -0.000015
      dz2     :     0.000001  d :     0.000001
      dxz     :     0.000000
      dyz     :     0.000000
      dx2y2   :     0.000000
      dxy     :     0.000000
  1 H s       :     0.000018  s :     0.000018
      pz      :    -0.000000  p :    -0.000000
      px      :    -0.000000
      py      :    -0.000000
  2 H s       :     0.000014  s :     0.000014
      pz      :    -0.000000  p :    -0.000001
      px      :    -0.000000
      py      :     0.000000
  3 H s       :    -0.001339  s :    -0.001339
      pz      :    -0.000013  p :    -0.000013
      px      :    -0.000000
      py      :    -0.000000
  4 H s       :     0.000018  s :     0.000018
      pz      :    -0.000000  p :    -0.000000
      px      :    -0.000000
      py      :    -0.000000
  5 Cls       :     0.005573  s :     0.005573
      pz      :    -0.000319  p :     0.986899
      px      :    -0.000775
      py      :     0.987993
      dz2     :     0.000685  d :     0.009021
      dxz     :    -0.000361
      dyz     :     0.002959
      dx2y2   :     0.002794
      dxy     :     0.002944


                     *******************************
                     * LOEWDIN POPULATION ANALYSIS *
                     *******************************

-----------------------------------------
LOEWDIN ATOMIC CHARGES AND SPIN DENSITIES
-----------------------------------------
   0 C :   -0.015352   -0.000184
   1 H :    0.003356    0.000003
   2 H :    0.003449    0.000000
   3 H :    0.002070   -0.000532
   4 H :    0.003356    0.000003
   5 Cl:    0.003122    1.000710

--------------------------------------------------
LOEWDIN REDUCED ORBITAL CHARGES AND SPIN DENSITIES
--------------------------------------------------
CHARGE
  0 C s       :     2.762051  s :     2.762051
      pz      :     1.054357  p :     3.157184
      px      :     1.051400
      py      :     1.051427
      dz2     :     0.029380  d :     0.096118
      dxz     :     0.012434
      dyz     :     0.012429
      dx2y2   :     0.020939
      dxy     :     0.020936
  1 H s       :     0.924023  s :     0.924023
      pz      :     0.017753  p :     0.072621
      px      :     0.020922
      py      :     0.033946
  2 H s       :     0.923920  s :     0.923920
      pz      :     0.017748  p :     0.072631
      px      :     0.040485
      py      :     0.014397
  3 H s       :     0.924825  s :     0.924825
      pz      :     0.044305  p :     0.073104
      px      :     0.014398
      py      :     0.014401
  4 H s       :     0.924023  s :     0.924023
      pz      :     0.017753  p :     0.072621
      px      :     0.020922
      py      :     0.033946
  5 Cls       :     5.986040  s :     5.986040
      pz      :     3.982748  p :    10.966333
      px      :     3.984423
      py      :     2.999161
      dz2     :     0.009458  d :     0.044506
      dxz     :     0.009501
      dyz     :     0.008175
      dx2y2   :     0.009212
      dxy     :     0.008161

SPIN
  0 C s       :    -0.000036  s :    -0.000036
      pz      :    -0.000139  p :    -0.000153
      px      :    -0.000008
      py      :    -0.000006
      dz2     :     0.000003  d :     0.000004
      dxz     :     0.000000
      dyz     :     0.000000
      dx2y2   :     0.000000
      dxy     :     0.000000
  1 H s       :     0.000008  s :     0.000008
      pz      :    -0.000005  p :    -0.000006
      px      :    -0.000000
      py      :    -0.000001
  2 H s       :     0.000006  s :     0.000006
      pz      :    -0.000005  p :    -0.000006
      px      :    -0.000001
      py      :    -0.000000
  3 H s       :    -0.000492  s :    -0.000492
      pz      :    -0.000039  p :    -0.000039
      px      :    -0.000001
      py      :    -0.000000
  4 H s       :     0.000008  s :     0.000008
      pz      :    -0.000005  p :    -0.000006
      px      :    -0.000000
      py      :    -0.000001
  5 Cls       :     0.004913  s :     0.004913
      pz      :    -0.000446  p :     0.986767
      px      :    -0.000775
      py      :     0.987988
      dz2     :     0.000695  d :     0.009030
      dxz     :    -0.000361
      dyz     :     0.002959
      dx2y2   :     0.002794
      dxy     :     0.002944


                      *****************************
                      * MAYER POPULATION ANALYSIS *
                      *****************************

  NA   - Mulliken gross atomic population
  ZA   - Total nuclear charge
  QA   - Mulliken gross atomic charge
  VA   - Mayer's total valence
  BVA  - Mayer's bonded valence
  FA   - Mayer's free valence

  ATOM       NA         ZA         QA         VA         BVA        FA
  0 C      6.3723     6.0000    -0.3723     4.0606     3.8072     0.2534
  1 H      0.9094     1.0000     0.0906     0.9789     0.9315     0.0474
  2 H      0.9091     1.0000     0.0909     0.9788     0.9314     0.0474
  3 H      0.8946     1.0000     0.1054     0.9649     0.9179     0.0470
  4 H      0.9094     1.0000     0.0906     0.9789     0.9315     0.0474
  5 Cl    17.0051    17.0000    -0.0051     1.2691    -0.0102     1.2793

  Mayer bond orders larger than 0.1
B(  0-C ,  1-H ) :   0.9521 B(  0-C ,  2-H ) :   0.9520 B(  0-C ,  3-H ) :   0.9501 
B(  0-C ,  4-H ) :   0.9521 


                *******************************************
                * RELAXED MP2 DENSITY POPULATION ANALYSIS *
                *******************************************

------------------------------------------------------------------------------
                           ORCA POPULATION ANALYSIS
------------------------------------------------------------------------------
Input electron density              ... reactants.pmp2re
Input spin density                  ... reactants.rmp2re
BaseName (.gbw .S,...)              ... reactants

                    ********************************
                    * MULLIKEN POPULATION ANALYSIS *
                    ********************************

------------------------------------------
MULLIKEN ATOMIC CHARGES AND SPIN DENSITIES
------------------------------------------
   0 C :   -0.427927   -0.000114
   1 H :    0.104633    0.000010
   2 H :    0.104929    0.000005
   3 H :    0.117639   -0.001281
   4 H :    0.104633    0.000010
   5 Cl:   -0.003906    1.001370
Sum of atomic charges       :   -0.0000000
Sum of atomic spin densities:    1.0000000

---------------------------------------------------
MULLIKEN REDUCED ORBITAL CHARGES AND SPIN DENSITIES
---------------------------------------------------
CHARGE
  0 C s       :     3.196019  s :     3.196019
      pz      :     1.061817  p :     3.174282
      px      :     1.056144
      py      :     1.056321
      dz2     :     0.016424  d :     0.057626
      dxz     :     0.008260
      dyz     :     0.008260
      dx2y2   :     0.012338
      dxy     :     0.012344
  1 H s       :     0.868733  s :     0.868733
      pz      :     0.007050  p :     0.026634
      px      :     0.007959
      py      :     0.011626
  2 H s       :     0.868446  s :     0.868446
      pz      :     0.007043  p :     0.026625
      px      :     0.013465
      py      :     0.006117
  3 H s       :     0.855565  s :     0.855565
      pz      :     0.014573  p :     0.026796
      px      :     0.006112
      py      :     0.006111
  4 H s       :     0.868733  s :     0.868733
      pz      :     0.007050  p :     0.026634
      px      :     0.007959
      py      :     0.011626
  5 Cls       :     5.988446  s :     5.988446
      pz      :     3.988508  p :    10.972105
      px      :     3.984429
      py      :     2.999168
      dz2     :     0.009148  d :     0.043356
      dxz     :     0.009500
      dyz     :     0.008175
      dx2y2   :     0.008372
      dxy     :     0.008161

SPIN
  0 C s       :    -0.000006  s :    -0.000006
      pz      :    -0.000089  p :    -0.000108
      px      :    -0.000009
      py      :    -0.000010
      dz2     :     0.000000  d :     0.000001
      dxz     :     0.000000
      dyz     :     0.000000
      dx2y2   :     0.000000
      dxy     :    -0.000000
  1 H s       :     0.000010  s :     0.000010
      pz      :    -0.000000  p :    -0.000001
      px      :    -0.000000
      py      :    -0.000000
  2 H s       :     0.000006  s :     0.000006
      pz      :    -0.000000  p :    -0.000001
      px      :    -0.000000
      py      :     0.000000
  3 H s       :    -0.001267  s :    -0.001267
      pz      :    -0.000014  p :    -0.000014
      px      :    -0.000000
      py      :     0.000000
  4 H s       :     0.000010  s :     0.000010
      pz      :    -0.000000  p :    -0.000001
      px      :    -0.000000
      py      :    -0.000000
  5 Cls       :     0.004654  s :     0.004654
      pz      :    -0.000264  p :     0.986952
      px      :    -0.000774
      py      :     0.987990
      dz2     :     0.000874  d :     0.009764
      dxz     :    -0.000361
      dyz     :     0.002959
      dx2y2   :     0.003349
      dxy     :     0.002944


                     *******************************
                     * LOEWDIN POPULATION ANALYSIS *
                     *******************************

-----------------------------------------
LOEWDIN ATOMIC CHARGES AND SPIN DENSITIES
-----------------------------------------
   0 C :   -0.040829   -0.000168
   1 H :    0.009733    0.000000
   2 H :    0.009822   -0.000003
   3 H :    0.008098   -0.000576
   4 H :    0.009733    0.000000
   5 Cl:    0.003444    1.000747

--------------------------------------------------
LOEWDIN REDUCED ORBITAL CHARGES AND SPIN DENSITIES
--------------------------------------------------
CHARGE
  0 C s       :     2.763856  s :     2.763856
      pz      :     1.064913  p :     3.188971
      px      :     1.062015
      py      :     1.062044
      dz2     :     0.026679  d :     0.088002
      dxz     :     0.011530
      dyz     :     0.011525
      dx2y2   :     0.019136
      dxy     :     0.019133
  1 H s       :     0.917324  s :     0.917324
      pz      :     0.018151  p :     0.072944
      px      :     0.021170
      py      :     0.033623
  2 H s       :     0.917227  s :     0.917227
      pz      :     0.018146  p :     0.072952
      px      :     0.039874
      py      :     0.014931
  3 H s       :     0.918484  s :     0.918484
      pz      :     0.043546  p :     0.073418
      px      :     0.014934
      py      :     0.014938
  4 H s       :     0.917324  s :     0.917324
      pz      :     0.018151  p :     0.072944
      px      :     0.021170
      py      :     0.033623
  5 Cls       :     5.987180  s :     5.987180
      pz      :     3.982408  p :    10.965994
      px      :     3.984423
      py      :     2.999163
      dz2     :     0.009174  d :     0.043382
      dxz     :     0.009500
      dyz     :     0.008175
      dx2y2   :     0.008372
      dxy     :     0.008161

SPIN
  0 C s       :    -0.000035  s :    -0.000035
      pz      :    -0.000127  p :    -0.000136
      px      :    -0.000005
      py      :    -0.000004
      dz2     :     0.000001  d :     0.000002
      dxz     :     0.000000
      dyz     :     0.000000
      dx2y2   :     0.000000
      dxy     :     0.000000
  1 H s       :     0.000005  s :     0.000005
      pz      :    -0.000005  p :    -0.000005
      px      :    -0.000000
      py      :    -0.000000
  2 H s       :     0.000002  s :     0.000002
      pz      :    -0.000005  p :    -0.000005
      px      :    -0.000000
      py      :    -0.000000
  3 H s       :    -0.000534  s :    -0.000534
      pz      :    -0.000042  p :    -0.000043
      px      :    -0.000001
      py      :     0.000000
  4 H s       :     0.000005  s :     0.000005
      pz      :    -0.000005  p :    -0.000005
      px      :    -0.000000
      py      :    -0.000000
  5 Cls       :     0.004114  s :     0.004114
      pz      :    -0.000351  p :     0.986862
      px      :    -0.000775
      py      :     0.987987
      dz2     :     0.000882  d :     0.009772
      dxz     :    -0.000361
      dyz     :     0.002959
      dx2y2   :     0.003349
      dxy     :     0.002944


                      *****************************
                      * MAYER POPULATION ANALYSIS *
                      *****************************

  NA   - Mulliken gross atomic population
  ZA   - Total nuclear charge
  QA   - Mulliken gross atomic charge
  VA   - Mayer's total valence
  BVA  - Mayer's bonded valence
  FA   - Mayer's free valence

  ATOM       NA         ZA         QA         VA         BVA        FA
  0 C      6.4279     6.0000    -0.4279     4.0506     3.7976     0.2529
  1 H      0.8954     1.0000     0.1046     0.9767     0.9298     0.0469
  2 H      0.8951     1.0000     0.1049     0.9766     0.9297     0.0469
  3 H      0.8824     1.0000     0.1176     0.9653     0.9188     0.0465
  4 H      0.8954     1.0000     0.1046     0.9767     0.9298     0.0469
  5 Cl    17.0039    17.0000    -0.0039     1.2672    -0.0075     1.2746

  Mayer bond orders larger than 0.1
B(  0-C ,  1-H ) :   0.9497 B(  0-C ,  2-H ) :   0.9496 B(  0-C ,  3-H ) :   0.9477 
B(  0-C ,  4-H ) :   0.9497 


----------------------------------
MP2 DERIVATIVE INTEGRAL GENERATION
----------------------------------


Input Wavefunction Amplitudes       ... reactants.mp2tbb.tmp
Input Correlated Electron Density   ... reactants.pmp2re
Input Energy Weighted Density       ... reactants.wmp2.tmp
Input SCF Electron Density          ... reactants.scfp.tmp

One-Electron Terms    ...
                        ... One-Electron Terms done
Prescreening matrices              ... done

Batch handling in the gradient evaluation:
Memory available                      ...  256.0 MB
Memory per occupied orbital in Q2     ...    1.0 MB
Memory per occupied orbital in Q3     ...    0.0 MB
Total memory requirement per |i>      ...    1.0 MB
Max. Number of orbitals possible      ...    265
Number of orbitals treated per batch  ...     27
Number of batches to be done          ...      1
Batch   0: i=    0 ...    26

---------------------------------------
MP2 TOTAL ENERGY:     -500.032289345 Eh
---------------------------------------

-----------------------------------
NORM OF THE MP2 GRADIENT:  0.000064
-----------------------------------

-------------------------   --------------------
FINAL SINGLE POINT ENERGY      -500.032289345080
-------------------------   --------------------

------------------------------------------------------------------------------
                         ORCA GEOMETRY RELAXATION STEP
------------------------------------------------------------------------------

Reading the OPT-File                    .... done
Getting information on internals        .... done
Copying old internal coords+grads       .... done
Making the new internal coordinates     .... (new redundants).... done
Validating the new internal coordinates .... (new redundants).... done
Calculating the B-matrix                .... done
Calculating the G,G- and P matrices     .... done
Transforming gradient to internals      .... done
Projecting the internal gradient        .... done
Number of atoms                         ....   6
Number of internal coordinates          ....  13
Current Energy                          ....  -500.032289345 Eh
Current gradient norm                   ....     0.000063915 Eh/bohr
Maximum allowed component of the step   ....  0.300
Current trust radius                    ....  0.300
Evaluating the initial hessian          ....  (Almloef) done
Projecting the Hessian                  .... done
Forming the augmented Hessian           .... done
Diagonalizing the augmented Hessian     .... done
Last element of RFO vector              ....  0.999999974
Lowest eigenvalues of augmented Hessian:
 -0.000000011  0.000243631  0.130817965  0.130817965  0.290901084
Length of the computed step             ....  0.000226001
The final length of the internal step   ....  0.000226001
Converting the step to cartesian space:
 Initial RMS(Int)=    0.0000626813
Transforming coordinates:
 Iter   0:  RMS(Cart)=    0.0000606863 RMS(Int)=    0.0000626811
 Iter   1:  RMS(Cart)=    0.0000000026 RMS(Int)=    0.0000000031
done
Storing new coordinates                 .... done

                                .--------------------.
          ----------------------|Geometry convergence|-------------------------
          Item                value                   Tolerance       Converged
          ---------------------------------------------------------------------
          RMS gradient        0.0000154472            0.0000300000      YES
          MAX gradient        0.0000496928            0.0001000000      YES
          RMS step            0.0000626813            0.0006000000      YES
          MAX step            0.0001708196            0.0010000000      YES
          ........................................................
          Max(Bonds)      0.0001      Max(Angles)    0.01
          Max(Dihed)        0.00      Max(Improp)    0.00
          ---------------------------------------------------------------------

                    ***********************HURRAY********************
                    ***        THE OPTIMIZATION HAS CONVERGED     ***
                    *************************************************


    ---------------------------------------------------------------------------
                         Redundant Internal Coordinates

                          --- Optimized Parameters ---  
                            (Angstroem and degrees)

        Definition                    OldVal   dE/dq     Step     FinalVal
    ----------------------------------------------------------------------------
     1. B(H   1,C   0)                1.0898 -0.000003  0.0000    1.0898   
     2. B(H   2,C   0)                1.0898  0.000002 -0.0000    1.0898   
     3. B(H   3,C   0)                1.0893  0.000002 -0.0000    1.0893   
     4. B(H   4,C   0)                1.0898 -0.000003  0.0000    1.0898   
     5. B(Cl  5,H   3)                3.2967 -0.000000  0.0001    3.2968   
     6. A(H   1,C   0,H   2)          109.44 -0.000013    0.00    109.44   
     7. A(H   1,C   0,H   4)          109.44  0.000050   -0.01    109.43   
     8. A(H   1,C   0,H   3)          109.50 -0.000012    0.00    109.51   
     9. A(H   2,C   0,H   4)          109.44 -0.000013    0.00    109.44   
    10. A(H   3,C   0,H   4)          109.50 -0.000012    0.00    109.51   
    11. A(H   2,C   0,H   3)          109.50 -0.000001    0.00    109.50   
    12. L(C   0,H   3,Cl  5,H   2, 1) 180.00  0.000003   -0.00    180.00   
    13. L(C   0,H   3,Cl  5,H   2, 2) 180.00 -0.000000    0.00    180.00   
    ----------------------------------------------------------------------------
                 *******************************************************
                 *** FINAL ENERGY EVALUATION AT THE STATIONARY POINT ***
                 ***               (AFTER    1 CYCLES)               ***
                 *******************************************************
---------------------------------
CARTESIAN COORDINATES (ANGSTROEM)
---------------------------------
  C      0.000024   -0.000000   -3.007300
  H     -0.513677    0.889606   -3.371199
  H      1.027314    0.000000   -3.371124
  H      0.000001   -0.000000   -1.917973
  H     -0.513677   -0.889606   -3.371199
  Cl     0.000014   -0.000000    1.378813

----------------------------
CARTESIAN COORDINATES (A.U.)
----------------------------
  NO LB      ZA    FRAG     MASS         X           Y           Z
   0 C     6.0000    0    12.011    0.000045   -0.000000   -5.682974
   1 H     1.0000    0     1.008   -0.970708    1.681111   -6.370642
   2 H     1.0000    0     1.008    1.941343    0.000000   -6.370501
   3 H     1.0000    0     1.008    0.000001   -0.000000   -3.624443
   4 H     1.0000    0     1.008   -0.970708   -1.681111   -6.370642
   5 Cl   17.0000    0    35.453    0.000027   -0.000000    2.605579

--------------------------------
INTERNAL COORDINATES (ANGSTROEM)
--------------------------------
 C      0   0   0     0.000000000000     0.00000000     0.00000000
 H      1   0   0     1.089820325071     0.00000000     0.00000000
 H      1   2   0     1.089813291468   109.44177290     0.00000000
 H      1   2   3     1.089327702839   109.50545785   120.04219001
 H      1   2   3     1.089820324432   109.42952095   240.07953673
 Cl     4   1   2     3.296785610070   179.99853362   239.99486046

---------------------------
INTERNAL COORDINATES (A.U.)
---------------------------
 C      0   0   0     0.000000000000     0.00000000     0.00000000
 H      1   0   0     2.059461949565     0.00000000     0.00000000
 H      1   2   0     2.059448657982   109.44177290     0.00000000
 H      1   2   3     2.058531028460   109.50545785   120.04219001
 H      1   2   3     2.059461948358   109.42952095   240.07953673
 Cl     4   1   2     6.230021925284   179.99853362   239.99486046

---------------------
BASIS SET INFORMATION
---------------------
There are 3 groups of distinct atoms

 Group   1 Type C   : 11s5p1d contracted to 4s3p1d pattern {6311/311/1}
 Group   2 Type H   : 5s1p contracted to 3s1p pattern {311/1}
 Group   3 Type Cl  : 13s10p1d contracted to 6s5p1d pattern {631111/52111/1}

Atom   0C    basis set group =>   1
Atom   1H    basis set group =>   2
Atom   2H    basis set group =>   2
Atom   3H    basis set group =>   2
Atom   4H    basis set group =>   2
Atom   5Cl   basis set group =>   3


           ************************************************************
           *        Program running with 4 parallel MPI-processes     *
           *              working on a common directory               *
           ************************************************************
------------------------------------------------------------------------------
                           ORCA GTO INTEGRAL CALCULATION
------------------------------------------------------------------------------

                         BASIS SET STATISTICS AND STARTUP INFO

 # of primitive gaussian shells          ...   65
 # of primitive gaussian functions       ...  111
 # of contracted shells                  ...   36
 # of contracted basis functions         ...   68
 Highest angular momentum                ...    2
 Maximum contraction depth               ...    6
 Integral package used                   ... LIBINT
 Integral threshhold            Thresh   ...  2.500e-11
 Primitive cut-off              TCut     ...  2.500e-12


------------------------------ INTEGRAL EVALUATION ----------------------------


 * One electron integrals 
 Pre-screening matrix                    ... done
 Shell pair data                         ... done (   0.000 sec)



           ************************************************************
           *        Program running with 4 parallel MPI-processes     *
           *              working on a common directory               *
           ************************************************************
-------------------------------------------------------------------------------
                                 ORCA SCF
-------------------------------------------------------------------------------

------------
SCF SETTINGS
------------
Hamiltonian:
 Ab initio Hamiltonian  Method          .... Hartree-Fock(GTOs)


General Settings:
 Integral files         IntName         .... reactants
 Hartree-Fock type      HFTyp           .... UHF
 Total Charge           Charge          ....    0
 Multiplicity           Mult            ....    2
 Number of Electrons    NEL             ....   27
 Basis Dimension        Dim             ....   68
 Nuclear Repulsion      ENuc            ....     34.0273169430 Eh

Convergence Acceleration:
 DIIS                   CNVDIIS         .... on
   Start iteration      DIISMaxIt       ....    12
   Startup error        DIISStart       ....  0.200000
   # of expansion vecs  DIISMaxEq       ....     5
   Bias factor          DIISBfac        ....   1.050
   Max. coefficient     DIISMaxC        ....  10.000
 Newton-Raphson         CNVNR           .... off
 SOSCF                  CNVSOSCF        .... off
 Level Shifting         CNVShift        .... on
   Level shift para.    LevelShift      ....    0.2500
   Turn off err/grad.   ShiftErr        ....    0.0010
 Zerner damping         CNVZerner       .... off
 Static damping         CNVDamp         .... on
   Fraction old density DampFac         ....    0.7000
   Max. Damping (<1)    DampMax         ....    0.9800
   Min. Damping (>=0)   DampMin         ....    0.0000
   Turn off err/grad.   DampErr         ....    0.1000
 Fernandez-Rico         CNVRico         .... off

SCF Procedure:
 Maximum # iterations   MaxIter         ....   125
 SCF integral mode      SCFMode         .... Direct
   Integral package                     .... LIBINT
 Reset frequency        DirectResetFreq ....    20
 Integral Threshold     Thresh          ....  2.500e-11 Eh
 Primitive CutOff       TCut            ....  2.500e-12 Eh

Convergence Tolerance:
 Convergence Check Mode ConvCheckMode   .... Total+1el-Energy
 Convergence forced     ConvForced      .... 1
 Energy Change          TolE            ....  1.000e-08 Eh
 1-El. energy change                    ....  1.000e-05 Eh
 DIIS Error             TolErr          ....  5.000e-07


Diagonalization of the overlap matrix:
Smallest eigenvalue                        ... 1.211e-02
Time for diagonalization                   ...    0.002 sec
Threshold for overlap eigenvalues          ... 1.000e-08
Number of eigenvalues below threshold      ... 0
Time for construction of square roots      ...    0.001 sec
Total time needed                          ...    0.003 sec

---------------------
INITIAL GUESS: MOREAD
---------------------
Guess MOs are being read from file: reactants.gbw
Input Geometry matches current geometry (good)
Input basis set matches current basis set (good)
MOs were renormalized
MOs were reorthogonalized (Cholesky)
                      ------------------
                      INITIAL GUESS DONE (   0.0 sec)
                      ------------------
--------------
SCF ITERATIONS
--------------
ITER       Energy         Delta-E        Max-DP      RMS-DP      [F,P]     Damp
               ***  Starting incremental Fock matrix formation  ***
  0   -499.6819261781   0.000000000000 0.00000050  0.00000004  0.0000113 0.7000
                 **** Energy Check signals convergence ****

               *****************************************************
               *                     SUCCESS                       *
               *           SCF CONVERGED AFTER   1 CYCLES          *
               *****************************************************


----------------
TOTAL SCF ENERGY
----------------

Total Energy       :         -499.68192618 Eh          -13597.03647 eV

Components:
Nuclear Repulsion  :           34.02731694 Eh             925.93037 eV
Electronic Energy  :         -533.70924312 Eh          -14522.96684 eV
One Electron Energy:         -755.70370540 Eh          -20563.74326 eV
Two Electron Energy:          221.99446228 Eh            6040.77643 eV

Virial components:
Potential Energy   :         -999.32718976 Eh          -27193.07530 eV
Kinetic Energy     :          499.64526358 Eh           13596.03883 eV
Virial Ratio       :            2.00007338


---------------
SCF CONVERGENCE
---------------

  Last Energy change         ...   -5.0795e-10  Tolerance :   1.0000e-08
  Last MAX-Density change    ...    3.9938e-07  Tolerance :   1.0000e-07
  Last RMS-Density change    ...    3.6238e-08  Tolerance :   5.0000e-09
  Last DIIS Error            ...    9.2920e-06  Tolerance :   5.0000e-07

             **** THE GBW FILE WAS UPDATED (reactants.gbw) ****
             **** DENSITY FILE WAS UPDATED (reactants.scfp.tmp) ****
             **** ENERGY FILE WAS UPDATED (reactants.en.tmp) ****
----------------------
UHF SPIN CONTAMINATION
----------------------

Expectation value of <S**2>     :     0.755183
Ideal value S*(S+1) for S=0.5   :     0.750000
Deviation                       :     0.005183

----------------
ORBITAL ENERGIES
----------------
                 SPIN UP ORBITALS
  NO   OCC          E(Eh)            E(eV) 
   0   1.0000    -104.892327     -2854.2653 
   1   1.0000     -11.206098      -304.9334 
   2   1.0000     -10.616081      -288.8783 
   3   1.0000      -8.102597      -220.4829 
   4   1.0000      -8.077256      -219.7933 
   5   1.0000      -8.077236      -219.7928 
   6   1.0000      -1.138991       -30.9935 
   7   1.0000      -0.941408       -25.6170 
   8   1.0000      -0.581272       -15.8172 
   9   1.0000      -0.544667       -14.8212 
  10   1.0000      -0.543350       -14.7853 
  11   1.0000      -0.543308       -14.7842 
  12   1.0000      -0.506537       -13.7836 
  13   1.0000      -0.505736       -13.7618 
  14   0.0000       0.163996         4.4625 
  15   0.0000       0.237571         6.4646 
  16   0.0000       0.237757         6.4697 
  17   0.0000       0.249962         6.8018 
  18   0.0000       0.371718        10.1150 
  19   0.0000       0.399318        10.8660 
  20   0.0000       0.428330        11.6554 
  21   0.0000       0.432072        11.7573 
  22   0.0000       0.436015        11.8646 
  23   0.0000       0.463551        12.6139 
  24   0.0000       0.736390        20.0382 
  25   0.0000       0.754779        20.5386 
  26   0.0000       0.813139        22.1266 
  27   0.0000       0.813269        22.1302 
  28   0.0000       0.873420        23.7670 
  29   0.0000       0.986522        26.8446 
  30   0.0000       1.047408        28.5014 
  31   0.0000       1.055797        28.7297 
  32   0.0000       1.055941        28.7336 
  33   0.0000       1.110647        30.2222 
  34   0.0000       1.135028        30.8857 
  35   0.0000       1.203466        32.7480 
  36   0.0000       1.203478        32.7483 
  37   0.0000       1.722303        46.8662 
  38   0.0000       1.722427        46.8696 
  39   0.0000       1.722462        46.8706 
  40   0.0000       1.724928        46.9377 
  41   0.0000       1.725141        46.9435 
  42   0.0000       1.725264        46.9468 
  43   0.0000       2.181835        59.3707 
  44   0.0000       2.181909        59.3728 
  45   0.0000       2.200504        59.8788 
  46   0.0000       2.371357        64.5279 
  47   0.0000       2.425907        66.0123 
  48   0.0000       2.462360        67.0042 
  49   0.0000       2.526445        68.7481 
  50   0.0000       2.623127        71.3789 
  51   0.0000       2.623268        71.3827 
  52   0.0000       2.703783        73.5737 
  53   0.0000       2.703856        73.5757 
  54   0.0000       2.707872        73.6850 
  55   0.0000       2.902723        78.9871 
  56   0.0000       2.902761        78.9881 
  57   0.0000       2.923426        79.5505 
  58   0.0000       3.198388        87.0326 
  59   0.0000       4.193070       114.0992 
  60   0.0000       4.193282       114.1050 
  61   0.0000       4.202085       114.3446 
  62   0.0000       9.960563       271.0407 
  63   0.0000      25.160968       684.6647 
  64   0.0000      26.130691       711.0522 
  65   0.0000      26.175543       712.2727 
  66   0.0000      26.288800       715.3546 
  67   0.0000     218.754735      5952.6190 

                 SPIN DOWN ORBITALS
  NO   OCC          E(Eh)            E(eV) 
   0   1.0000    -104.881208     -2853.9628 
   1   1.0000     -11.206106      -304.9337 
   2   1.0000     -10.604548      -288.5644 
   3   1.0000      -8.071271      -219.6304 
   4   1.0000      -8.071258      -219.6301 
   5   1.0000      -8.053521      -219.1475 
   6   1.0000      -1.016732       -27.6667 
   7   1.0000      -0.941429       -25.6176 
   8   1.0000      -0.544241       -14.8096 
   9   1.0000      -0.543356       -14.7855 
  10   1.0000      -0.543311       -14.7842 
  11   1.0000      -0.480563       -13.0768 
  12   1.0000      -0.480372       -13.0716 
  13   0.0000      -0.047993        -1.3059 
  14   0.0000       0.164219         4.4686 
  15   0.0000       0.237618         6.4659 
  16   0.0000       0.237758         6.4697 
  17   0.0000       0.251703         6.8492 
  18   0.0000       0.404026        10.9941 
  19   0.0000       0.421166        11.4605 
  20   0.0000       0.428354        11.6561 
  21   0.0000       0.437442        11.9034 
  22   0.0000       0.455963        12.4074 
  23   0.0000       0.470275        12.7968 
  24   0.0000       0.754035        20.5183 
  25   0.0000       0.754904        20.5420 
  26   0.0000       0.813139        22.1266 
  27   0.0000       0.813262        22.1300 
  28   0.0000       0.878631        23.9088 
  29   0.0000       0.995222        27.0814 
  30   0.0000       1.121224        30.5101 
  31   0.0000       1.139647        31.0114 
  32   0.0000       1.154064        31.4037 
  33   0.0000       1.154240        31.4085 
  34   0.0000       1.176102        32.0034 
  35   0.0000       1.203464        32.7479 
  36   0.0000       1.203470        32.7481 
  37   0.0000       1.722323        46.8668 
  38   0.0000       1.722423        46.8695 
  39   0.0000       1.722458        46.8705 
  40   0.0000       1.724929        46.9377 
  41   0.0000       1.725163        46.9441 
  42   0.0000       1.725267        46.9469 
  43   0.0000       2.181873        59.3718 
  44   0.0000       2.181914        59.3729 
  45   0.0000       2.200587        59.8810 
  46   0.0000       2.436355        66.2966 
  47   0.0000       2.451443        66.7071 
  48   0.0000       2.472059        67.2682 
  49   0.0000       2.527000        68.7632 
  50   0.0000       2.623181        71.3804 
  51   0.0000       2.623271        71.3828 
  52   0.0000       2.703852        73.5755 
  53   0.0000       2.703866        73.5759 
  54   0.0000       2.707885        73.6853 
  55   0.0000       2.902722        78.9871 
  56   0.0000       2.902757        78.9880 
  57   0.0000       2.923462        79.5514 
  58   0.0000       3.198409        87.0331 
  59   0.0000       4.193067       114.0991 
  60   0.0000       4.193278       114.1049 
  61   0.0000       4.202085       114.3445 
  62   0.0000       9.978639       271.5326 
  63   0.0000      25.160963       684.6646 
  64   0.0000      26.154689       711.7053 
  65   0.0000      26.180669       712.4122 
  66   0.0000      26.293893       715.4932 
  67   0.0000     218.760774      5952.7833 

                    ********************************
                    * MULLIKEN POPULATION ANALYSIS *
                    ********************************

--------------------------------------------
MULLIKEN ATOMIC CHARGES AND SPIN POPULATIONS
--------------------------------------------
   0 C :   -0.365850   -0.000191
   1 H :    0.088958    0.000018
   2 H :    0.089268    0.000015
   3 H :    0.103910   -0.001372
   4 H :    0.088958    0.000018
   5 Cl:   -0.005243    1.001512
Sum of atomic charges         :   -0.0000000
Sum of atomic spin populations:    1.0000000

-----------------------------------------------------
MULLIKEN REDUCED ORBITAL CHARGES AND SPIN POPULATIONS
-----------------------------------------------------
CHARGE
  0 C s       :     3.190052  s :     3.190052
      pz      :     1.047372  p :     3.130381
      px      :     1.041409
      py      :     1.041600
      dz2     :     0.015083  d :     0.045418
      dxz     :     0.005081
      dyz     :     0.005080
      dx2y2   :     0.010083
      dxy     :     0.010090
  1 H s       :     0.886066  s :     0.886066
      pz      :     0.005749  p :     0.024976
      px      :     0.007034
      py      :     0.012193
  2 H s       :     0.885763  s :     0.885763
      pz      :     0.005742  p :     0.024969
      px      :     0.014783
      py      :     0.004444
  3 H s       :     0.870913  s :     0.870913
      pz      :     0.016306  p :     0.025177
      px      :     0.004436
      py      :     0.004435
  4 H s       :     0.886066  s :     0.886066
      pz      :     0.005749  p :     0.024976
      px      :     0.007034
      py      :     0.012193
  5 Cls       :     5.997548  s :     5.997548
      pz      :     4.005315  p :    11.005327
      px      :     4.000002
      py      :     3.000010
      dz2     :     0.000604  d :     0.002369
[...]
      py      :    -0.000000
  3 H s       :    -0.000533  s :    -0.000533
      pz      :    -0.000042  p :    -0.000043
      px      :    -0.000001
      py      :     0.000000
  4 H s       :     0.000005  s :     0.000005
      pz      :    -0.000005  p :    -0.000005
      px      :    -0.000000
      py      :    -0.000000
  5 Cls       :     0.004114  s :     0.004114
      pz      :    -0.000351  p :     0.986862
      px      :    -0.000775
      py      :     0.987987
      dz2     :     0.000882  d :     0.009772
      dxz     :    -0.000361
      dyz     :     0.002959
      dx2y2   :     0.003349
      dxy     :     0.002944


                      *****************************
                      * MAYER POPULATION ANALYSIS *
                      *****************************

  NA   - Mulliken gross atomic population
  ZA   - Total nuclear charge
  QA   - Mulliken gross atomic charge
  VA   - Mayer's total valence
  BVA  - Mayer's bonded valence
  FA   - Mayer's free valence

  ATOM       NA         ZA         QA         VA         BVA        FA
  0 C      6.4279     6.0000    -0.4279     4.0506     3.7976     0.2529
  1 H      0.8954     1.0000     0.1046     0.9767     0.9298     0.0469
  2 H      0.8951     1.0000     0.1049     0.9766     0.9297     0.0469
  3 H      0.8824     1.0000     0.1176     0.9653     0.9188     0.0465
  4 H      0.8954     1.0000     0.1046     0.9767     0.9298     0.0469
  5 Cl    17.0039    17.0000    -0.0039     1.2672    -0.0075     1.2746

  Mayer bond orders larger than 0.1
B(  0-C ,  1-H ) :   0.9497 B(  0-C ,  2-H ) :   0.9496 B(  0-C ,  3-H ) :   0.9477 
B(  0-C ,  4-H ) :   0.9497 


----------------------------------
MP2 DERIVATIVE INTEGRAL GENERATION
----------------------------------


Input Wavefunction Amplitudes       ... reactants.mp2tbb.tmp
Input Correlated Electron Density   ... reactants.pmp2re
Input Energy Weighted Density       ... reactants.wmp2.tmp
Input SCF Electron Density          ... reactants.scfp.tmp

One-Electron Terms    ...
                        ... One-Electron Terms done
Prescreening matrices              ... done

Batch handling in the gradient evaluation:
Memory available                      ...  256.0 MB
Memory per occupied orbital in Q2     ...    1.0 MB
Memory per occupied orbital in Q3     ...    0.0 MB
Total memory requirement per |i>      ...    1.0 MB
Max. Number of orbitals possible      ...    265
Number of orbitals treated per batch  ...     27
Number of batches to be done          ...      1
Batch   0: i=    0 ...    26

---------------------------------------
MP2 TOTAL ENERGY:     -500.032289452 Eh
---------------------------------------

-----------------------------------
NORM OF THE MP2 GRADIENT:  0.000035
-----------------------------------

-------------------------   --------------------
FINAL SINGLE POINT ENERGY      -500.032289452485
-------------------------   --------------------

                                *** OPTIMIZATION RUN DONE ***

                            ***************************************
                            *     ORCA property calculations      *
                            ***************************************

                                    ---------------------
                                    Active property flags
                                    ---------------------
   (+) Dipole Moment


------------------------------------------------------------------------------
                       ORCA ELECTRIC PROPERTIES CALCULATION
------------------------------------------------------------------------------

Dipole Moment Calculation                       ... on
Quadrupole Moment Calculation                   ... off
Polarizability Calculation                      ... off
GBWName                                         ... reactants.gbw
Electron density file                           ... reactants.scfp.tmp
The origin for moment calculation is the CENTER OF MASS  = ( 0.000028, -0.000000  0.023289)

-------------
DIPOLE MOMENT
-------------
                                X             Y             Z
Electronic contribution:      0.00019      -0.00000      13.15399
Nuclear contribution   :     -0.00009       0.00000     -13.16802
                        -----------------------------------------
Total Dipole Moment    :      0.00010      -0.00000      -0.01403
                        -----------------------------------------
Magnitude (a.u.)       :      0.01403
Magnitude (Debye)      :      0.03567



--------------------
Rotational spectrum 
--------------------
 
Rotational constants in cm-1:     5.282500     0.078157     0.078157 
Rotational constants in MHz : 158365.355066  2343.091048  2343.087700 

 Dipole components along the rotational axes: 
x,y,z [a.u.] :    -0.014033     0.000102    -0.000000 
x,y,z [Debye]:    -0.035669     0.000260    -0.000000 

 

                         *** MP2 UNRELAXED DENSITY ***

------------------------------------------------------------------------------
                       ORCA ELECTRIC PROPERTIES CALCULATION
------------------------------------------------------------------------------

Dipole Moment Calculation                       ... on
Quadrupole Moment Calculation                   ... off
Polarizability Calculation                      ... off
GBWName                                         ... reactants.gbw
Electron density file                           ... reactants.pmp2ur
The origin for moment calculation is the CENTER OF MASS  = ( 0.000028, -0.000000  0.023289)

-------------
DIPOLE MOMENT
-------------
                                X             Y             Z
Electronic contribution:      0.00019      -0.00000      13.15406
Nuclear contribution   :     -0.00009       0.00000     -13.16802
                        -----------------------------------------
Total Dipole Moment    :      0.00010      -0.00000      -0.01397
                        -----------------------------------------
Magnitude (a.u.)       :      0.01397
Magnitude (Debye)      :      0.03550



--------------------
Rotational spectrum 
--------------------
 
Rotational constants in cm-1:     5.282500     0.078157     0.078157 
Rotational constants in MHz : 158365.355066  2343.091048  2343.087700 

 Dipole components along the rotational axes: 
x,y,z [a.u.] :    -0.013967     0.000104    -0.000000 
x,y,z [Debye]:    -0.035501     0.000265    -0.000000 

 

                           *** MP2 RELAXED DENSITY ***

------------------------------------------------------------------------------
                       ORCA ELECTRIC PROPERTIES CALCULATION
------------------------------------------------------------------------------

Dipole Moment Calculation                       ... on
Quadrupole Moment Calculation                   ... off
Polarizability Calculation                      ... off
GBWName                                         ... reactants.gbw
Electron density file                           ... reactants.pmp2re
The origin for moment calculation is the CENTER OF MASS  = ( 0.000028, -0.000000  0.023289)

-------------
DIPOLE MOMENT
-------------
                                X             Y             Z
Electronic contribution:      0.00018      -0.00000      13.15898
Nuclear contribution   :     -0.00009       0.00000     -13.16802
                        -----------------------------------------
Total Dipole Moment    :      0.00009      -0.00000      -0.00904
                        -----------------------------------------
Magnitude (a.u.)       :      0.00904
Magnitude (Debye)      :      0.02298



--------------------
Rotational spectrum 
--------------------
 
Rotational constants in cm-1:     5.282500     0.078157     0.078157 
Rotational constants in MHz : 158365.355066  2343.091048  2343.087700 

 Dipole components along the rotational axes: 
x,y,z [a.u.] :    -0.009041     0.000087    -0.000000 
x,y,z [Debye]:    -0.022981     0.000220    -0.000000 

 
------------------------------------------------------------------------------
                         ORCA MP2 H E S S I A N CALCULATION
------------------------------------------------------------------------------

Calculating analytic MP2 second derivatives ... (>reactants.last_mp2) done

-----------------------
VIBRATIONAL FREQUENCIES
-----------------------

Scaling factor for frequencies =  1.000000000  (already applied!)

   0:         0.00 cm**-1
   1:         0.00 cm**-1
   2:         0.00 cm**-1
   3:         0.00 cm**-1
   4:         0.00 cm**-1
   5:         0.00 cm**-1
   6:        42.61 cm**-1
   7:        57.97 cm**-1
   8:        63.43 cm**-1
   9:      1346.18 cm**-1
  10:      1362.04 cm**-1
  11:      1364.64 cm**-1
  12:      1574.37 cm**-1
  13:      1580.54 cm**-1
  14:      3082.39 cm**-1
  15:      3217.55 cm**-1
  16:      3218.79 cm**-1
  17:      3225.37 cm**-1


------------
NORMAL MODES
------------

These modes are the Cartesian displacements weighted by the diagonal matrix
M(i,i)=1/sqrt(m[i]) where m[i] is the mass of the displaced atom
Thus, these vectors are normalized but *not* orthogonal

                  0          1          2          3          4          5    
      0       0.000000   0.000000   0.000000   0.000000   0.000000   0.000000
      1       0.000000   0.000000   0.000000   0.000000   0.000000   0.000000
      2       0.000000   0.000000   0.000000   0.000000   0.000000   0.000000
      3       0.000000   0.000000   0.000000   0.000000   0.000000   0.000000
      4       0.000000   0.000000   0.000000   0.000000   0.000000   0.000000
      5       0.000000   0.000000   0.000000   0.000000   0.000000   0.000000
      6       0.000000   0.000000   0.000000   0.000000   0.000000   0.000000
      7       0.000000   0.000000   0.000000   0.000000   0.000000   0.000000
      8       0.000000   0.000000   0.000000   0.000000   0.000000   0.000000
      9       0.000000   0.000000   0.000000   0.000000   0.000000   0.000000
     10       0.000000   0.000000   0.000000   0.000000   0.000000   0.000000
     11       0.000000   0.000000   0.000000   0.000000   0.000000   0.000000
     12       0.000000   0.000000   0.000000   0.000000   0.000000   0.000000
     13       0.000000   0.000000   0.000000   0.000000   0.000000   0.000000
     14       0.000000   0.000000   0.000000   0.000000   0.000000   0.000000
     15       0.000000   0.000000   0.000000   0.000000   0.000000   0.000000
     16       0.000000   0.000000   0.000000   0.000000   0.000000   0.000000
     17       0.000000   0.000000   0.000000   0.000000   0.000000   0.000000
                  6          7          8          9         10         11    
      0      -0.000022  -0.000185   0.025912   0.000015  -0.002286   0.124480
      1      -0.000039  -0.025765  -0.000183  -0.124706  -0.000287   0.000010
      2       0.438873  -0.000149   0.000142  -0.000287   0.124390   0.002269
      3       0.000197   0.002238  -0.179210   0.272628   0.118875  -0.448917
      4       0.000132   0.178988   0.001121   0.139400  -0.184732  -0.274744
      5       0.438734   0.496360   0.292759   0.182887  -0.527535   0.096737
      6       0.000197   0.001289  -0.178930   0.000548  -0.219998   0.014838
      7       0.000269   0.180653   0.001284   0.611707   0.001412  -0.000048
      8       0.439302   0.003985  -0.577996   0.001144  -0.522483  -0.222483
      9      -0.000910  -0.004529   0.633674  -0.000082   0.010757  -0.601737
     10      -0.000932  -0.636637  -0.004556   0.597190   0.001365  -0.000046
     11       0.437384  -0.000140   0.000167  -0.000170   0.095281   0.001704
     12       0.000192   0.000314  -0.179219  -0.273270   0.117610  -0.448873
     13       0.000397   0.178968   0.001432   0.138492   0.185366   0.274722
     14       0.437267  -0.500778   0.285637  -0.180449  -0.528387   0.096765
     15       0.000017   0.000082  -0.011517  -0.000000  -0.000000   0.000040
     16       0.000017   0.011516   0.000082  -0.000024   0.000000  -0.000000
     17      -0.198517   0.000067  -0.000064   0.000000   0.000027   0.000007
                 12         13         14         15         16         17    
      0       0.000000   0.000935  -0.000016  -0.000206   0.092428  -0.000187
      1       0.001588   0.000004   0.000045  -0.092223  -0.000206  -0.000031
      2      -0.000000  -0.000039  -0.002039  -0.000031   0.000187   0.092414
      3       0.284029   0.330137   0.238914  -0.339200  -0.178608  -0.132311
      4      -0.000966   0.286829  -0.413707   0.567073   0.340216   0.229067
      5      -0.412505   0.236065   0.168426  -0.238515  -0.139149  -0.076394
      6       0.000008  -0.166305  -0.477187   0.001295  -0.763571   0.266626
      7       0.490985   0.000003   0.000067  -0.020270  -0.000044  -0.000005
      8       0.000023  -0.471448   0.168170  -0.000484   0.276809  -0.077122
      9       0.000023  -0.506042   0.000017  -0.000038   0.017934   0.000010
     10      -0.507209  -0.000040   0.000051  -0.017108  -0.000037  -0.000004
     11      -0.000001  -0.000062  -0.481336  -0.000026  -0.001829  -0.873527
     12      -0.284060   0.330129   0.238455   0.340397  -0.177094  -0.132088
     13      -0.000939  -0.286836   0.413046   0.569289  -0.337681  -0.228690
     14       0.412487   0.236117   0.168087   0.239397  -0.138085  -0.076237
     15       0.000000   0.000027  -0.000000  -0.000000  -0.000000  -0.000000
     16      -0.000022  -0.000000   0.000000  -0.000002   0.000000   0.000000
     17      -0.000000  -0.000006   0.000027   0.000000   0.000001   0.000060


-----------
IR SPECTRUM
-----------

 Mode    freq (cm**-1)   T**2         TX         TY         TZ
-------------------------------------------------------------------
   6:        42.61    0.000943  (  0.000710  -0.000218  -0.030705)
   7:        57.97    0.107764  ( -0.001605  -0.328259   0.002744)
   8:        63.43    0.008060  (  0.089712  -0.002384   0.002542)
   9:      1346.18   17.387173  ( -0.004698   4.169739   0.020628)
  10:      1362.04   13.605612  (  0.062850   0.009628  -3.688030)
  11:      1364.64   14.296452  ( -3.780462  -0.000337  -0.067547)
  12:      1574.37    0.458595  (  0.000058  -0.677197  -0.000160)
  13:      1580.54    0.001146  ( -0.033626  -0.000166   0.003882)
  14:      3082.39    0.247719  ( -0.005942   0.003457  -0.497666)
  15:      3217.55   23.688798  ( -0.013557  -4.867089   0.007500)
  16:      3218.79   21.463996  (  4.632902  -0.010831   0.010005)
  17:      3225.37   17.811165  ( -0.005521  -0.001595   4.220324)

The first frequency considered to be a vibration is 6
The total number of vibrations considered is 12


--------------------------
THERMOCHEMISTRY AT 298.15K
--------------------------

Temperature         ... 298.15 K
Pressure            ... 1.00 atm
Total Mass          ... 51.50 AMU

Throughout the following assumptions are being made:
  (1) The electronic state is orbitally nondegenerate
      but the spin degeneracy is treated
  (2) There are no thermally accessible electronically excited states
  (3) Hindered rotations indicated by low frequency modes are not
      treated as such but are treated as vibrations and this may
      cause some error
  (4) All equations used are the standard statistical mechanics
      equations for an ideal gas
  (5) All vibrations are strictly harmonic

freq.      42.61  E(vib)   ...       0.53 
freq.      57.97  E(vib)   ...       0.51 
freq.      63.43  E(vib)   ...       0.51 
freq.    1346.18  E(vib)   ...       0.01 
freq.    1362.04  E(vib)   ...       0.01 
freq.    1364.64  E(vib)   ...       0.01 
freq.    1574.37  E(vib)   ...       0.00 
freq.    1580.54  E(vib)   ...       0.00 
freq.    3082.39  E(vib)   ...       0.00 
freq.    3217.55  E(vib)   ...       0.00 
freq.    3218.79  E(vib)   ...       0.00 
freq.    3225.37  E(vib)   ...       0.00 

------------
INNER ENERGY
------------

The inner energy is: U= E(el) + E(ZPE) + E(vib) + E(rot) + E(trans)
    E(el)   - is the total energy from the electronic structure calculation
              = E(kin-el) + E(nuc-el) + E(el-el) + E(nuc-nuc)
    E(ZPE)  - the the zero temperature vibrational energy from the frequency calculation
    E(vib)  - the the finite temperature correction to E(ZPE) due to population
              of excited vibrational states
    E(rot)  - is the rotational thermal energy
    E(trans)- is the translational thermal energy

Summary of contributions to the inner energy U:
Electronic energy                ...   -500.03228945 Eh
Zero point energy                ...      0.04587289 Eh      28.79 kcal/mol
Thermal vibrational correction   ...      0.00250950 Eh       1.57 kcal/mol
Thermal rotational correction    ...      0.00141627 Eh       0.89 kcal/mol
Thermal translational correction ...      0.00141627 Eh       0.89 kcal/mol
-----------------------------------------------------------------------
Total thermal energy                   -499.98107452 Eh


Summary of corrections to the electronic energy:
(perhaps to be used in another calculation)
Total thermal correction                  0.00534204 Eh       3.35 kcal/mol
Non-thermal (ZPE) correction              0.04587289 Eh      28.79 kcal/mol
-----------------------------------------------------------------------
Total correction                          0.05121493 Eh      32.14 kcal/mol


--------
ENTHALPY
--------

The enthalpy is H = U + kB*T
                kB is Boltzmann's constant
Total free energy                 ...   -499.98107452 Eh 
Thermal Enthalpy correction       ...      0.00094421 Eh       0.59 kcal/mol
-----------------------------------------------------------------------
Total Enthalpy                    ...   -499.98013031 Eh


Note: Rotational entropy computed according to Herzberg 
Infrared and Raman Spectra, Chapter V,1, Van Nostrand Reinhold, 1945 
Point Group:  Cs, Symmetry Number:   1  
Rotational constants in cm-1:     5.282500     0.078157     0.078157 

Vibrational entropy computed according to the QRRHO of S. Grimme
Chem.Eur.J. 2012 18 9955


-------
ENTROPY
-------

The entropy contributions are T*S = T*(S(el)+S(vib)+S(rot)+S(trans))
     S(el)   - electronic entropy
     S(vib)  - vibrational entropy
     S(rot)  - rotational entropy
     S(trans)- translational entropy
The entropies will be listed as mutliplied by the temperature to get
units of energy

Electronic entropy                ...      0.00065446 Eh      0.41 kcal/mol
Vibrational entropy               ...      0.00512845 Eh      3.22 kcal/mol
Rotational entropy                ...      0.01113181 Eh      6.99 kcal/mol
Translational entropy             ...      0.01793131 Eh     11.25 kcal/mol
-----------------------------------------------------------------------
Final entropy term                ...      0.03484603 Eh     21.87 kcal/mol


-------------------
GIBBS FREE ENTHALPY
-------------------

The Gibbs free enthalpy is G = H - T*S

Total enthalpy                    ...   -499.98013031 Eh 
Total entropy correction          ...     -0.03484603 Eh    -21.87 kcal/mol
-----------------------------------------------------------------------
Final Gibbs free enthalpy         ...   -500.01497634 Eh

For completeness - the Gibbs free enthalpy minus the electronic energy
G-E(el)                           ...      0.01731311 Eh     10.86 kcal/mol


Timings for individual modules:

Sum of individual times         ...      472.948 sec (=   7.882 min)
GTO integral calculation        ...       10.117 sec (=   0.169 min)   2.1 %
SCF iterations                  ...       14.726 sec (=   0.245 min)   3.1 %
MP2 module                      ...       23.254 sec (=   0.388 min)   4.9 %
Geometry relaxation             ...        1.418 sec (=   0.024 min)   0.3 %
Analytical frequency calculation...      423.433 sec (=   7.057 min)  89.5 %
                             ****ORCA TERMINATED NORMALLY****
TOTAL RUN TIME: 0 days 0 hours 7 minutes 59 seconds 817 msec
