
                                 *****************
                                 * O   R   C   A *
                                 *****************

           --- An Ab Initio, DFT and Semiempirical electronic structure package ---

                  #######################################################
                  #                        -***-                        #
                  #          Department of theory and spectroscopy      #
                  #               Directorship: Frank Neese             #
                  #        Max Planck Institute fuer Kohlenforschung    #
                  #                Kaiser Wilhelm Platz 1               #
                  #                 D-45470 Muelheim/Ruhr               #
                  #                      Germany                        #
                  #                                                     #
                  #                  All rights reserved                #
                  #                        -***-                        #
                  #######################################################


                         Program Version 4.2.1 -  RELEASE  -


 With contributions from (in alphabetic order):
   Daniel Aravena         : Magnetic Suceptibility
   Michael Atanasov       : Ab Initio Ligand Field Theory (pilot matlab implementation)
   Alexander A. Auer      : GIAO ZORA, VPT2
   Ute Becker             : Parallelization
   Giovanni Bistoni       : ED, misc. LED, open-shell LED, HFLD
   Martin Brehm           : Molecular dynamics
   Dmytro Bykov           : SCF Hessian
   Vijay G. Chilkuri      : MRCI spin determinant printing, contributions to CSF-ICE
   Dipayan Datta          : RHF DLPNO-CCSD density
   Achintya Kumar Dutta   : EOM-CC, STEOM-CC
   Dmitry Ganyushin       : Spin-Orbit,Spin-Spin,Magnetic field MRCI
   Miquel Garcia          : C-PCM Hessian, Gaussian charge scheme
   Yang Guo               : DLPNO-NEVPT2, CIM, IAO-localization
   Andreas Hansen         : Spin unrestricted coupled pair/coupled cluster methods
   Benjamin Helmich-Paris : CASSCF linear response (MC-RPA)
   Lee Huntington         : MR-EOM, pCC
   Robert Izsak           : Overlap fitted RIJCOSX, COSX-SCS-MP3, EOM
   Christian Kollmar      : KDIIS, OOCD, Brueckner-CCSD(T), CCSD density
   Simone Kossmann        : Meta GGA functionals, TD-DFT gradient, OOMP2, MP2 Hessian
   Martin Krupicka        : AUTO-CI
   Lucas Lang             : DCDCAS
   Dagmar Lenk            : GEPOL surface, SMD
   Dimitrios Liakos       : Extrapolation schemes; Compound Job, initial MDCI parallelization
   Dimitrios Manganas     : Further ROCIS development; embedding schemes
   Dimitrios Pantazis     : SARC Basis sets
   Taras Petrenko         : DFT Hessian,TD-DFT gradient, ASA, ECA, R-Raman, ABS, FL, XAS/XES, NRVS
   Peter Pinski           : DLPNO-MP2, DLPNO-MP2 Gradient
   Christoph Reimann      : Effective Core Potentials
   Marius Retegan         : Local ZFS, SOC
   Christoph Riplinger    : Optimizer, TS searches, QM/MM, DLPNO-CCSD(T), (RO)-DLPNO pert. Triples
   Tobias Risthaus        : Range-separated hybrids, TD-DFT gradient, RPA, STAB
   Michael Roemelt        : Original ROCIS implementation
   Masaaki Saitow         : Open-shell DLPNO-CCSD energy and density
   Barbara Sandhoefer     : DKH picture change effects
   Avijit Sen             : IP-ROCIS
   Kantharuban Sivalingam : CASSCF convergence, NEVPT2, FIC-MRCI
   Bernardo de Souza      : ESD, SOC TD-DFT
   Georgi Stoychev        : AutoAux, RI-MP2 NMR
   Willem Van den Heuvel  : Paramagnetic NMR
   Boris Wezisla          : Elementary symmetry handling
   Frank Wennmohs         : Technical directorship


 We gratefully acknowledge several colleagues who have allowed us to
 interface, adapt or use parts of their codes:
   Stefan Grimme, W. Hujo, H. Kruse,             : VdW corrections, initial TS optimization,
                  C. Bannwarth                     DFT functionals, gCP, sTDA/sTD-DF
   Ed Valeev, F. Pavosevic, A. Kumar             : LibInt (2-el integral package), F12 methods
   Garnet Chan, S. Sharma, J. Yang, R. Olivares  : DMRG
   Ulf Ekstrom                                   : XCFun DFT Library
   Mihaly Kallay                                 : mrcc  (arbitrary order and MRCC methods)
   Andreas Klamt, Michael Diedenhofen            : otool_cosmo (COSMO solvation model)
   Jiri Pittner, Ondrej Demel                    : Mk-CCSD
   Frank Weinhold                                : gennbo (NPA and NBO analysis)
   Christopher J. Cramer and Donald G. Truhlar   : smd solvation model
   Lars Goerigk                                  : TD-DFT with DH, B97 family of functionals
   V. Asgeirsson, H. Jonsson                     : NEB implementation
   FAccTs GmbH                                   : IRC, NEB, NEB-TS, Multilevel, MM, QM/MM, CI optimization
   S Lehtola, MJT Oliveira, MAL Marques          : LibXC Library


 Your calculation uses the libint2 library for the computation of 2-el integrals
 For citations please refer to: http://libint.valeyev.net

 Your ORCA version has been built with support for libXC version: 4.2.3
 For citations please refer to: https://tddft.org/programs/libxc/

 This ORCA versions uses:
   CBLAS   interface :  Fast vector & matrix operations
   LAPACKE interface :  Fast linear algebra routines
   SCALAPACK package :  Parallel linear algebra routines


Your calculation utilizes the geometrical counterpoise correction gCP
Please cite in your paper:
H.Kruse, S. Grimme J.Chem.Phys., 136, (2012), 154101 
   

Your calculation utilizes the atom-pairwise dispersion correction
based on tight binding partial charges (D4)
Cite in your paper:
E.Caldeweyher, C.Bannwarth, S.Grimme, J.Chem.Phys., (2017), 147, 034112.
E.Caldeweyher, S.Ehlert, A.Hansen, H.Neugebauer, S.Grimme, J.Chem.Phys., (2018), in progress.
   

----- Orbital basis set information -----
Your calculation utilizes the basis: def2-SVP
   F. Weigend and R. Ahlrichs, Phys. Chem. Chem. Phys. 7, 3297 (2005).

----- AuxJ basis set information -----
Your calculation utilizes the auxiliary basis: def2/J
   F. Weigend, Phys. Chem. Chem. Phys. 8, 1057 (2006).

================================================================================
                                        WARNINGS
                       Please study these warnings very carefully!
================================================================================


WARNING: Geometry Optimization
  ===> : Switching off AutoStart
         For restart on a previous wavefunction, please use MOREAD

INFO   : the flag for use of LIBINT has been found!

================================================================================
                                       INPUT FILE
================================================================================
NAME = S8.inp
|  1> ! revPBE D4 gCP(DFT/SVP) def2-SVP Opt Freq TightOpt TightSCF Grid4 FinalGrid5 LargePrint
|  2> 
|  3> %pal
|  4>  nprocs 8
|  5> end
|  6> 
|  7> *xyz 0 1
|  8> S       -2.2230048031      3.5178958528      0.2607564404                 
|  9> S       -0.3575022017      2.8525622829      1.0363999863                 
| 10> S       -3.2591802496      1.8177054862      1.0091445668                 
| 11> S       -3.6506184008      1.0671469397     -0.9422215405                 
| 12> S       -2.3764534084     -0.6133201464     -0.6648669183                 
| 13> S       -0.9746402255      0.0799057152     -2.1066537716                 
| 14> S        0.5252246473      0.4215366275     -0.6376114614                 
| 15> S        0.4529732109      2.5306551009     -0.9036765620                 
| 16> *
| 17> 
| 18>                          ****END OF INPUT****
================================================================================

                       *****************************
                       * Geometry Optimization Run *
                       *****************************

Geometry optimization settings:
Update method            Update   .... BFGS
Choice of coordinates    CoordSys .... Z-matrix Internals
Initial Hessian          InHess   .... Almoef's Model

Convergence Tolerances:
Energy Change            TolE     ....  1.0000e-06 Eh
Max. Gradient            TolMAXG  ....  1.0000e-04 Eh/bohr
RMS Gradient             TolRMSG  ....  3.0000e-05 Eh/bohr
Max. Displacement        TolMAXD  ....  1.0000e-03 bohr
RMS Displacement         TolRMSD  ....  6.0000e-04 bohr
Strict Convergence                ....  False
------------------------------------------------------------------------------
                        ORCA OPTIMIZATION COORDINATE SETUP
------------------------------------------------------------------------------

The optimization will be done in new redundant internal coordinates
Making redundant internal coordinates   ...  (new redundants) done
Evaluating the initial hessian          ...  (Almloef) done
Evaluating the coordinates              ...  done
Calculating the B-matrix                .... done
Calculating the G-matrix                .... done
Diagonalizing the G-matrix              .... done
The first mode is                       ....    6
The number of degrees of freedom        ....   18

    -----------------------------------------------------------------
                    Redundant Internal Coordinates


    -----------------------------------------------------------------
         Definition                    Initial Value    Approx d2E/dq
    -----------------------------------------------------------------
      1. B(S   1,S   0)                  2.1271         0.302928   
      2. B(S   2,S   0)                  2.1271         0.302928   
      3. B(S   3,S   2)                  2.1271         0.302928   
      4. B(S   4,S   3)                  2.1271         0.302928   
      5. B(S   5,S   4)                  2.1271         0.302928   
      6. B(S   6,S   5)                  2.1271         0.302928   
      7. B(S   7,S   1)                  2.1271         0.302928   
      8. B(S   7,S   6)                  2.1271         0.302928   
      9. A(S   1,S   0,S   2)           92.8038         0.410183   
     10. A(S   0,S   1,S   7)           92.8038         0.410183   
     11. A(S   0,S   2,S   3)           92.8038         0.410183   
     12. A(S   2,S   3,S   4)           92.8038         0.410183   
     13. A(S   3,S   4,S   5)           92.8038         0.410183   
     14. A(S   4,S   5,S   6)           92.8038         0.410183   
     15. A(S   5,S   6,S   7)           92.8038         0.410183   
     16. A(S   1,S   7,S   6)           92.8038         0.410183   
     17. D(S   7,S   1,S   0,S   2)    112.5870         0.001884   
     18. D(S   3,S   2,S   0,S   1)   -112.5870         0.001884   
     19. D(S   4,S   3,S   2,S   0)    112.5870         0.001884   
     20. D(S   5,S   4,S   3,S   2)   -112.5870         0.001884   
     21. D(S   6,S   5,S   4,S   3)    112.5870         0.001884   
     22. D(S   7,S   6,S   5,S   4)   -112.5870         0.001884   
     23. D(S   6,S   7,S   1,S   0)   -112.5870         0.001884   
     24. D(S   1,S   7,S   6,S   5)    112.5870         0.001884   
    -----------------------------------------------------------------

Number of atoms                         .... 8
Number of degrees of freedom            .... 24

         *************************************************************
         *                GEOMETRY OPTIMIZATION CYCLE   1            *
         *************************************************************
---------------------------------
CARTESIAN COORDINATES (ANGSTROEM)
---------------------------------
  S     -2.223005    3.517896    0.260756
  S     -0.357502    2.852562    1.036400
  S     -3.259180    1.817705    1.009145
  S     -3.650618    1.067147   -0.942222
  S     -2.376453   -0.613320   -0.664867
  S     -0.974640    0.079906   -2.106654
  S      0.525225    0.421537   -0.637611
  S      0.452973    2.530655   -0.903677

----------------------------
CARTESIAN COORDINATES (A.U.)
----------------------------
  NO LB      ZA    FRAG     MASS         X           Y           Z
   0 S    16.0000    0    32.060   -4.200870    6.647860    0.492758
   1 S    16.0000    0    32.060   -0.675581    5.390561    1.958512
   2 S    16.0000    0    32.060   -6.158958    3.434966    1.907007
   3 S    16.0000    0    32.060   -6.898669    2.016615   -1.780541
   4 S    16.0000    0    32.060   -4.490846   -1.159007   -1.256416
   5 S    16.0000    0    32.060   -1.841803    0.151000   -3.980999
   6 S    16.0000    0    32.060    0.992531    0.796589   -1.204911
   7 S    16.0000    0    32.060    0.855995    4.782245   -1.707701

--------------------------------
INTERNAL COORDINATES (ANGSTROEM)
--------------------------------
 S      0   0   0     0.000000000000     0.00000000     0.00000000
 S      1   0   0     2.127061735202     0.00000000     0.00000000
 S      1   2   0     2.127061735434    92.80375746     0.00000000
 S      3   1   2     2.127061739268    92.80375672   247.41301032
 S      4   3   1     2.127061739061    92.80375606   112.58702765
 S      5   4   3     2.127061735186    92.80375679   247.41297419
 S      6   5   4     2.127061735365    92.80375747   112.58698784
 S      2   1   3     2.127061739000    92.80375679   112.58698785

---------------------------
INTERNAL COORDINATES (A.U.)
---------------------------
 S      0   0   0     0.000000000000     0.00000000     0.00000000
 S      1   0   0     4.019564149476     0.00000000     0.00000000
 S      1   2   0     4.019564149913    92.80375746     0.00000000
 S      3   1   2     4.019564157159    92.80375672   247.41301032
 S      4   3   1     4.019564156768    92.80375606   112.58702765
 S      5   4   3     4.019564149445    92.80375679   247.41297419
 S      6   5   4     4.019564149784    92.80375747   112.58698784
 S      2   1   3     4.019564156652    92.80375679   112.58698785

---------------------
BASIS SET INFORMATION
---------------------
There are 1 groups of distinct atoms

 Group   1 Type S   : 10s7p1d contracted to 4s3p1d pattern {5311/511/1}

Atom   0S    basis set group =>   1
Atom   1S    basis set group =>   1
Atom   2S    basis set group =>   1
Atom   3S    basis set group =>   1
Atom   4S    basis set group =>   1
Atom   5S    basis set group =>   1
Atom   6S    basis set group =>   1
Atom   7S    basis set group =>   1

-------------------------
BASIS SET IN INPUT FORMAT
-------------------------

 # Basis set for element : S 
 NewGTO S 
 S 5 
   1    9184.9303010000     -0.0054729467
   2    1381.5105503000     -0.0409544021
   3     313.8714758000     -0.1847582895
   4      88.0538706230     -0.4756728065
   5      27.0399149050     -0.4349515358
 S 3 
   1      45.6487313030     -0.0919040458
   2       4.9664522326      0.5569877722
   3       2.0116242047      0.5111546830
 S 1 
   1       0.3566107701      1.0000000000
 S 1 
   1       0.1350722148      1.0000000000
 P 5 
   1     261.9823343900     -0.0091830547
   2      61.3068947360     -0.0659022265
   3      19.1037298870     -0.2458778452
   4       6.6567720378     -0.4823147108
   5       2.3959635161     -0.3895631435
 P 1 
   1       0.6177616168      1.0000000000
 P 1 
   1       0.1699337687      1.0000000000
 D 1 
   1       0.5500000000      1.0000000000
  end;

---------------------------------
AUXILIARY/J BASIS SET INFORMATION
---------------------------------
There are 1 groups of distinct atoms

 Group   1 Type S   : 14s5p5d2f1g contracted to 8s4p3d1f1g pattern {71111111/2111/311/2/1}

Atom   0S    basis set group =>   1
Atom   1S    basis set group =>   1
Atom   2S    basis set group =>   1
Atom   3S    basis set group =>   1
Atom   4S    basis set group =>   1
Atom   5S    basis set group =>   1
Atom   6S    basis set group =>   1
Atom   7S    basis set group =>   1

-------------------------------------
AUXILIARY/J BASIS SET IN INPUT FORMAT
-------------------------------------

 # Auxiliary/J basis set for element : S 
 NewAuxJGTO S 
 S 7 
   1    7399.0303145000      0.0295137551
   2    2710.1675859000      0.0559686311
   3    1034.3279062000      0.1764696370
   4     410.4645411000      0.3577969368
   5     168.9762502000      0.4299293578
   6      71.9687889000      0.1259148089
   7      31.6172683000     -0.0646025788
 S 1 
   1      14.2796836000      1.0000000000
 S 1 
   1       6.6060948000      1.0000000000
 S 1 
   1       3.1181477000      1.0000000000
 S 1 
   1       1.4954039000     -1.0000000000
 S 1 
   1       0.7254779000      1.0000000000
 S 1 
   1       0.3544216000      1.0000000000
 S 1 
   1       0.1735525000      1.0000000000
 P 2 
   1      12.6998799000      1.4059102813
   2       4.4295784000     -1.2124994202
 P 1 
   1       1.5232889000      1.0000000000
 P 1 
   1       0.5194667000     -1.0000000000
 P 1 
   1       0.1766547000     -1.0000000000
 D 3 
   1      16.8546461000      1.0295742104
   2       5.0810461000     -0.7461553923
   3       1.5102323000      0.8357028005
 D 1 
   1       0.4451331000      1.0000000000
 D 1 
   1       0.1308362000      1.0000000000
 F 2 
   1       1.0809860000      0.5572698934
   2       0.4161474000      0.5572698934
 G 1 
   1       0.6707100000     -1.0000000000
  end;



           ************************************************************
           *        Program running with 8 parallel MPI-processes     *
           *              working on a common directory               *
           ************************************************************
------------------------------------------------------------------------------
                           ORCA GTO INTEGRAL CALCULATION
                           -- RI-GTO INTEGRALS CHOSEN --
------------------------------------------------------------------------------

                         BASIS SET STATISTICS AND STARTUP INFO

Gaussian basis set:
 # of primitive gaussian shells          ...  144
 # of primitive gaussian functions       ...  288
 # of contracted shells                  ...   64
 # of contracted basis functions         ...  144
 Highest angular momentum                ...    2
 Maximum contraction depth               ...    5
Auxiliary gaussian basis set:
 # of primitive gaussian shells          ...  216
 # of primitive gaussian functions       ...  616
 # of contracted shells                  ...  136
 # of contracted aux-basis functions     ...  408
 Highest angular momentum                ...    4
 Maximum contraction depth               ...    7
Ratio of auxiliary to basis functions    ...  2.83
Integral package used                  ... LIBINT
 One Electron integrals                  ... done
 Ordering auxiliary basis shells         ... done
 Integral threshhold             Thresh  ...  2.500e-11
 Primitive cut-off               TCut    ...  2.500e-12
 Pre-screening matrix                    ... done
 Shell pair data                         ... 
 Ordering of the shell pairs             ... done (   0.000 sec) 1764 of 2080 pairs
 Determination of significant pairs      ... done (   0.000 sec)
 Creation of shell pair data             ... done (   0.000 sec)
 Storage of shell pair data              ... done (   0.001 sec)
 Shell pair data done in (   0.001 sec)
 Computing two index integrals           ... done
 Cholesky decomposition of the V-matrix  ... done


Timings:
 Total evaluation time                   ...   0.187 sec (  0.003 min)
 One electron matrix time                ...   0.014 sec (  0.000 min) =  7.6%
 Schwartz matrix evaluation time         ...   0.138 sec (  0.002 min) = 73.7%
 Two index repulsion integral time       ...   0.005 sec (  0.000 min) =  2.9%
 Cholesky decomposition of V             ...   0.010 sec (  0.000 min) =  5.2%
 Three index repulsion integral time     ...   0.000 sec (  0.000 min) =  0.0%



           ************************************************************
           *        Program running with 8 parallel MPI-processes     *
           *              working on a common directory               *
           ************************************************************
-------------------------------------------------------------------------------
                                 ORCA SCF
-------------------------------------------------------------------------------

------------
SCF SETTINGS
------------
Hamiltonian:
 Density Functional     Method          .... DFT(GTOs)
 Exchange Functional    Exchange        .... PBE
   PBE kappa parameter   XKappa         ....  1.245000
   PBE mue parameter    XMuePBE         ....  0.219520
 Correlation Functional Correlation     .... PBE
   PBE beta parameter  CBetaPBE         ....  0.066725
 LDA part of GGA corr.  LDAOpt          .... PW91-LDA
 Gradients option       PostSCFGGA      .... off
   Density functional embedding theory  .... OFF
   NL short-range parameter             ....  3.700000
 RI-approximation to the Coulomb term is turned on
   Number of auxiliary basis functions  .... 408


General Settings:
 Integral files         IntName         .... S8
 Hartree-Fock type      HFTyp           .... RHF
 Total Charge           Charge          ....    0
 Multiplicity           Mult            ....    1
 Number of Electrons    NEL             ....  128
 Basis Dimension        Dim             ....  144
 Nuclear Repulsion      ENuc            ....   1241.4735937528 Eh

Convergence Acceleration:
 DIIS                   CNVDIIS         .... on
   Start iteration      DIISMaxIt       ....    12
   Startup error        DIISStart       ....  0.200000
   # of expansion vecs  DIISMaxEq       ....     5
   Bias factor          DIISBfac        ....   1.050
   Max. coefficient     DIISMaxC        ....  10.000
 Newton-Raphson         CNVNR           .... off
 SOSCF                  CNVSOSCF        .... on
   Start iteration      SOSCFMaxIt      ....   150
   Startup grad/error   SOSCFStart      ....  0.003300
 Level Shifting         CNVShift        .... on
   Level shift para.    LevelShift      ....    0.2500
   Turn off err/grad.   ShiftErr        ....    0.0010
 Zerner damping         CNVZerner       .... off
 Static damping         CNVDamp         .... on
   Fraction old density DampFac         ....    0.7000
   Max. Damping (<1)    DampMax         ....    0.9800
   Min. Damping (>=0)   DampMin         ....    0.0000
   Turn off err/grad.   DampErr         ....    0.1000
 Fernandez-Rico         CNVRico         .... off

SCF Procedure:
 Maximum # iterations   MaxIter         ....   125
 SCF integral mode      SCFMode         .... Direct
   Integral package                     .... LIBINT
 Reset frequency        DirectResetFreq ....    20
 Integral Threshold     Thresh          ....  2.500e-11 Eh
 Primitive CutOff       TCut            ....  2.500e-12 Eh

Convergence Tolerance:
 Convergence Check Mode ConvCheckMode   .... Total+1el-Energy
 Convergence forced     ConvForced      .... 0
 Energy Change          TolE            ....  1.000e-08 Eh
 1-El. energy change                    ....  1.000e-05 Eh
 Orbital Gradient       TolG            ....  1.000e-05
 Orbital Rotation angle TolX            ....  1.000e-05
 DIIS Error             TolErr          ....  5.000e-07


Diagonalization of the overlap matrix:
Smallest eigenvalue                        ... 1.785e-02
Time for diagonalization                   ...    0.006 sec
Threshold for overlap eigenvalues          ... 1.000e-08
Number of eigenvalues below threshold      ... 0
Time for construction of square roots      ...    0.004 sec
Total time needed                          ...    0.010 sec

-------------------
DFT GRID GENERATION
-------------------

General Integration Accuracy     IntAcc      ...  4.670
Radial Grid Type                 RadialGrid  ... Gauss-Chebyshev
Angular Grid (max. acc.)         AngularGrid ... Lebedev-302
Angular grid pruning method      GridPruning ... 3 (G Style)
Weight generation scheme         WeightScheme... Becke
Basis function cutoff            BFCut       ...    1.0000e-11
Integration weight cutoff        WCut        ...    1.0000e-14
Grids for H and He will be reduced by one unit

# of grid points (after initial pruning)     ...  54768 (   0.0 sec)
# of grid points (after weights+screening)   ...  52796 (   0.0 sec)
nearest neighbour list constructed           ...    0.0 sec
Grid point re-assignment to atoms done       ...    0.0 sec
Grid point division into batches done        ...    0.3 sec
Reduced shell lists constructed in    0.4 sec

Total number of grid points                  ...    52796
Total number of batches                      ...      829
Average number of points per batch           ...       63
Average number of grid points per atom       ...     6600
Average number of shells per batch           ...    32.99 (51.55%)
Average number of basis functions per batch  ...    78.61 (54.59%)
Average number of large shells per batch     ...    25.25 (76.53%)
Average number of large basis fcns per batch ...    58.98 (75.03%)
Maximum spatial batch extension              ...  15.49, 15.94, 16.69 au
Average spatial batch extension              ...   0.35,  0.34,  0.36 au

Time for grid setup =    0.402 sec

------------------------------
INITIAL GUESS: MODEL POTENTIAL
------------------------------
Loading Hartree-Fock densities                     ... done
Calculating cut-offs                               ... done
Setting up the integral package                    ... done
Initializing the effective Hamiltonian             ... done
Starting the Coulomb interaction                   ... done (   0.0 sec)
Reading the grid                                   ... done
Mapping shells                                     ... done
Starting the XC term evaluation                    ... done (   0.1 sec)
  promolecular density results
     # of electrons  =    127.999979953
     EX              =   -199.883806187
     EC              =     -5.015849382
     EX+EC           =   -204.899655570
Transforming the Hamiltonian                       ... done (   0.0 sec)
Diagonalizing the Hamiltonian                      ... done (   0.0 sec)
Back transforming the eigenvectors                 ... done (   0.0 sec)
Now organizing SCF variables                       ... done
                      ------------------
                      INITIAL GUESS DONE (   0.6 sec)
                      ------------------
----------------------
INITIAL GUESS ORBITALS
----------------------
                      0         1         2         3         4         5   
                 -88.08623 -88.08623 -88.08614 -88.08614 -88.08610 -88.08610
                   2.00000   2.00000   2.00000   2.00000   2.00000   2.00000
                  --------  --------  --------  --------  --------  --------
  0S   1s        -0.056360 -0.493910 -0.479813  0.130120 -0.479923  0.129617
  0S   2s         0.001244  0.010904  0.010478 -0.002842  0.010454 -0.002823
  0S   3s        -0.000710 -0.006222 -0.005267  0.001428 -0.004907  0.001325
  0S   4s         0.000621  0.005439  0.004819 -0.001307  0.002784 -0.000752
  0S   1pz        0.000001  0.000008 -0.000018  0.000005 -0.000014  0.000004
  0S   1px       -0.000011 -0.000034 -0.000010  0.000028 -0.000013  0.000024
  0S   1py        0.000009  0.000097  0.000048 -0.000004  0.000053 -0.000007
  0S   2pz        0.000004  0.000038 -0.000086  0.000025 -0.000105  0.000030
  0S   2px       -0.000064 -0.000197 -0.000043  0.000180 -0.000075  0.000133
  0S   2py        0.000050  0.000568  0.000256 -0.000009  0.000303 -0.000042
  0S   3pz        0.000007  0.000152  0.000510 -0.000136  0.000251 -0.000076
  0S   3px       -0.001002  0.000675  0.000465  0.000128 -0.000058 -0.000850
  0S   3py       -0.000557 -0.001512 -0.001113  0.000392 -0.000532 -0.000165
  0S   1dz2      -0.000012 -0.000106 -0.000127  0.000036 -0.000029  0.000009
  0S   1dxz      -0.000003  0.000018  0.000042  0.000069  0.000060  0.000033
  0S   1dyz      -0.000005 -0.000043 -0.000047  0.000042 -0.000126  0.000052
  0S   1dx2y2    -0.000113  0.000050  0.000007 -0.000036  0.000013 -0.000072
  0S   1dxy       0.000147  0.000014  0.000024  0.000034  0.000047  0.000071
  1S   1s        -0.493926  0.056363  0.431274  0.247291 -0.431031 -0.247698
  1S   2s         0.010904 -0.001244 -0.009418 -0.005400  0.009389  0.005395
  1S   3s        -0.006222  0.000710  0.004734  0.002714 -0.004408 -0.002533
  1S   4s         0.005439 -0.000621 -0.004332 -0.002484  0.002500  0.001437
  1S   1pz        0.000076 -0.000012 -0.000047 -0.000016  0.000048  0.000019
  1S   1px        0.000051  0.000001 -0.000008 -0.000030  0.000013  0.000028
  1S   1py        0.000047 -0.000008 -0.000007  0.000006  0.000011 -0.000001
  1S   2pz        0.000451 -0.000068 -0.000251 -0.000068  0.000288  0.000115
  1S   2px        0.000299  0.000004 -0.000029 -0.000189  0.000076  0.000159
  1S   2py        0.000264 -0.000044 -0.000050  0.000035  0.000045 -0.000017
  1S   3pz       -0.001417 -0.000271  0.001025  0.000701 -0.000618  0.000032
  1S   3px       -0.000672  0.001072  0.000589  0.000077  0.000198 -0.000775
  1S   3py       -0.000552 -0.000304 -0.000017  0.000087 -0.000113  0.000263
  1S   1dz2       0.000037  0.000093 -0.000043 -0.000025  0.000091  0.000009
  1S   1dxz      -0.000028 -0.000092 -0.000012  0.000008 -0.000018  0.000023
  1S   1dyz       0.000055  0.000067 -0.000073 -0.000002 -0.000023 -0.000071
  1S   1dx2y2     0.000083 -0.000110 -0.000064 -0.000104  0.000025  0.000101
  1S   1dxy      -0.000064 -0.000024  0.000085 -0.000030 -0.000105  0.000003
  2S   1s         0.493897 -0.056360  0.247248 -0.431275 -0.247722  0.431024
  2S   2s        -0.010904  0.001244 -0.005399  0.009418  0.005396 -0.009389
  2S   3s         0.006222 -0.000710  0.002714 -0.004734 -0.002533  0.004407
  2S   4s        -0.005439  0.000621 -0.002483  0.004332  0.001437 -0.002500
  2S   1pz       -0.000075  0.000006 -0.000033  0.000037  0.000032 -0.000040
  2S   1px        0.000070 -0.000011 -0.000000 -0.000023 -0.000005  0.000028
  2S   1py       -0.000005 -0.000006 -0.000012 -0.000021  0.000010  0.000016
  2S   2pz       -0.000448  0.000034 -0.000183  0.000183  0.000190 -0.000241
  2S   2px        0.000402 -0.000066 -0.000013 -0.000137 -0.000022  0.000145
  2S   2py       -0.000021 -0.000033 -0.000091 -0.000118  0.000045  0.000106
  2S   3pz        0.001302 -0.000596  0.000523 -0.001116 -0.000558  0.000275
  2S   3px       -0.001013 -0.000415 -0.000335  0.000342 -0.000280 -0.000338
  2S   3py       -0.000211 -0.000888 -0.000345  0.000186 -0.000530 -0.000494
  2S   1dz2      -0.000015  0.000101 -0.000024  0.000043  0.000075 -0.000054
  2S   1dxz       0.000020  0.000021  0.000052 -0.000024  0.000007 -0.000036
  2S   1dyz      -0.000036  0.000119 -0.000039  0.000032  0.000029  0.000062
  2S   1dx2y2     0.000034 -0.000054  0.000085  0.000009 -0.000097  0.000031
  2S   1dxy      -0.000115 -0.000081 -0.000020  0.000123 -0.000011 -0.000109
  3S   1s         0.056362  0.493897  0.130127  0.479780  0.129665  0.479944
  3S   2s        -0.001244 -0.010904 -0.002842 -0.010477 -0.002824 -0.010454
  3S   3s         0.000710  0.006222  0.001428  0.005266  0.001326  0.004908
  3S   4s        -0.000621 -0.005439 -0.001307 -0.004819 -0.000752 -0.002784
  3S   1pz        0.000009  0.000041  0.000023  0.000032  0.000020  0.000032
  3S   1px        0.000009  0.000094  0.000003  0.000038  0.000006  0.000044
  3S   1py        0.000007  0.000005  0.000016 -0.000016  0.000013 -0.000013
  3S   2pz        0.000053  0.000249  0.000139  0.000154  0.000119  0.000202
  3S   2px        0.000050  0.000548  0.000005  0.000208  0.000032  0.000246
  3S   2py        0.000037  0.000021  0.000117 -0.000088  0.000070 -0.000088
  3S   3pz        0.000515 -0.000941 -0.000112 -0.000952 -0.000573 -0.000275
  3S   3px       -0.000485 -0.001371 -0.000311 -0.000862  0.000155 -0.000400
  3S   3py        0.000903 -0.000013  0.000282  0.000256 -0.000634  0.000337
  3S   1dz2       0.000083 -0.000014  0.000030 -0.000013 -0.000032 -0.000071
  3S   1dxz       0.000058 -0.000048 -0.000068 -0.000058 -0.000069 -0.000039
  3S   1dyz       0.000059 -0.000094 -0.000025 -0.000087 -0.000026  0.000008
  3S   1dx2y2    -0.000042  0.000029  0.000061 -0.000011  0.000072  0.000050
  3S   1dxy       0.000137  0.000063 -0.000020  0.000098 -0.000050  0.000117
  4S   1s        -0.493908  0.056366 -0.431294 -0.247253  0.431037  0.247664
  4S   2s         0.010904 -0.001244  0.009419  0.005399 -0.009389 -0.005395
  4S   3s        -0.006222  0.000710 -0.004734 -0.002714  0.004408  0.002532
  4S   4s         0.005439 -0.000621  0.004332  0.002483 -0.002500 -0.001436
  4S   1pz        0.000006  0.000002  0.000016  0.000020 -0.000014 -0.000017
  4S   1px       -0.000034 -0.000003  0.000005 -0.000023  0.000000  0.000021
  4S   1py       -0.000097  0.000013 -0.000045 -0.000017  0.000049  0.000021
  4S   2pz        0.000044  0.000012  0.000068  0.000114 -0.000101 -0.000108
  4S   2px       -0.000196 -0.000016  0.000038 -0.000151 -0.000006  0.000112
  4S   2py       -0.000568  0.000079 -0.000245 -0.000077  0.000283  0.000120
  4S   3pz       -0.000301  0.000468 -0.000608 -0.000235  0.000097  0.000442
  4S   3px        0.000313 -0.001031  0.000248 -0.000119  0.000348 -0.000689
  4S   3py        0.001605  0.000184  0.000984  0.000660 -0.000551  0.000011
  4S   1dz2      -0.000068 -0.000011 -0.000052 -0.000082 -0.000020  0.000013
  4S   1dxz      -0.000086  0.000054 -0.000110 -0.000015  0.000059  0.000023
  4S   1dyz      -0.000023  0.000061 -0.000021 -0.000059  0.000076  0.000099
  4S   1dx2y2     0.000003 -0.000103 -0.000037  0.000045  0.000030 -0.000070
  4S   1dxy      -0.000060 -0.000130 -0.000044  0.000006  0.000102 -0.000022
  5S   1s        -0.056367 -0.493929  0.479806 -0.130156  0.479928 -0.129641
  5S   2s         0.001244  0.010904 -0.010478  0.002842 -0.010454  0.002824
  5S   3s        -0.000710 -0.006222  0.005267 -0.001429  0.004907 -0.001326
  5S   4s         0.000621  0.005439 -0.004819  0.001307 -0.002784  0.000752
  5S   1pz       -0.000010 -0.000090  0.000052 -0.000014  0.000055 -0.000015
  5S   1px        0.000009  0.000017  0.000005  0.000024  0.000001  0.000020
  5S   1py       -0.000003 -0.000047  0.000005  0.000008  0.000010  0.000004
  5S   2pz       -0.000060 -0.000533  0.000269 -0.000071  0.000327 -0.000087
  5S   2px        0.000053  0.000094  0.000032  0.000160  0.000015  0.000108
  5S   2py       -0.000015 -0.000264  0.000039  0.000050  0.000038  0.000030
  5S   3pz        0.000189  0.001567 -0.001307  0.000357 -0.000545  0.000139
  5S   3px        0.001043 -0.000316  0.000085  0.000231 -0.000225 -0.000805
  5S   3py        0.000437  0.000459  0.000000  0.000091 -0.000044 -0.000297
  5S   1dz2       0.000005  0.000022 -0.000055  0.000015 -0.000069  0.000017
  5S   1dxz       0.000160 -0.000024  0.000009 -0.000015 -0.000048 -0.000060
  5S   1dyz       0.000060  0.000012 -0.000035  0.000004  0.000076 -0.000047
  5S   1dx2y2    -0.000036  0.000100 -0.000082  0.000086 -0.000059  0.000075
  5S   1dxy       0.000063  0.000071 -0.000099 -0.000050 -0.000079 -0.000049
  6S   1s         0.493926 -0.056364 -0.247233  0.431293  0.247702 -0.431044
  6S   2s        -0.010904  0.001244  0.005399 -0.009419 -0.005395  0.009389
  6S   3s         0.006222 -0.000710 -0.002714  0.004734  0.002533 -0.004408
  6S   4s        -0.005439  0.000621  0.002483 -0.004332 -0.001437  0.002500
  6S   1pz       -0.000006  0.000004  0.000003 -0.000026 -0.000003  0.000022
  6S   1px       -0.000087  0.000013  0.000007 -0.000037 -0.000012  0.000041
  6S   1py        0.000055 -0.000000 -0.000034  0.000018  0.000031 -0.000022
  6S   2pz       -0.000047  0.000023  0.000000 -0.000136 -0.000033  0.000148
  6S   2px       -0.000505  0.000078  0.000025 -0.000204 -0.000068  0.000226
  6S   2py        0.000324 -0.000002 -0.000203  0.000078  0.000182 -0.000132
  6S   3pz        0.000417  0.000400 -0.000413  0.000517 -0.000147 -0.000440
  6S   3px        0.001372  0.000374 -0.000531  0.000684 -0.000194 -0.000487
  6S   3py       -0.000842  0.001008  0.000228 -0.000815 -0.000782 -0.000056
  6S   1dz2       0.000061 -0.000027 -0.000001  0.000094 -0.000025  0.000001
  6S   1dxz      -0.000099 -0.000062  0.000060 -0.000095 -0.000038  0.000117
  6S   1dyz      -0.000035  0.000020  0.000064  0.000003 -0.000012 -0.000063
  6S   1dx2y2     0.000024 -0.000156 -0.000052  0.000014  0.000110 -0.000025
  6S   1dxy      -0.000030 -0.000070 -0.000047 -0.000023  0.000041  0.000051
  7S   1s         0.056364  0.493921 -0.130104 -0.479795 -0.129638 -0.479952
  7S   2s        -0.001244 -0.010904  0.002841  0.010478  0.002824  0.010454
  7S   3s         0.000710  0.006222 -0.001428 -0.005266 -0.001326 -0.004908
  7S   4s        -0.000621 -0.005439  0.001307  0.004819  0.000752  0.002784
  7S   1pz        0.000001  0.000041  0.000004 -0.000038  0.000002 -0.000037
  7S   1px       -0.000007 -0.000077 -0.000001  0.000024  0.000002  0.000030
  7S   1py       -0.000012 -0.000055  0.000028  0.000027  0.000025  0.000030
  7S   2pz        0.000004  0.000246  0.000043 -0.000200  0.000002 -0.000231
  7S   2px       -0.000038 -0.000444 -0.000015  0.000134  0.000008  0.000155
  7S   2py       -0.000072 -0.000324  0.000176  0.000129  0.000142  0.000177
  7S   3pz       -0.000711 -0.000778  0.000381  0.000865 -0.000358  0.000521
  7S   3px        0.000444  0.001012 -0.000208 -0.000482  0.000200 -0.000234
  7S   3py       -0.000783  0.001066 -0.000019 -0.000857 -0.000766 -0.000151
  7S   1dz2      -0.000081  0.000007  0.000033 -0.000007  0.000009  0.000075
  7S   1dxz       0.000103  0.000077  0.000007 -0.000122  0.000046 -0.000061
  7S   1dyz      -0.000016 -0.000040  0.000038  0.000015  0.000006 -0.000039
  7S   1dx2y2    -0.000110  0.000093 -0.000054 -0.000075 -0.000093 -0.000089
  7S   1dxy       0.000070  0.000000  0.000070 -0.000006  0.000056 -0.000062
                      6         7         8         9        10        11   
                 -88.08607 -88.08602  -7.73904  -7.73904  -7.73900  -7.73900
                   2.00000   2.00000   2.00000   2.00000   2.00000   2.00000
                  --------  --------  --------  --------  --------  --------
  0S   1s         0.351542  0.351542  0.044149 -0.145687  0.152455 -0.017346
  0S   2s        -0.007620 -0.007595  0.146905 -0.484776  0.507459 -0.057737
  0S   3s         0.003335  0.003192  0.008806 -0.029032  0.028134 -0.003207
  0S   4s        -0.002576 -0.001351 -0.005152  0.017043 -0.016189  0.001865
  0S   1pz        0.000022  0.000020 -0.000133  0.000438 -0.000384  0.000043
  0S   1px        0.000002  0.000007 -0.000084  0.000166 -0.000218  0.000005
  0S   1py       -0.000007 -0.000019  0.000140 -0.000504  0.000610 -0.000076
  0S   2pz        0.000104  0.000135 -0.000008  0.000019  0.000346 -0.000043
  0S   2px       -0.000003  0.000042  0.000146 -0.000573  0.000265 -0.000361
  0S   2py        0.000004 -0.000121 -0.000491  0.001571 -0.000886 -0.000015
  0S   3pz       -0.000410 -0.000239 -0.000031  0.000218 -0.001236  0.000139
  0S   3px       -0.000086 -0.000030  0.002276  0.002270 -0.001076 -0.000383
  0S   3py        0.000253  0.000089  0.002185 -0.003719  0.002904 -0.000527
  0S   1dz2       0.000010  0.000029  0.000057 -0.000196  0.000135 -0.000021
  0S   1dxz      -0.000005 -0.000044 -0.000153 -0.000050  0.000005 -0.000120
  0S   1dyz       0.000013  0.000123 -0.000058 -0.000003 -0.000072 -0.000040
  0S   1dx2y2    -0.000027  0.000002  0.000080  0.000103  0.000056  0.000244
  0S   1dxy      -0.000022  0.000000 -0.000140  0.000017 -0.000020 -0.000304
  1S   1s        -0.351514  0.351526  0.147417  0.044869 -0.119384 -0.096117
  1S   2s         0.007620 -0.007595  0.490533  0.149304 -0.397382 -0.319934
  1S   3s        -0.003335  0.003192  0.029353  0.008937 -0.022004 -0.017704
  1S   4s         0.002576 -0.001351 -0.017214 -0.005223  0.012668  0.010140
  1S   1pz        0.000017 -0.000026  0.000636  0.000207 -0.000543 -0.000447
  1S   1px        0.000001 -0.000008  0.000224  0.000037 -0.000227 -0.000159
  1S   1py       -0.000016  0.000010 -0.000175 -0.000042  0.000064  0.000043
  1S   2pz        0.000047 -0.000167 -0.001317 -0.000391  0.000775  0.000453
  1S   2px       -0.000013 -0.000048 -0.000807 -0.000273  0.000132  0.000495
  1S   2py       -0.000092  0.000067 -0.000672 -0.000197  0.000106 -0.000058
  1S   3pz       -0.000412  0.000192  0.003817 -0.000036 -0.002243 -0.002035
  1S   3px       -0.000087  0.000020  0.001285  0.003127 -0.001368 -0.000501
  1S   3py        0.000251 -0.000170  0.001765 -0.000471  0.000023 -0.000193
  1S   1dz2      -0.000003 -0.000092  0.000009  0.000034  0.000086 -0.000138
  1S   1dxz      -0.000021 -0.000024  0.000050  0.000013 -0.000064  0.000121
  1S   1dyz      -0.000005  0.000042 -0.000165  0.000050  0.000217 -0.000058
  1S   1dx2y2     0.000020 -0.000056 -0.000100 -0.000191 -0.000114  0.000242
  1S   1dxy      -0.000024  0.000064  0.000114 -0.000124 -0.000077  0.000147
  2S   1s        -0.351552  0.351552 -0.144720 -0.044355 -0.093508  0.120085
  2S   2s         0.007620 -0.007596 -0.481554 -0.147589 -0.311247  0.399711
  2S   3s        -0.003335  0.003192 -0.028861 -0.008850 -0.017268  0.022171
  2S   4s         0.002576 -0.001351  0.016957  0.005198  0.009958 -0.012781
  2S   1pz        0.000017 -0.000026 -0.000628 -0.000178 -0.000418  0.000550
  2S   1px        0.000009  0.000000  0.000059  0.000034  0.000113 -0.000130
  2S   1py       -0.000014  0.000012  0.000261  0.000109  0.000160 -0.000178
  2S   2pz        0.000048 -0.000166  0.001275  0.000405  0.000654 -0.000617
  2S   2px        0.000068 -0.000003 -0.001076 -0.000317 -0.000102  0.000394
  2S   2py       -0.000063  0.000083 -0.000013  0.000022  0.000086  0.000343
  2S   3pz       -0.000412  0.000192 -0.003045 -0.002161 -0.001686  0.002514
  2S   3px       -0.000085  0.000089  0.002982 -0.000536  0.000947 -0.000802
  2S   3py        0.000252 -0.000146  0.000871 -0.002231  0.000826 -0.000354
  2S   1dz2      -0.000003 -0.000092 -0.000029  0.000024  0.000117  0.000112
  2S   1dxz       0.000020 -0.000004 -0.000028 -0.000074 -0.000078  0.000073
  2S   1dyz       0.000010  0.000047  0.000115  0.000115  0.000232  0.000059
  2S   1dx2y2    -0.000020  0.000052  0.000020 -0.000182 -0.000142 -0.000159
  2S   1dxy       0.000024 -0.000068  0.000191 -0.000068 -0.000148 -0.000180
  3S   1s         0.351547  0.351552 -0.044693  0.144420 -0.021273 -0.150403
  3S   2s        -0.007620 -0.007596 -0.148714  0.480555 -0.070809 -0.500628
  3S   3s         0.003335  0.003192 -0.008913  0.028811 -0.003928 -0.027770
  3S   4s        -0.002576 -0.001351  0.005243 -0.016933  0.002252  0.016021
  3S   1pz        0.000019  0.000024  0.000187 -0.000542  0.000068  0.000562
  3S   1px       -0.000001  0.000011  0.000086 -0.000309  0.000066  0.000427
  3S   1py       -0.000014 -0.000012 -0.000056  0.000273 -0.000049 -0.000229
  3S   2pz        0.000070  0.000154 -0.000218  0.000760 -0.000282 -0.000638
  3S   2px       -0.000042  0.000064 -0.000467  0.001485  0.000002 -0.000699
  3S   2py       -0.000064 -0.000083  0.000018  0.000023 -0.000246  0.000243
  3S   3pz       -0.000411 -0.000211 -0.000905 -0.002588  0.000026  0.002321
  3S   3px       -0.000088  0.000004  0.001964 -0.003444  0.000472  0.002262
  3S   3py        0.000252  0.000147 -0.002300 -0.000583 -0.000525 -0.000685
  3S   1dz2      -0.000008 -0.000066  0.000022  0.000059  0.000076 -0.000084
  3S   1dxz       0.000009 -0.000073 -0.000113 -0.000065  0.000192  0.000022
  3S   1dyz      -0.000018  0.000016  0.000034 -0.000195  0.000130  0.000093
  3S   1dx2y2     0.000025  0.000035  0.000134  0.000055 -0.000165  0.000094
  3S   1dxy       0.000019  0.000082 -0.000159  0.000050  0.000286 -0.000045
  4S   1s        -0.351545  0.351541  0.145256  0.045641  0.122790  0.091638
  4S   2s         0.007620 -0.007595  0.483341  0.151871  0.408718  0.305024
  4S   3s        -0.003335  0.003192  0.028955  0.009086  0.022652  0.016911
  4S   4s         0.002576 -0.001351 -0.016992 -0.005352 -0.013034 -0.009743
  4S   1pz        0.000022 -0.000021  0.000472  0.000134  0.000355  0.000255
  4S   1px        0.000007 -0.000002  0.000009  0.000034 -0.000042 -0.000009
  4S   1py       -0.000007  0.000019 -0.000497 -0.000168 -0.000490 -0.000374
  4S   2pz        0.000095 -0.000140 -0.000194 -0.000074 -0.000271 -0.000368
  4S   2px        0.000043 -0.000016  0.000495  0.000179 -0.000079  0.000320
  4S   2py        0.000005  0.000121  0.001585  0.000482  0.000769  0.000437
  4S   3pz       -0.000411  0.000232  0.000400  0.001328  0.001349  0.000762
  4S   3px       -0.000085  0.000068 -0.000402 -0.002866 -0.000599  0.000121
  4S   3py        0.000253 -0.000089 -0.004317 -0.000340 -0.002254 -0.001909
  4S   1dz2      -0.000001 -0.000004  0.000116  0.000129  0.000068  0.000109
  4S   1dxz      -0.000019  0.000047  0.000169 -0.000026  0.000045  0.000042
  4S   1dyz      -0.000004  0.000114 -0.000062  0.000086 -0.000144  0.000098
  4S   1dx2y2     0.000022  0.000020  0.000002 -0.000159  0.000187 -0.000188
  4S   1dxy      -0.000024  0.000049  0.000073 -0.000083  0.000130 -0.000239
  5S   1s         0.351511  0.351524  0.046117 -0.147766 -0.152028  0.022449
  5S   2s        -0.007620 -0.007595  0.153457 -0.491695 -0.506041  0.074724
  5S   3s         0.003335  0.003192  0.009173 -0.029409 -0.028004  0.004128
  5S   4s        -0.002576 -0.001351 -0.005390  0.017224  0.016078 -0.002342
  5S   1pz        0.000016  0.000027 -0.000210  0.000675  0.000749 -0.000111
  5S   1px        0.000006  0.000003  0.000014  0.000065  0.000019 -0.000023
  5S   1py       -0.000016 -0.000010  0.000065 -0.000170 -0.000079  0.000005
  5S   2pz        0.000038  0.000172  0.000476 -0.001531 -0.000969  0.000138
  5S   2px        0.000032  0.000022 -0.000050  0.000254 -0.000017 -0.000329
  5S   2py       -0.000091 -0.000067  0.000212 -0.000656 -0.000058 -0.000110
  5S   3pz       -0.000412 -0.000184 -0.001281  0.004003  0.003288 -0.000472
  5S   3px       -0.000086 -0.000059 -0.002546 -0.001389 -0.000152 -0.000481
  5S   3py        0.000251  0.000170 -0.001418  0.001156  0.000062 -0.000185
  5S   1dz2       0.000013 -0.000093  0.000007 -0.000024  0.000010  0.000006
  5S   1dxz      -0.000006 -0.000022 -0.000062 -0.000053 -0.000011  0.000292
  5S   1dyz       0.000014  0.000064 -0.000060  0.000088  0.000148  0.000087
  5S   1dx2y2    -0.000025 -0.000053  0.000091  0.000188  0.000018 -0.000181
  5S   1dxy      -0.000021 -0.000044 -0.000202  0.000071  0.000057  0.000209
  6S   1s        -0.351517  0.351523 -0.147660 -0.045315  0.092364 -0.122763
  6S   2s         0.007620 -0.007595 -0.491343 -0.150788  0.307443 -0.408631
  6S   3s        -0.003335  0.003192 -0.029398 -0.009026  0.017010 -0.022605
  6S   4s         0.002576 -0.001351  0.017235  0.005292 -0.009791  0.012967
  6S   1pz        0.000021 -0.000021 -0.000474 -0.000160  0.000272 -0.000348
  6S   1px       -0.000001 -0.000010 -0.000297 -0.000108  0.000258 -0.000327
  6S   1py       -0.000010  0.000016  0.000417  0.000099 -0.000262  0.000377
  6S   2pz        0.000094 -0.000141  0.000222  0.000057 -0.000164  0.000444
  6S   2px       -0.000038 -0.000061  0.001398  0.000418 -0.000251  0.000606
  6S   2py       -0.000024  0.000105 -0.000916 -0.000305  0.000574 -0.000301
  6S   3pz       -0.000411  0.000231 -0.001147  0.000886  0.001109 -0.001141
  6S   3px       -0.000087 -0.000000 -0.003888  0.000271  0.001464 -0.001553
  6S   3py        0.000253 -0.000113  0.001710  0.003048 -0.000895  0.001837
  6S   1dz2      -0.000001 -0.000007 -0.000165  0.000043  0.000037 -0.000119
  6S   1dxz       0.000017 -0.000107  0.000102  0.000019  0.000084  0.000080
  6S   1dyz       0.000010  0.000059  0.000086  0.000156 -0.000145 -0.000012
  6S   1dx2y2    -0.000020  0.000054 -0.000002 -0.000131  0.000226  0.000223
  6S   1dxy       0.000026  0.000010  0.000083 -0.000111  0.000191  0.000094
  7S   1s         0.351524  0.351527 -0.045207  0.147179  0.017727  0.152229
  7S   2s        -0.007620 -0.007595 -0.150426  0.489741  0.059005  0.506710
  7S   3s         0.003335  0.003192 -0.009005  0.029315  0.003266  0.028037
  7S   4s        -0.002576 -0.001351  0.005279 -0.017198 -0.001899 -0.016115
  7S   1pz        0.000019  0.000023  0.000152 -0.000561 -0.000077 -0.000561
  7S   1px        0.000009 -0.000001 -0.000016  0.000085  0.000030  0.000199
  7S   1py       -0.000010 -0.000016 -0.000152  0.000403  0.000037  0.000462
  7S   2pz        0.000071  0.000153 -0.000243  0.000738 -0.000113  0.000680
  7S   2px        0.000072  0.000000  0.000371 -0.001180  0.000055 -0.000407
  7S   2py       -0.000023 -0.000105  0.000269 -0.000951 -0.000343 -0.000558
  7S   3pz       -0.000411 -0.000212  0.002211 -0.001598 -0.000537 -0.002226
  7S   3px       -0.000085 -0.000092 -0.001703  0.002590  0.000294  0.001276
  7S   3py        0.000253  0.000112  0.001526  0.003175 -0.000145  0.002066
  7S   1dz2      -0.000008 -0.000064 -0.000058  0.000037  0.000088  0.000066
  7S   1dxz       0.000006  0.000050 -0.000148  0.000110 -0.000206  0.000123
  7S   1dyz      -0.000020  0.000059 -0.000022 -0.000148 -0.000042 -0.000051
  7S   1dx2y2     0.000024  0.000087  0.000072  0.000120  0.000249 -0.000047
  7S   1dxy       0.000021  0.000016 -0.000156 -0.000054 -0.000238 -0.000041
                     12        13        14        15        16        17   
                  -7.73896  -7.73894  -7.73894  -7.73886  -5.75541  -5.75540
                   2.00000   2.00000   2.00000   2.00000   2.00000   2.00000
                  --------  --------  --------  --------  --------  --------
  0S   1s        -0.108229 -0.152034 -0.019193 -0.108747  0.000015  0.000028
  0S   2s        -0.360331 -0.506150 -0.063899 -0.362157  0.000067  0.000120
  0S   3s        -0.018550 -0.027178 -0.003431 -0.018210 -0.000222 -0.000322
  0S   4s         0.008888  0.010728  0.001339  0.005540  0.000289  0.000382
  0S   1pz        0.000246  0.000419  0.000052  0.000279  0.011756  0.023989
  0S   1px        0.000171  0.000234 -0.000049  0.000178  0.249259  0.528402
  0S   1py       -0.000484 -0.000631 -0.000107 -0.000505  0.072323  0.156181
  0S   2pz       -0.000382 -0.000351 -0.000048 -0.000415 -0.000610 -0.001269
  0S   2px       -0.000065 -0.000291 -0.000429 -0.000143 -0.013661 -0.028749
  0S   2py        0.000173  0.000991 -0.000014  0.000405 -0.003918 -0.008434
  0S   3pz        0.001076  0.000727  0.000113  0.000773  0.000020  0.000141
  0S   3px        0.000155  0.000176  0.002466  0.000108  0.002856  0.005422
  0S   3py       -0.000480 -0.001513  0.000685 -0.000269  0.000654  0.001365
  0S   1dz2       0.000153 -0.000095 -0.000016 -0.000108 -0.000050 -0.000060
  0S   1dxz      -0.000050  0.000173 -0.000259  0.000143 -0.000139 -0.000087
  0S   1dyz       0.000126 -0.000361 -0.000148 -0.000402 -0.000055 -0.000047
  0S   1dx2y2     0.000014  0.000079  0.000083  0.000002  0.000196  0.000192
  0S   1dxy       0.000002  0.000088 -0.000072  0.000006 -0.000231 -0.000216
  1S   1s         0.108118 -0.120643  0.092985 -0.107762 -0.000011  0.000045
  1S   2s         0.359962 -0.401646  0.309567 -0.358880 -0.000056  0.000214
  1S   3s         0.018525 -0.021560  0.016613 -0.018036  0.000294 -0.000918
  1S   4s        -0.008823  0.008479 -0.006528  0.005467 -0.000403  0.001101
  1S   1pz        0.000524 -0.000565  0.000475 -0.000553  0.123248  0.114069
  1S   1px        0.000224 -0.000268  0.000117 -0.000230 -0.253606 -0.396204
  1S   1py       -0.000013  0.000095 -0.000040  0.000032  0.094892  0.140564
  1S   2pz       -0.000337  0.000874 -0.000477  0.000537 -0.006793 -0.006072
  1S   2px       -0.000045  0.000150 -0.000567  0.000160  0.013865  0.021685
  1S   2py        0.000254  0.000156  0.000047 -0.000191 -0.005279 -0.007437
  1S   3pz        0.000911 -0.001795  0.000154 -0.000602  0.001486  0.000707
  1S   3px        0.000119  0.000853  0.002164 -0.000044 -0.002664 -0.004299
  1S   3py       -0.000731 -0.000456 -0.000690  0.000549  0.001343  0.000562
  1S   1dz2       0.000111  0.000164 -0.000176  0.000296 -0.000147 -0.000072
  1S   1dxz       0.000046  0.000042  0.000074  0.000073  0.000107  0.000109
  1S   1dyz       0.000049 -0.000059  0.000163 -0.000128 -0.000234  0.000057
  1S   1dx2y2     0.000136  0.000064 -0.000262  0.000190  0.000207  0.000325
  1S   1dxy      -0.000073 -0.000344 -0.000028 -0.000216  0.000192  0.000032
  2S   1s         0.111280 -0.092767 -0.121331 -0.109333  0.000003 -0.000045
  2S   2s         0.370489 -0.308838 -0.403936 -0.364110  0.000015 -0.000227
  2S   3s         0.019115 -0.016601 -0.021696 -0.018319 -0.000038  0.001120
  2S   4s        -0.009177  0.006575  0.008567  0.005586  0.000051 -0.001438
  2S   1pz        0.000533 -0.000419 -0.000601 -0.000556 -0.091159 -0.081186
  2S   1px       -0.000176  0.000132  0.000110  0.000167 -0.103018 -0.168067
  2S   1py       -0.000160  0.000211  0.000168  0.000175 -0.176673 -0.275723
  2S   2pz       -0.000354  0.000725  0.000681  0.000544  0.004999  0.004258
  2S   2px       -0.000108 -0.000119 -0.000464 -0.000019  0.005649  0.009462
  2S   2py        0.000236  0.000125 -0.000376 -0.000258  0.009712  0.014926
  2S   3pz        0.000988 -0.001739 -0.000597 -0.000614 -0.001054 -0.000347
  2S   3px        0.000334 -0.000642  0.001119 -0.000286 -0.001164 -0.002832
  2S   3py       -0.000648 -0.001359  0.001611  0.000479 -0.002078 -0.002373
  2S   1dz2       0.000114  0.000109  0.000213  0.000298  0.000115  0.000062
  2S   1dxz      -0.000067 -0.000047  0.000151  0.000016 -0.000040  0.000144
  2S   1dyz       0.000013 -0.000046 -0.000092 -0.000144  0.000176 -0.000031
  2S   1dx2y2    -0.000049 -0.000334 -0.000010 -0.000174 -0.000204 -0.000105
  2S   1dxy       0.000143  0.000062  0.000275  0.000235 -0.000192 -0.000351
  3S   1s        -0.111360  0.020998 -0.151662 -0.109397 -0.000011  0.000062
  3S   2s        -0.370753  0.069905 -0.504912 -0.364322 -0.000058  0.000309
  3S   3s        -0.019135  0.003765 -0.027126 -0.018334  0.000295 -0.001450
  3S   4s         0.009190 -0.001495  0.010731  0.005597 -0.000411  0.001876
  3S   1pz        0.000421 -0.000039  0.000609  0.000446  0.130559  0.070188
  3S   1px        0.000373 -0.000084  0.000439  0.000375 -0.081948  0.036046
  3S   1py       -0.000155  0.000100 -0.000246 -0.000171  0.206884  0.006230
  3S   2pz       -0.000367  0.000322 -0.000693 -0.000493 -0.007168 -0.003860
  3S   2px       -0.000045 -0.000004 -0.000803 -0.000236  0.004589 -0.002389
  3S   2py        0.000237  0.000292  0.000256  0.000256 -0.011336 -0.000482
  3S   3pz        0.001037 -0.001561  0.001011  0.000677  0.001530  0.000739
  3S   3px        0.000096  0.000578  0.001161 -0.000012 -0.001280  0.001879
  3S   3py       -0.000653 -0.001963 -0.000721 -0.000482  0.002291  0.000658
  3S   1dz2      -0.000040  0.000117  0.000229  0.000216  0.000070 -0.000083
  3S   1dxz      -0.000135 -0.000177  0.000135  0.000237  0.000155  0.000179
  3S   1dyz      -0.000070  0.000023  0.000013 -0.000038  0.000032  0.000303
  3S   1dx2y2     0.000002  0.000226 -0.000157 -0.000118 -0.000203  0.000036
  3S   1dxy       0.000126 -0.000067 -0.000295 -0.000278  0.000305 -0.000135
  4S   1s         0.108065  0.123455 -0.091393 -0.108672  0.000030 -0.000055
  4S   2s         0.359785  0.411007 -0.304267 -0.361909  0.000138 -0.000259
  4S   3s         0.018525  0.022069 -0.016334 -0.018200 -0.000496  0.001041
  4S   4s        -0.008873 -0.008730  0.006428  0.005541  0.000643 -0.001303
  4S   1pz        0.000291  0.000401 -0.000258 -0.000324 -0.158719  0.147914
  4S   1px       -0.000053 -0.000069 -0.000038  0.000046  0.317710 -0.260140
  4S   1py       -0.000485 -0.000501  0.000404  0.000507 -0.086439  0.039295
  4S   2pz       -0.000375 -0.000275  0.000397  0.000437  0.008634 -0.007942
  4S   2px       -0.000092 -0.000086 -0.000382  0.000037 -0.017440  0.014260
  4S   2py        0.000174  0.000871 -0.000483 -0.000406  0.004626 -0.001866
  4S   3pz        0.001044  0.000117 -0.001293 -0.000754 -0.001577  0.001064
  4S   3px        0.000291  0.001227  0.001872 -0.000203  0.003717 -0.003056
  4S   3py       -0.000480 -0.001641  0.000179  0.000269 -0.000580 -0.000515
  4S   1dz2      -0.000090 -0.000119 -0.000121  0.000004 -0.000154  0.000195
  4S   1dxz      -0.000123  0.000247  0.000024 -0.000162 -0.000049  0.000189
  4S   1dyz      -0.000118  0.000183 -0.000289 -0.000370 -0.000178  0.000052
  4S   1dx2y2    -0.000050  0.000079  0.000146 -0.000059  0.000270 -0.000048
  4S   1dxy      -0.000048  0.000199 -0.000098 -0.000164  0.000247 -0.000058
  5S   1s        -0.107296  0.150468  0.021721 -0.107406 -0.000014 -0.000001
  5S   2s        -0.357227  0.500941  0.072315 -0.357695 -0.000065 -0.000008
  5S   3s        -0.018369  0.026882  0.003880 -0.017969  0.000234  0.000100
  5S   4s         0.008732 -0.010551 -0.001528  0.005435 -0.000287 -0.000117
  5S   1pz        0.000565 -0.000779 -0.000113  0.000597 -0.021559  0.003598
  5S   1px       -0.000000 -0.000018 -0.000081  0.000006 -0.419652  0.386168
  5S   1py       -0.000014  0.000104 -0.000013 -0.000033 -0.148683  0.137436
  5S   2pz       -0.000320  0.001075  0.000151 -0.000553  0.001212 -0.000170
  5S   2px       -0.000095  0.000011 -0.000391 -0.000066  0.022902 -0.020952
  5S   2py        0.000255  0.000108 -0.000125  0.000193  0.008167 -0.007420
  5S   3pz        0.000863 -0.001624 -0.000213  0.000563 -0.000350 -0.000025
  5S   3px        0.000254 -0.000344  0.002396  0.000207 -0.004339  0.003659
  5S   3py       -0.000736 -0.000056  0.000864 -0.000549 -0.001737  0.001159
  5S   1dz2      -0.000132 -0.000200 -0.000029  0.000298 -0.000018 -0.000006
  5S   1dxz       0.000011 -0.000081 -0.000033  0.000070 -0.000281  0.000121
  5S   1dyz      -0.000016  0.000235  0.000029 -0.000203 -0.000135  0.000019
  5S   1dx2y2    -0.000121 -0.000193 -0.000229  0.000183  0.000165 -0.000061
  5S   1dxy      -0.000092 -0.000217  0.000216  0.000154 -0.000273  0.000035
  6S   1s         0.105482  0.093447  0.122061 -0.107343 -0.000019  0.000062
  6S   2s         0.351187  0.311106  0.406366 -0.357484 -0.000081  0.000298
  6S   3s         0.018050  0.016686  0.021803 -0.017964  0.000222 -0.001270
  6S   4s        -0.008586 -0.006576 -0.008566  0.005450 -0.000246  0.001578
  6S   1pz        0.000288  0.000317  0.000362 -0.000324  0.192769 -0.134522
  6S   1px        0.000336  0.000289  0.000315 -0.000348  0.227798 -0.156269
  6S   1py       -0.000336 -0.000241 -0.000422  0.000361  0.352733 -0.148124
  6S   2pz       -0.000364 -0.000159 -0.000470  0.000433 -0.010511  0.007189
  6S   2px       -0.000021 -0.000294 -0.000703  0.000214 -0.012475  0.008813
  6S   2py        0.000191  0.000661  0.000329 -0.000338 -0.019242  0.007866
  6S   3pz        0.001019 -0.000256  0.001305 -0.000735  0.002024 -0.000795
  6S   3px        0.000033 -0.000352  0.001500  0.000017  0.002569 -0.002677
  6S   3py       -0.000511 -0.002233  0.000437  0.000351  0.003717 -0.000901
  6S   1dz2      -0.000088 -0.000155  0.000080  0.000014  0.000094 -0.000231
  6S   1dxz       0.000173 -0.000243 -0.000247  0.000354 -0.000134  0.000205
  6S   1dyz      -0.000013 -0.000075  0.000224 -0.000181  0.000142  0.000126
  6S   1dx2y2    -0.000052  0.000188  0.000130 -0.000179 -0.000323  0.000006
  6S   1dxy      -0.000038  0.000082 -0.000147 -0.000027 -0.000237 -0.000006
  7S   1s        -0.106042 -0.020719  0.152639 -0.107579  0.000008 -0.000072
  7S   2s        -0.353050 -0.068980  0.508167 -0.358268  0.000046 -0.000356
  7S   3s        -0.018158 -0.003693  0.027266 -0.018009 -0.000297  0.001605
  7S   4s         0.008649  0.001457 -0.010739  0.005473  0.000366 -0.002079
  7S   1pz        0.000397  0.000126 -0.000596  0.000434 -0.200355 -0.139228
  7S   1px       -0.000191 -0.000050  0.000191 -0.000187  0.104463  0.068111
  7S   1py       -0.000342 -0.000002  0.000493 -0.000366 -0.304734 -0.061551
  7S   2pz       -0.000345  0.000125  0.000745 -0.000481  0.010953  0.007616
  7S   2px       -0.000124 -0.000055 -0.000497  0.000023 -0.005624 -0.004158
  7S   2py        0.000194  0.000409 -0.000624  0.000342  0.016724  0.003156
  7S   3pz        0.000961 -0.001220 -0.001374  0.000667 -0.002238 -0.001450
  7S   3px        0.000366  0.000662  0.000639  0.000308  0.000812  0.002339
  7S   3py       -0.000510 -0.002140  0.000743 -0.000357 -0.003494 -0.000049
  7S   1dz2      -0.000034  0.000178 -0.000186  0.000207 -0.000075  0.000087
  7S   1dxz       0.000155  0.000081  0.000153 -0.000170  0.000163  0.000378
  7S   1dyz       0.000029  0.000106  0.000113 -0.000179  0.000086 -0.000127
  7S   1dx2y2     0.000122 -0.000106  0.000304 -0.000290 -0.000304  0.000101
  7S   1dxy      -0.000026  0.000197  0.000152 -0.000055  0.000291 -0.000034
                     18        19        20        21        22        23   
                  -5.75540  -5.75536  -5.75536  -5.75533  -5.75533  -5.75532
                   2.00000   2.00000   2.00000   2.00000   2.00000   2.00000
                  --------  --------  --------  --------  --------  --------
  0S   1s        -0.000060 -0.000098 -0.000074 -0.000077 -0.000100  0.000018
  0S   2s        -0.000301 -0.000430 -0.000346 -0.000287 -0.000367  0.000068
  0S   3s         0.001431  0.001286  0.001330  0.000262  0.000306 -0.000040
  0S   4s        -0.001844 -0.001281 -0.001505  0.000501  0.001016  0.000031
  0S   1pz       -0.029767 -0.066389 -0.039182 -0.061886 -0.074715  0.017703
  0S   1px        0.076899 -0.385340  0.267526 -0.284054  0.200955  0.357972
  0S   1py        0.093551 -0.019237  0.181434  0.004193  0.212862  0.104873
  0S   2pz        0.001409  0.003542  0.002062  0.003418  0.004166 -0.000963
  0S   2px       -0.004041  0.020620 -0.014073  0.015203 -0.010641 -0.019261
  0S   2py       -0.005470  0.000595 -0.010082 -0.000372 -0.011587 -0.005650
  0S   3pz        0.000595 -0.000358 -0.000047 -0.000648 -0.000738  0.000239
  0S   3px        0.000295 -0.003078  0.001422 -0.002971  0.002044  0.004756
  0S   3py        0.002220  0.001054  0.002469 -0.000007  0.002095  0.001479
  0S   1dz2       0.000385  0.000257  0.000264  0.000124  0.000204  0.000000
  0S   1dxz      -0.000030 -0.000162  0.000065 -0.000031 -0.000098 -0.000162
  0S   1dyz      -0.000002  0.000057  0.000115  0.000149  0.000226 -0.000066
  0S   1dx2y2     0.000022  0.000157 -0.000227  0.000132 -0.000150 -0.000172
  0S   1dxy      -0.000066 -0.000316  0.000141 -0.000188  0.000149  0.000214
  1S   1s         0.000058 -0.000109  0.000108 -0.000094 -0.000018  0.000012
  1S   2s         0.000283 -0.000472  0.000462 -0.000326 -0.000059  0.000038
  1S   3s        -0.001239  0.001345 -0.001245 -0.000019 -0.000045  0.000049
  1S   4s         0.001509 -0.001109  0.000883  0.001447  0.000335 -0.000300
  1S   1pz       -0.150555  0.034953 -0.245510  0.148200 -0.164017 -0.169159
  1S   1px        0.172144  0.279544  0.200330  0.031589  0.449130  0.339869
  1S   1py       -0.070407 -0.093418 -0.083033 -0.006706 -0.164533 -0.125608
  1S   2pz        0.008369 -0.002275  0.013446 -0.008113  0.008722  0.009120
  1S   2px       -0.009178 -0.015080 -0.010405 -0.001729 -0.023970 -0.018305
  1S   2py        0.004106  0.004810  0.004546  0.000484  0.008813  0.006738
  1S   3pz       -0.002005  0.001297 -0.002514  0.001291 -0.001705 -0.002085
  1S   3px        0.001056  0.002362  0.000563  0.000122  0.004455  0.004507
  1S   3py       -0.001740 -0.000033 -0.001022 -0.000301 -0.001718 -0.001574
  1S   1dz2       0.000098 -0.000179  0.000023 -0.000176 -0.000244 -0.000161
  1S   1dxz      -0.000036  0.000077  0.000063 -0.000055  0.000194  0.000215
  1S   1dyz       0.000265 -0.000221 -0.000005  0.000016 -0.000148 -0.000081
  1S   1dx2y2     0.000153 -0.000075  0.000433 -0.000151  0.000182  0.000087
  1S   1dxy      -0.000107  0.000276 -0.000018  0.000129  0.000080 -0.000098
  2S   1s         0.000046  0.000115 -0.000068  0.000013 -0.000108 -0.000005
  2S   2s         0.000224  0.000502 -0.000308  0.000038 -0.000390 -0.000013
  2S   3s        -0.000962 -0.001483  0.001090  0.000148  0.000223 -0.000083
  2S   4s         0.001236  0.001355 -0.001142 -0.000403  0.001202  0.000128
  2S   1pz       -0.206257 -0.271869 -0.037849 -0.189291  0.090330  0.164521
  2S   1px       -0.169740 -0.119141 -0.160791 -0.194482 -0.114993  0.183811
  2S   1py       -0.300623 -0.223397 -0.261875 -0.332789 -0.183824  0.313869
  2S   2pz        0.011350  0.014910  0.001715  0.010102 -0.005102 -0.008842
  2S   2px        0.008994  0.006032  0.008791  0.010421  0.006147 -0.009931
  2S   2py        0.016451  0.011886  0.013915  0.017725  0.009927 -0.016896
  2S   3pz       -0.002487 -0.003004  0.000559 -0.001758  0.000882  0.002076
  2S   3px       -0.000820  0.000121 -0.001772 -0.002056 -0.000986  0.002487
  2S   3py       -0.003398 -0.001685 -0.001534 -0.003183 -0.001765  0.004063
  2S   1dz2       0.000131  0.000010 -0.000142 -0.000150 -0.000262  0.000190
  2S   1dxz      -0.000128 -0.000066  0.000088 -0.000035  0.000049  0.000105
  2S   1dyz       0.000267 -0.000005 -0.000232 -0.000229 -0.000067  0.000200
  2S   1dx2y2    -0.000144  0.000038  0.000230  0.000087  0.000161  0.000060
  2S   1dxy       0.000031  0.000437 -0.000050  0.000173 -0.000161 -0.000092
  3S   1s         0.000003  0.000090  0.000100  0.000103 -0.000035 -0.000020
  3S   2s         0.000014  0.000393  0.000443  0.000380 -0.000109 -0.000075
  3S   3s        -0.000053 -0.001153 -0.001418 -0.000319 -0.000185  0.000072
  3S   4s         0.000042  0.000985  0.001388 -0.000890  0.000890  0.000184
  3S   1pz        0.274609  0.301848 -0.015483 -0.013618 -0.271135  0.186364
  3S   1px       -0.140790 -0.040465  0.136517  0.161390  0.084393 -0.127068
  3S   1py        0.393982  0.274426 -0.199374 -0.240974 -0.308303  0.312105
  3S   2pz       -0.014938 -0.016293  0.000563  0.000480  0.014567 -0.010008
  3S   2px        0.007647  0.001793 -0.007695 -0.008747 -0.004535  0.006863
  3S   2py       -0.021448 -0.014600  0.010579  0.012944  0.016407 -0.016818
  3S   3pz        0.002726  0.002550  0.000569 -0.000034 -0.002716  0.002491
  3S   3px       -0.001357  0.000749  0.002154  0.001547  0.001135 -0.001577
  3S   3py        0.003969  0.001949 -0.001052 -0.002277 -0.003107  0.004002
  3S   1dz2       0.000071 -0.000025  0.000023  0.000158  0.000108 -0.000235
  3S   1dxz       0.000145 -0.000023  0.000239  0.000256  0.000019 -0.000055
  3S   1dyz       0.000100  0.000107  0.000272  0.000154  0.000121 -0.000140
  3S   1dx2y2    -0.000121  0.000107 -0.000141 -0.000103 -0.000050 -0.000022
  3S   1dxy       0.000215 -0.000390 -0.000063 -0.000071  0.000294 -0.000130
  4S   1s        -0.000035 -0.000113  0.000048  0.000103  0.000050 -0.000037
  4S   2s        -0.000190 -0.000493  0.000227  0.000373  0.000192 -0.000144
  4S   3s         0.001069  0.001493 -0.000937 -0.000216 -0.000239  0.000162
  4S   4s        -0.001388 -0.001452  0.001012 -0.001302 -0.000035  0.000022
  4S   1pz       -0.130035  0.185935  0.122830 -0.017661 -0.188085  0.148720
  4S   1px        0.335141 -0.246825 -0.345595 -0.164052  0.337530 -0.270862
  4S   1py       -0.158803 -0.033363  0.178642  0.196531 -0.065383  0.056002
  4S   2pz        0.007160 -0.009952 -0.006503  0.001147  0.010108 -0.008037
  4S   2px       -0.018033  0.013226  0.018288  0.008796 -0.018051  0.014595
  4S   2py        0.008931  0.002291 -0.009820 -0.010720  0.003417 -0.002990
  4S   3pz       -0.001780  0.001310  0.000926 -0.000135 -0.002078  0.001958
  4S   3px        0.002691 -0.002069 -0.002159 -0.001749  0.003778 -0.003700
  4S   3py       -0.002560 -0.001658  0.002109  0.001860 -0.000741  0.000912
  4S   1dz2       0.000205  0.000151 -0.000165 -0.000083 -0.000096  0.000129
  4S   1dxz       0.000188  0.000262 -0.000146 -0.000247  0.000055 -0.000126
  4S   1dyz      -0.000073 -0.000029 -0.000179 -0.000271  0.000019  0.000014
  4S   1dx2y2     0.000142  0.000188  0.000236  0.000025 -0.000151  0.000071
  4S   1dxy       0.000129  0.000296  0.000156 -0.000005 -0.000260  0.000206
  5S   1s         0.000080 -0.000081 -0.000125  0.000035  0.000077 -0.000016
  5S   2s         0.000383 -0.000351 -0.000529  0.000110  0.000263 -0.000060
  5S   3s        -0.001640  0.001026  0.001375  0.000150  0.000107  0.000056
  5S   4s         0.001930 -0.000781 -0.000900 -0.000955 -0.001379  0.000053
  5S   1pz        0.095688 -0.104134 -0.170299  0.055472  0.125939 -0.025299
  5S   1px       -0.021566  0.308102 -0.225523 -0.451443  0.229149 -0.272754
  5S   1py       -0.012392  0.118628 -0.066167 -0.168518  0.067315 -0.094963
  5S   2pz       -0.005530  0.005907  0.009575 -0.003040 -0.006868  0.001377
  5S   2px        0.001304 -0.016400  0.011884  0.024083 -0.012288  0.014734
  5S   2py        0.000315 -0.006185  0.003634  0.009080 -0.003476  0.005121
  5S   3pz        0.001909 -0.001577 -0.002373  0.000345  0.000972 -0.000262
  5S   3px       -0.000706  0.002153 -0.001157 -0.004712  0.002651 -0.003922
  5S   3py        0.001245  0.000361 -0.000903 -0.001940  0.000512 -0.001349
  5S   1dz2       0.000104 -0.000084 -0.000130  0.000105  0.000157 -0.000012
  5S   1dxz      -0.000093 -0.000204  0.000186  0.000356 -0.000150  0.000212
  5S   1dyz       0.000214 -0.000107  0.000028  0.000086 -0.000125  0.000085
  5S   1dx2y2     0.000285 -0.000035 -0.000396 -0.000005  0.000130  0.000043
  5S   1dxy       0.000202 -0.000340 -0.000062  0.000136  0.000065 -0.000087
  6S   1s        -0.000039  0.000086 -0.000100 -0.000024  0.000096  0.000016
  6S   2s        -0.000201  0.000386 -0.000426 -0.000088  0.000334  0.000060
  6S   3s         0.001014 -0.001280  0.001135  0.000096 -0.000020 -0.000067
  6S   4s        -0.001294  0.001207 -0.000878  0.000369 -0.001455  0.000066
  6S   1pz       -0.111370  0.047676  0.226726 -0.154873 -0.096770 -0.116379
  6S   1px       -0.134234  0.067447  0.255974 -0.190303 -0.092171 -0.135805
  6S   1py       -0.302635  0.290528  0.227660 -0.384134  0.076570 -0.198178
  6S   2pz        0.006111 -0.002447 -0.012150  0.008226  0.005379  0.006299
  6S   2px        0.006969 -0.003198 -0.013930  0.010126  0.004987  0.007336
  6S   2py        0.016523 -0.015700 -0.011834  0.020603 -0.004207  0.010697
  6S   3pz       -0.001458  0.000274  0.001726 -0.001786 -0.001080 -0.001680
  6S   3px       -0.000245 -0.000597  0.002730 -0.002154 -0.000743 -0.001924
  6S   3py       -0.003242  0.002635  0.001039 -0.004257  0.000464 -0.002904
  6S   1dz2       0.000201 -0.000193  0.000102 -0.000049 -0.000081 -0.000126
  6S   1dxz      -0.000118  0.000293 -0.000124 -0.000253  0.000251 -0.000106
  6S   1dyz      -0.000128 -0.000006 -0.000174 -0.000005 -0.000079 -0.000093
  6S   1dx2y2     0.000095  0.000106  0.000396 -0.000244 -0.000117 -0.000164
  6S   1dxy       0.000060  0.000163  0.000177 -0.000104 -0.000025 -0.000006
  7S   1s        -0.000004  0.000071  0.000108 -0.000081  0.000070  0.000016
  7S   2s        -0.000024  0.000318  0.000468 -0.000283  0.000263  0.000061
  7S   3s         0.000182 -0.001080 -0.001322 -0.000015 -0.000280 -0.000080
  7S   4s        -0.000191  0.001076  0.001142  0.001232 -0.000574 -0.000186
  7S   1pz        0.235410 -0.105393  0.319957 -0.231491 -0.110680 -0.154731
  7S   1px       -0.122548  0.062658 -0.153125  0.103734  0.070611  0.083423
  7S   1py        0.347545 -0.304140  0.222656 -0.114404 -0.342498 -0.265625
  7S   2pz       -0.012750  0.005402 -0.017283  0.012560  0.005750  0.008308
  7S   2px        0.006587 -0.003053  0.008459 -0.005520 -0.003723 -0.004477
  7S   2py       -0.018886  0.016365 -0.011588  0.006050  0.018423  0.014343
  7S   3pz        0.002257 -0.000238  0.002928 -0.002475 -0.001237 -0.002184
  7S   3px       -0.000966 -0.000451 -0.002065  0.000921  0.000729  0.001122
  7S   3py        0.003403 -0.002497  0.001083 -0.001605 -0.003626 -0.003532
  7S   1dz2       0.000057  0.000035 -0.000048  0.000036  0.000195  0.000219
  7S   1dxz      -0.000036 -0.000357 -0.000069  0.000072 -0.000288 -0.000134
  7S   1dyz      -0.000022  0.000029  0.000096  0.000101  0.000004  0.000076
  7S   1dx2y2     0.000126  0.000032 -0.000396  0.000277  0.000015  0.000107
  7S   1dxy      -0.000087 -0.000187  0.000165 -0.000028 -0.000084  0.000010
                     24        25        26        27        28        29   
                  -5.75523  -5.75522  -5.75522  -5.75520  -5.75520  -5.75517
                   2.00000   2.00000   2.00000   2.00000   2.00000   2.00000
                  --------  --------  --------  --------  --------  --------
  0S   1s        -0.000263 -0.000066 -0.000284 -0.000285  0.000177  0.000328
  0S   2s        -0.001026 -0.000256 -0.001158 -0.001182  0.000750  0.001306
  0S   3s         0.001132  0.000292  0.001709  0.002135 -0.001494 -0.001977
  0S   4s         0.000101 -0.000256 -0.001477 -0.003683  0.002554  0.005090
  0S   1pz       -0.189367 -0.049815 -0.192052 -0.189649  0.112131  0.229407
  0S   1px       -0.041934 -0.184126 -0.096650 -0.201020 -0.068837  0.134859
  0S   1py        0.328312  0.019611  0.318042  0.274024 -0.236018 -0.361801
  0S   2pz        0.010230  0.002684  0.010332  0.010167 -0.006015 -0.012285
  0S   2px        0.002293  0.009734  0.005239  0.010711  0.003431 -0.007188
  0S   2py       -0.017598 -0.001099 -0.017234 -0.015028  0.012833  0.019450
  0S   3pz       -0.002196 -0.000594 -0.002296 -0.002404  0.001456  0.002937
  0S   3px        0.000052 -0.002920 -0.001026 -0.003500 -0.001615  0.002195
  0S   3py        0.002897 -0.000184  0.003319  0.003524 -0.003665 -0.005067
  0S   1dz2      -0.000041  0.000010 -0.000092 -0.000023  0.000040 -0.000121
  0S   1dxz      -0.000146  0.000240 -0.000013  0.000108  0.000097 -0.000036
  0S   1dyz       0.000212  0.000129  0.000081 -0.000018  0.000096  0.000061
  0S   1dx2y2    -0.000096  0.000106 -0.000059 -0.000030  0.000016  0.000018
  0S   1dxy      -0.000020 -0.000158 -0.000068 -0.000020 -0.000001  0.000052
  1S   1s        -0.000353  0.000211 -0.000197  0.000223  0.000287 -0.000298
  1S   2s        -0.001389  0.000863 -0.000804  0.000930  0.001192 -0.001180
  1S   3s         0.001641 -0.001293  0.001184 -0.001781 -0.002211  0.001748
  1S   4s        -0.000880  0.001444 -0.001294  0.003508  0.004308 -0.005089
  1S   1pz        0.455544 -0.216708  0.293360 -0.223165 -0.392152  0.372281
  1S   1px        0.192511 -0.208770 -0.012789 -0.213929 -0.041006  0.167933
  1S   1py       -0.050517  0.063159  0.017382  0.064341 -0.003133 -0.047629
  1S   2pz       -0.024489  0.011764 -0.015789  0.012219  0.021190 -0.019950
  1S   2px       -0.010314  0.011180  0.000552  0.011451  0.002467 -0.008956
  1S   2py        0.002771 -0.003318 -0.000936 -0.003291  0.000240  0.002532
  1S   3pz        0.004535 -0.002184  0.003536 -0.002975 -0.005778  0.005241
  1S   3px        0.001823 -0.002898 -0.000798 -0.003742 -0.000126  0.002648
  1S   3py       -0.001088  0.001047  0.000297  0.000894 -0.000508 -0.000424
  1S   1dz2      -0.000116  0.000096  0.000151 -0.000033 -0.000097  0.000040
  1S   1dxz       0.000052 -0.000189 -0.000120 -0.000073  0.000007  0.000042
  1S   1dyz       0.000181 -0.000060  0.000085  0.000014  0.000062 -0.000149
  1S   1dx2y2    -0.000059 -0.000012  0.000030  0.000031 -0.000059 -0.000091
  1S   1dxy       0.000137  0.000092  0.000152  0.000113 -0.000051 -0.000002
  2S   1s        -0.000216 -0.000275 -0.000210 -0.000257 -0.000243 -0.000111
  2S   2s        -0.000832 -0.001104 -0.000855 -0.001067 -0.001016 -0.000451
  2S   3s         0.000832  0.001500  0.001227  0.001994  0.001924  0.000741
  2S   4s         0.000178 -0.000991 -0.001040 -0.003585 -0.003326 -0.001798
  2S   1pz        0.299886  0.296955  0.301353  0.366326  0.246669  0.099234
  2S   1px       -0.056704 -0.149166 -0.020359 -0.014179 -0.130638 -0.080441
  2S   1py       -0.073835 -0.221528 -0.008520  0.007715 -0.192149 -0.125697
  2S   2pz       -0.016074 -0.016079 -0.016228 -0.019785 -0.013505 -0.005418
  2S   2px        0.002991  0.008014  0.001198  0.001033  0.007121  0.004260
  2S   2py        0.004030  0.011850  0.000532 -0.000257  0.010188  0.006585
  2S   3pz        0.002844  0.002821  0.003467  0.005422  0.003182  0.001142
  2S   3px       -0.000017 -0.001596  0.000225  0.000002 -0.002228 -0.001533
  2S   3py       -0.000727 -0.003044  0.000353  0.000913 -0.003010 -0.002227
  2S   1dz2      -0.000071 -0.000182  0.000124  0.000110  0.000022 -0.000046
  2S   1dxz      -0.000054 -0.000224  0.000007  0.000061 -0.000070 -0.000042
  2S   1dyz       0.000135 -0.000037  0.000139  0.000005 -0.000034 -0.000105
  2S   1dx2y2     0.000152 -0.000031  0.000146  0.000096 -0.000086 -0.000050
  2S   1dxy      -0.000123 -0.000009 -0.000026  0.000031  0.000012  0.000026
  3S   1s        -0.000176 -0.000376  0.000009  0.000284 -0.000221 -0.000205
  3S   2s        -0.000672 -0.001509  0.000028  0.001185 -0.000924 -0.000822
  3S   3s         0.000649  0.002011  0.000027 -0.002225  0.001746  0.001310
  3S   4s         0.000155 -0.001368 -0.000138  0.004013 -0.003069 -0.003429
  3S   1pz       -0.180701 -0.394622  0.099950  0.352936 -0.149160 -0.161082
  3S   1px       -0.154649 -0.299608 -0.037522  0.181507 -0.205464 -0.186975
  3S   1py        0.097709  0.150270  0.122739 -0.008211  0.185595  0.157385
  3S   2pz        0.009721  0.021266 -0.005287 -0.018977  0.008197  0.008743
  3S   2px        0.008228  0.016180  0.002005 -0.010068  0.011199  0.010016
  3S   2py       -0.005276 -0.008101 -0.006489  0.000574 -0.009823 -0.008297
  3S   3pz       -0.001709 -0.004269  0.001524  0.005227 -0.001625 -0.001910
  3S   3px       -0.001171 -0.002737 -0.000739  0.002522 -0.003173 -0.003000
  3S   3py        0.001260  0.001733  0.002072  0.000608  0.003027  0.002622
  3S   1dz2      -0.000155 -0.000103 -0.000245 -0.000128 -0.000051 -0.000039
  3S   1dxz      -0.000050  0.000039  0.000059 -0.000004  0.000103  0.000015
  3S   1dyz       0.000015  0.000084 -0.000118 -0.000005 -0.000027 -0.000126
  3S   1dx2y2     0.000079  0.000154 -0.000121 -0.000073 -0.000067 -0.000044
  3S   1dxy       0.000114  0.000098 -0.000116  0.000031 -0.000028 -0.000044
  4S   1s        -0.000144 -0.000290  0.000219  0.000248  0.000214  0.000378
  4S   2s        -0.000548 -0.001163  0.000882  0.001032  0.000900  0.001512
  4S   3s         0.000487  0.001578 -0.001206 -0.001889 -0.001728 -0.002360
  4S   4s         0.000415 -0.001042  0.000639  0.003262  0.002868  0.006001
  4S   1pz        0.116612  0.256044 -0.113297 -0.228650 -0.104339 -0.290703
  4S   1px        0.004057 -0.085715 -0.116962  0.116505 -0.107048  0.008712
  4S   1py       -0.178641 -0.302063  0.296290  0.230614  0.275365  0.427247
  4S   2pz       -0.006297 -0.013757  0.006171  0.012222  0.005702  0.015581
  4S   2px       -0.000253  0.004537  0.006155 -0.006161  0.005505 -0.000481
  4S   2py        0.009531  0.016348 -0.015954 -0.012683 -0.014978 -0.022983
  4S   3pz        0.001257  0.003127 -0.001031 -0.003321 -0.001062 -0.003892
  4S   3px        0.000231 -0.001239 -0.002089  0.002436 -0.002002  0.000416
  4S   3py       -0.001367 -0.002767  0.003149  0.002937  0.004108  0.006136
  4S   1dz2      -0.000047  0.000014  0.000221 -0.000056  0.000092 -0.000117
  4S   1dxz       0.000062 -0.000119 -0.000179  0.000102 -0.000054 -0.000089
  4S   1dyz       0.000156  0.000112 -0.000070  0.000022  0.000081  0.000082
  4S   1dx2y2    -0.000017 -0.000054  0.000063  0.000074 -0.000005  0.000024
  4S   1dxy       0.000087  0.000208  0.000056 -0.000009  0.000037 -0.000001
  5S   1s        -0.000175 -0.000087  0.000389 -0.000254  0.000278 -0.000251
  5S   2s        -0.000667 -0.000344  0.001564 -0.001056  0.001153 -0.000998
  5S   3s         0.000596  0.000424 -0.002131  0.001973 -0.002118  0.001545
  5S   4s         0.000235 -0.000283  0.001845 -0.003636  0.004015 -0.004328
  5S   1pz       -0.254145 -0.122164  0.528569 -0.330977  0.365520 -0.341563
  5S   1px        0.026245 -0.142398 -0.021498  0.106165  0.110499  0.048236
  5S   1py        0.037844 -0.038091 -0.061653  0.070494  0.003335  0.055438
  5S   2pz        0.013590  0.006562 -0.028503  0.017998 -0.019850  0.018326
[...]
     19      -0.000054   0.000006  -0.000001  -0.000315   0.000217  -0.000249
     20      -0.000001  -0.000001   0.000025  -0.000646  -0.000249  -0.000173
     21      -0.000009  -0.000011  -0.000000  -0.000011  -0.000063  -0.000031
     22      -0.000011  -0.000009  -0.000000  -0.000063  -0.000083  -0.000053
     23      -0.000000  -0.000000   0.000002  -0.000031  -0.000053  -0.000001
                 18         19         20         21         22         23    
      0      -0.000007   0.000010   0.000004  -0.000104   0.000048   0.000056
      1       0.000010  -0.000009  -0.000005   0.000048   0.000008  -0.000021
      2       0.000004  -0.000005   0.000000   0.000056  -0.000021   0.000001
      3       0.000011   0.000039   0.000027   0.000027   0.000187   0.000565
      4       0.000039  -0.000082  -0.000074   0.000187   0.000225  -0.000340
      5       0.000027  -0.000074  -0.000025   0.000565  -0.000340  -0.000688
      6      -0.000009   0.000004   0.000005  -0.000017  -0.000003   0.000008
      7       0.000004  -0.000000  -0.000002  -0.000003   0.000002   0.000001
      8       0.000005  -0.000002  -0.000001   0.000008   0.000001  -0.000001
      9      -0.000020   0.000002   0.000000  -0.000011  -0.000005  -0.000000
     10       0.000002   0.000002  -0.000000  -0.000005  -0.000000  -0.000000
     11       0.000000  -0.000000   0.000002  -0.000000  -0.000000   0.000001
     12      -0.000127  -0.000054  -0.000001  -0.000009  -0.000011  -0.000000
     13      -0.000054   0.000006  -0.000001  -0.000011  -0.000009  -0.000000
     14      -0.000001  -0.000001   0.000025  -0.000000  -0.000000   0.000002
     15      -0.000479  -0.000315  -0.000646  -0.000011  -0.000063  -0.000031
     16      -0.000315   0.000217  -0.000249  -0.000063  -0.000083  -0.000053
     17      -0.000646  -0.000249  -0.000173  -0.000031  -0.000053  -0.000001
     18       0.000294   0.000313   0.000612   0.000338   0.000001   0.000000
     19       0.000313   0.000975   0.000386   0.000001  -0.001110  -0.000056
     20       0.000612   0.000386  -0.000165   0.000000  -0.000056   0.000336
     21       0.000338   0.000001   0.000000  -0.000212  -0.000154  -0.000598
     22       0.000001  -0.001110  -0.000056  -0.000154   0.000968   0.000470
     23       0.000000  -0.000056   0.000336  -0.000598   0.000470   0.000349

done   (      0.0 sec)
Dipol derivatives                                ... done   (      0.2 sec)

-------
TIMINGS
-------

Total SCF Hessian time: 0 days 0 hours 0 min 27 sec 
                   F(y)            G[Q(x)]           CPSCF         Total
Table01         0.5  0.02         0.8  0.03        14.2  0.51        27.6 
Table01a        0.5  0.02,        0.8, 0.03,       14.2  0.51        27.6 
Table01b        0.5   1.7,        0.8,  3.0,       14.2  51.4        27.6 

Writing the Hessian file to the disk             ... done


Maximum memory used throughout the entire calculation: 135.3 MB

-----------------------
VIBRATIONAL FREQUENCIES
-----------------------

Scaling factor for frequencies =  1.000000000  (already applied!)

   0:         0.00 cm**-1
   1:         0.00 cm**-1
   2:         0.00 cm**-1
   3:         0.00 cm**-1
   4:         0.00 cm**-1
   5:         0.00 cm**-1
   6:        64.59 cm**-1
   7:        64.84 cm**-1
   8:       132.41 cm**-1
   9:       132.47 cm**-1
  10:       179.69 cm**-1
  11:       179.77 cm**-1
  12:       203.75 cm**-1
  13:       221.54 cm**-1
  14:       235.57 cm**-1
  15:       235.69 cm**-1
  16:       287.40 cm**-1
  17:       345.28 cm**-1
  18:       345.29 cm**-1
  19:       426.77 cm**-1
  20:       426.88 cm**-1
  21:       441.42 cm**-1
  22:       441.48 cm**-1
  23:       452.17 cm**-1


------------
NORMAL MODES
------------

These modes are the Cartesian displacements weighted by the diagonal matrix
M(i,i)=1/sqrt(m[i]) where m[i] is the mass of the displaced atom
Thus, these vectors are normalized but *not* orthogonal

                  0          1          2          3          4          5    
      0       0.000000   0.000000   0.000000   0.000000   0.000000   0.000000
      1       0.000000   0.000000   0.000000   0.000000   0.000000   0.000000
      2       0.000000   0.000000   0.000000   0.000000   0.000000   0.000000
      3       0.000000   0.000000   0.000000   0.000000   0.000000   0.000000
      4       0.000000   0.000000   0.000000   0.000000   0.000000   0.000000
      5       0.000000   0.000000   0.000000   0.000000   0.000000   0.000000
      6       0.000000   0.000000   0.000000   0.000000   0.000000   0.000000
      7       0.000000   0.000000   0.000000   0.000000   0.000000   0.000000
      8       0.000000   0.000000   0.000000   0.000000   0.000000   0.000000
      9       0.000000   0.000000   0.000000   0.000000   0.000000   0.000000
     10       0.000000   0.000000   0.000000   0.000000   0.000000   0.000000
     11       0.000000   0.000000   0.000000   0.000000   0.000000   0.000000
     12       0.000000   0.000000   0.000000   0.000000   0.000000   0.000000
     13       0.000000   0.000000   0.000000   0.000000   0.000000   0.000000
     14       0.000000   0.000000   0.000000   0.000000   0.000000   0.000000
     15       0.000000   0.000000   0.000000   0.000000   0.000000   0.000000
     16       0.000000   0.000000   0.000000   0.000000   0.000000   0.000000
     17       0.000000   0.000000   0.000000   0.000000   0.000000   0.000000
     18       0.000000   0.000000   0.000000   0.000000   0.000000   0.000000
     19       0.000000   0.000000   0.000000   0.000000   0.000000   0.000000
     20       0.000000   0.000000   0.000000   0.000000   0.000000   0.000000
     21       0.000000   0.000000   0.000000   0.000000   0.000000   0.000000
     22       0.000000   0.000000   0.000000   0.000000   0.000000   0.000000
     23       0.000000   0.000000   0.000000   0.000000   0.000000   0.000000
                  6          7          8          9         10         11    
      0       0.031992  -0.056153  -0.275193   0.142369  -0.154448   0.210741
      1       0.056099   0.079479   0.240281   0.305540  -0.104397   0.031500
      2       0.203066   0.441761  -0.042166  -0.028830  -0.309750  -0.272038
      3      -0.070533   0.085410  -0.319548  -0.004761  -0.243772  -0.058113
      4      -0.425154   0.174895   0.008145   0.146770   0.064163  -0.384418
      5       0.135876  -0.084216  -0.113283   0.337230   0.113304   0.148803
      6      -0.344622   0.129511  -0.023526   0.259462   0.301917   0.109346
      7       0.248729  -0.161639   0.167787   0.169908  -0.235905   0.235217
      8      -0.158179   0.047496   0.293793  -0.197074   0.163170   0.098150
      9       0.125604   0.238045   0.217325   0.269310   0.077433  -0.204924
     10       0.083887   0.289681   0.117707  -0.205900   0.331218  -0.045578
     11      -0.149411  -0.253520   0.272746   0.003755  -0.060954   0.293769
     12       0.184143  -0.137074   0.263921   0.078125  -0.250220  -0.168782
     13       0.095514  -0.025242   0.151738  -0.358918   0.084842  -0.065349
     14       0.402614  -0.160792  -0.147737   0.011390   0.083435  -0.375587
     15       0.019607   0.168932   0.202219  -0.198378  -0.072939   0.283073
     16      -0.206648  -0.408917  -0.028353  -0.144478  -0.344177  -0.182142
     17       0.043321   0.096023  -0.305680  -0.234339   0.083025   0.076459
     18       0.230602  -0.078045   0.078860  -0.332658   0.191689   0.116828
     19       0.081282   0.011723  -0.327715   0.042795   0.085857   0.214949
     20      -0.380387   0.197051  -0.032291  -0.151317  -0.359604   0.127759
     21      -0.176795  -0.350625  -0.144059  -0.213468   0.150341  -0.288169
     22       0.066291   0.040020  -0.329589   0.044283   0.118398   0.195821
     23      -0.096900  -0.283803   0.074618   0.259184   0.287374  -0.097315
                 12         13         14         15         16         17    
      0      -0.069820  -0.100911   0.036245   0.167882  -0.332900   0.392917
      1       0.186389   0.279408   0.125783  -0.409159  -0.118748   0.071395
      2       0.292139   0.192249   0.044997  -0.187219  -0.003234   0.040495
      3       0.126351  -0.163220   0.066741   0.240810   0.307548  -0.422191
      4       0.330512  -0.280961   0.201073   0.280075  -0.112936   0.154586
      5       0.011933  -0.136979   0.162397   0.207772  -0.133708   0.159939
      6      -0.306877   0.308940   0.327292  -0.242989   0.162923  -0.067775
      7       0.174177  -0.113081  -0.127282   0.003325   0.280635  -0.103705
      8       0.008583  -0.134757  -0.233441   0.106599   0.138407   0.083946
      9      -0.282267  -0.335994  -0.452497  -0.134211   0.101393   0.141388
     10      -0.179456  -0.119541  -0.129771   0.033352  -0.278768  -0.252027
     11       0.111810  -0.003255  -0.083984   0.023989  -0.192420  -0.073209
     12      -0.175401   0.164221   0.049378   0.215210  -0.306692  -0.414671
     13      -0.188338   0.282413   0.243790   0.354704   0.113501   0.135069
     14      -0.242009   0.137988   0.085994   0.085217   0.133904   0.192300
     15       0.117207   0.102205   0.043041   0.138511   0.332970   0.369696
     16      -0.327953  -0.278537   0.107362  -0.323897   0.118882   0.139712
     17      -0.062055  -0.191781   0.081306  -0.326114   0.003250  -0.069887
     18       0.258812  -0.305090   0.356600  -0.258228  -0.164262  -0.108181
     19      -0.034077   0.112491  -0.204257   0.049805  -0.281714   0.011520
     20      -0.238620   0.133666  -0.112961   0.031769  -0.138292  -0.104279
     21       0.331996   0.329849  -0.426800  -0.126984  -0.100980   0.108817
     22       0.038746   0.117808  -0.216698   0.011795   0.279146  -0.156550
     23       0.118219   0.002870   0.055691   0.057987   0.192093  -0.229305
                 18         19         20         21         22         23    
      0       0.232728  -0.276107   0.271861  -0.104977   0.221550  -0.096970
      1       0.179486   0.157646   0.251247   0.380983   0.032652   0.278784
      2      -0.049238  -0.091309  -0.050494  -0.204835   0.024958  -0.200542
      3       0.023390   0.360853   0.070622   0.256253  -0.013201   0.122252
      4      -0.014370  -0.098923  -0.082290  -0.071106  -0.024835  -0.058966
      5      -0.147469   0.014576  -0.312323   0.188036  -0.376535   0.328986
      6      -0.215146  -0.098009  -0.192703  -0.161359   0.002434  -0.063225
      7      -0.372021  -0.235729  -0.221444  -0.212456   0.055034  -0.125551
      8      -0.206728  -0.275240   0.148146   0.265795   0.323427   0.327216
      9      -0.069293   0.122378   0.208163   0.034764  -0.281174  -0.186072
     10       0.288918   0.108898  -0.300712  -0.161644   0.145470   0.120729
     11       0.270741   0.288440  -0.076646  -0.154135  -0.313509  -0.275747
     12       0.063808  -0.317583  -0.146668   0.170121   0.091998  -0.005228
     13      -0.130148  -0.030113   0.294626   0.183411  -0.338355  -0.275638
     14       0.040543   0.197845  -0.033258  -0.217350   0.137017   0.218253
     15       0.265336   0.203144  -0.315855   0.026762   0.206086  -0.017107
     16       0.083892   0.054498  -0.123527  -0.019190   0.076700   0.059401
     17       0.106845  -0.255856  -0.163035   0.446227  -0.049233  -0.344112
     18      -0.208840   0.054334   0.268325  -0.267128  -0.081610   0.173928
     19      -0.392039   0.364705   0.007750   0.105155   0.307013  -0.210905
     20      -0.173738   0.063011   0.198077  -0.245153  -0.084218   0.219574
     21      -0.091983  -0.049010  -0.163746   0.045565  -0.146082   0.072423
     22       0.356283  -0.320982   0.174350  -0.205153  -0.253680   0.212145
     23       0.159043   0.058534   0.289533  -0.078585   0.338093  -0.273629


-----------
IR SPECTRUM
-----------

 Mode    freq (cm**-1)   T**2         TX         TY         TZ
-------------------------------------------------------------------
   6:        64.59    0.000012  (  0.001907  -0.002322  -0.001832)
   7:        64.84    0.000003  ( -0.000098   0.001258   0.001021)
   8:       132.41    0.000014  ( -0.002298   0.001431   0.002601)
   9:       132.47    0.000017  ( -0.002537  -0.002871  -0.001614)
  10:       179.69    5.077315  ( -1.891806   0.828404   0.901184)
  11:       179.77    5.082260  (  1.158093   1.746263   0.831653)
  12:       203.75    0.000023  ( -0.004611  -0.001387  -0.000267)
  13:       221.54    3.731986  ( -0.335463   0.996199  -1.620814)
  14:       235.57    0.000115  (  0.001173  -0.004391   0.009692)
  15:       235.69    0.000010  ( -0.002145   0.001013   0.002080)
  16:       287.40    0.000010  ( -0.001040  -0.002855  -0.001076)
  17:       345.28    0.000003  ( -0.001658   0.000512   0.000236)
  18:       345.29    0.000004  ( -0.002053   0.000430  -0.000287)
  19:       426.77    0.000019  ( -0.004277  -0.000107   0.000921)
  20:       426.88    0.000165  ( -0.008108   0.008535   0.005156)
  21:       441.42    3.034501  (  0.680414  -1.299375  -0.939767)
  22:       441.48    3.031718  (  1.573672   0.735139   0.121838)
  23:       452.17    0.000173  (  0.005558  -0.010091  -0.006370)

The first frequency considered to be a vibration is 6
The total number of vibrations considered is 18


--------------------------
THERMOCHEMISTRY AT 298.15K
--------------------------

Temperature         ... 298.15 K
Pressure            ... 1.00 atm
Total Mass          ... 256.48 AMU

Throughout the following assumptions are being made:
  (1) The electronic state is orbitally nondegenerate
  (2) There are no thermally accessible electronically excited states
  (3) Hindered rotations indicated by low frequency modes are not
      treated as such but are treated as vibrations and this may
      cause some error
  (4) All equations used are the standard statistical mechanics
      equations for an ideal gas
  (5) All vibrations are strictly harmonic

freq.      64.59  E(vib)   ...       0.50 
freq.      64.84  E(vib)   ...       0.50 
freq.     132.41  E(vib)   ...       0.42 
freq.     132.47  E(vib)   ...       0.42 
freq.     179.69  E(vib)   ...       0.37 
freq.     179.77  E(vib)   ...       0.37 
freq.     203.75  E(vib)   ...       0.35 
freq.     221.54  E(vib)   ...       0.33 
freq.     235.57  E(vib)   ...       0.32 
freq.     235.69  E(vib)   ...       0.32 
freq.     287.40  E(vib)   ...       0.27 
freq.     345.28  E(vib)   ...       0.23 
freq.     345.29  E(vib)   ...       0.23 
freq.     426.77  E(vib)   ...       0.18 
freq.     426.88  E(vib)   ...       0.18 
freq.     441.42  E(vib)   ...       0.17 
freq.     441.48  E(vib)   ...       0.17 
freq.     452.17  E(vib)   ...       0.16 

------------
INNER ENERGY
------------

The inner energy is: U= E(el) + E(ZPE) + E(vib) + E(rot) + E(trans)
    E(el)   - is the total energy from the electronic structure calculation
              = E(kin-el) + E(nuc-el) + E(el-el) + E(nuc-nuc)
    E(ZPE)  - the the zero temperature vibrational energy from the frequency calculation
    E(vib)  - the the finite temperature correction to E(ZPE) due to population
              of excited vibrational states
    E(rot)  - is the rotational thermal energy
    E(trans)- is the translational thermal energy

Summary of contributions to the inner energy U:
Electronic energy                ...  -3184.05696518 Eh
Zero point energy                ...      0.01097397 Eh       6.89 kcal/mol
Thermal vibrational correction   ...      0.00878280 Eh       5.51 kcal/mol
Thermal rotational correction    ...      0.00141627 Eh       0.89 kcal/mol
Thermal translational correction ...      0.00141627 Eh       0.89 kcal/mol
-----------------------------------------------------------------------
Total thermal energy                  -3184.03437587 Eh


Summary of corrections to the electronic energy:
(perhaps to be used in another calculation)
Total thermal correction                  0.01161534 Eh       7.29 kcal/mol
Non-thermal (ZPE) correction              0.01097397 Eh       6.89 kcal/mol
-----------------------------------------------------------------------
Total correction                          0.02258931 Eh      14.17 kcal/mol


--------
ENTHALPY
--------

The enthalpy is H = U + kB*T
                kB is Boltzmann's constant
Total free energy                 ...  -3184.03437587 Eh 
Thermal Enthalpy correction       ...      0.00094421 Eh       0.59 kcal/mol
-----------------------------------------------------------------------
Total Enthalpy                    ...  -3184.03343166 Eh


Note: Only C1 symmetry has been detected, increase convergence thresholds 
      if your molecule has a higher symmetry. Symmetry factor of 1.0 is   
      used for the rotational entropy correction. 
 

Note: Rotational entropy computed according to Herzberg 
Infrared and Raman Spectra, Chapter V,1, Van Nostrand Reinhold, 1945 
Point Group:  C1, Symmetry Number:   1  
Rotational constants in cm-1:     0.020798     0.020789     0.011315 

Vibrational entropy computed according to the QRRHO of S. Grimme
Chem.Eur.J. 2012 18 9955


-------
ENTROPY
-------

The entropy contributions are T*S = T*(S(el)+S(vib)+S(rot)+S(trans))
     S(el)   - electronic entropy
     S(vib)  - vibrational entropy
     S(rot)  - rotational entropy
     S(trans)- translational entropy
The entropies will be listed as mutliplied by the temperature to get
units of energy

Electronic entropy                ...      0.00000000 Eh      0.00 kcal/mol
Vibrational entropy               ...      0.01566890 Eh      9.83 kcal/mol
Rotational entropy                ...      0.01528343 Eh      9.59 kcal/mol
Translational entropy             ...      0.02020520 Eh     12.68 kcal/mol
-----------------------------------------------------------------------
Final entropy term                ...      0.05115754 Eh     32.10 kcal/mol

In case the symmetry of your molecule has not been determined correctly
or in case you have a reason to use a different symmetry number we print 
out the resulting rotational entropy values for sn=1,12 :
 --------------------------------------------------------
|  sn= 1 | S(rot)=       0.01528343 Eh      9.59 kcal/mol|
|  sn= 2 | S(rot)=       0.01462897 Eh      9.18 kcal/mol|
|  sn= 3 | S(rot)=       0.01424614 Eh      8.94 kcal/mol|
|  sn= 4 | S(rot)=       0.01397452 Eh      8.77 kcal/mol|
|  sn= 5 | S(rot)=       0.01376383 Eh      8.64 kcal/mol|
|  sn= 6 | S(rot)=       0.01359169 Eh      8.53 kcal/mol|
|  sn= 7 | S(rot)=       0.01344614 Eh      8.44 kcal/mol|
|  sn= 8 | S(rot)=       0.01332006 Eh      8.36 kcal/mol|
|  sn= 9 | S(rot)=       0.01320885 Eh      8.29 kcal/mol|
|  sn=10 | S(rot)=       0.01310937 Eh      8.23 kcal/mol|
|  sn=11 | S(rot)=       0.01301938 Eh      8.17 kcal/mol|
|  sn=12 | S(rot)=       0.01293723 Eh      8.12 kcal/mol|
 --------------------------------------------------------


-------------------
GIBBS FREE ENERGY
-------------------

The Gibbs free energy is G = H - T*S

Total enthalpy                    ...  -3184.03343166 Eh 
Total entropy correction          ...     -0.05115754 Eh    -32.10 kcal/mol
-----------------------------------------------------------------------
Final Gibbs free energy         ...  -3184.08458920 Eh

For completeness - the Gibbs free energy minus the electronic energy
G-E(el)                           ...     -0.02762402 Eh    -17.33 kcal/mol


Timings for individual modules:

Sum of individual times         ...      102.459 sec (=   1.708 min)
GTO integral calculation        ...        5.749 sec (=   0.096 min)   5.6 %
SCF iterations                  ...       51.870 sec (=   0.865 min)  50.6 %
SCF Gradient evaluation         ...       16.658 sec (=   0.278 min)  16.3 %
Geometry relaxation             ...        0.311 sec (=   0.005 min)   0.3 %
Analytical frequency calculation...       27.870 sec (=   0.464 min)  27.2 %
                             ****ORCA TERMINATED NORMALLY****
TOTAL RUN TIME: 0 days 0 hours 1 minutes 43 seconds 596 msec
