
                                 *****************
                                 * O   R   C   A *
                                 *****************

           --- An Ab Initio, DFT and Semiempirical electronic structure package ---

                  #######################################################
                  #                        -***-                        #
                  #          Department of theory and spectroscopy      #
                  #               Directorship: Frank Neese             #
                  #        Max Planck Institute fuer Kohlenforschung    #
                  #                Kaiser Wilhelm Platz 1               #
                  #                 D-45470 Muelheim/Ruhr               #
                  #                      Germany                        #
                  #                                                     #
                  #                  All rights reserved                #
                  #                        -***-                        #
                  #######################################################


                         Program Version 4.2.1 -  RELEASE  -


 With contributions from (in alphabetic order):
   Daniel Aravena         : Magnetic Suceptibility
   Michael Atanasov       : Ab Initio Ligand Field Theory (pilot matlab implementation)
   Alexander A. Auer      : GIAO ZORA, VPT2
   Ute Becker             : Parallelization
   Giovanni Bistoni       : ED, misc. LED, open-shell LED, HFLD
   Martin Brehm           : Molecular dynamics
   Dmytro Bykov           : SCF Hessian
   Vijay G. Chilkuri      : MRCI spin determinant printing, contributions to CSF-ICE
   Dipayan Datta          : RHF DLPNO-CCSD density
   Achintya Kumar Dutta   : EOM-CC, STEOM-CC
   Dmitry Ganyushin       : Spin-Orbit,Spin-Spin,Magnetic field MRCI
   Miquel Garcia          : C-PCM Hessian, Gaussian charge scheme
   Yang Guo               : DLPNO-NEVPT2, CIM, IAO-localization
   Andreas Hansen         : Spin unrestricted coupled pair/coupled cluster methods
   Benjamin Helmich-Paris : CASSCF linear response (MC-RPA)
   Lee Huntington         : MR-EOM, pCC
   Robert Izsak           : Overlap fitted RIJCOSX, COSX-SCS-MP3, EOM
   Christian Kollmar      : KDIIS, OOCD, Brueckner-CCSD(T), CCSD density
   Simone Kossmann        : Meta GGA functionals, TD-DFT gradient, OOMP2, MP2 Hessian
   Martin Krupicka        : AUTO-CI
   Lucas Lang             : DCDCAS
   Dagmar Lenk            : GEPOL surface, SMD
   Dimitrios Liakos       : Extrapolation schemes; Compound Job, initial MDCI parallelization
   Dimitrios Manganas     : Further ROCIS development; embedding schemes
   Dimitrios Pantazis     : SARC Basis sets
   Taras Petrenko         : DFT Hessian,TD-DFT gradient, ASA, ECA, R-Raman, ABS, FL, XAS/XES, NRVS
   Peter Pinski           : DLPNO-MP2, DLPNO-MP2 Gradient
   Christoph Reimann      : Effective Core Potentials
   Marius Retegan         : Local ZFS, SOC
   Christoph Riplinger    : Optimizer, TS searches, QM/MM, DLPNO-CCSD(T), (RO)-DLPNO pert. Triples
   Tobias Risthaus        : Range-separated hybrids, TD-DFT gradient, RPA, STAB
   Michael Roemelt        : Original ROCIS implementation
   Masaaki Saitow         : Open-shell DLPNO-CCSD energy and density
   Barbara Sandhoefer     : DKH picture change effects
   Avijit Sen             : IP-ROCIS
   Kantharuban Sivalingam : CASSCF convergence, NEVPT2, FIC-MRCI
   Bernardo de Souza      : ESD, SOC TD-DFT
   Georgi Stoychev        : AutoAux, RI-MP2 NMR
   Willem Van den Heuvel  : Paramagnetic NMR
   Boris Wezisla          : Elementary symmetry handling
   Frank Wennmohs         : Technical directorship


 We gratefully acknowledge several colleagues who have allowed us to
 interface, adapt or use parts of their codes:
   Stefan Grimme, W. Hujo, H. Kruse,             : VdW corrections, initial TS optimization,
                  C. Bannwarth                     DFT functionals, gCP, sTDA/sTD-DF
   Ed Valeev, F. Pavosevic, A. Kumar             : LibInt (2-el integral package), F12 methods
   Garnet Chan, S. Sharma, J. Yang, R. Olivares  : DMRG
   Ulf Ekstrom                                   : XCFun DFT Library
   Mihaly Kallay                                 : mrcc  (arbitrary order and MRCC methods)
   Andreas Klamt, Michael Diedenhofen            : otool_cosmo (COSMO solvation model)
   Jiri Pittner, Ondrej Demel                    : Mk-CCSD
   Frank Weinhold                                : gennbo (NPA and NBO analysis)
   Christopher J. Cramer and Donald G. Truhlar   : smd solvation model
   Lars Goerigk                                  : TD-DFT with DH, B97 family of functionals
   V. Asgeirsson, H. Jonsson                     : NEB implementation
   FAccTs GmbH                                   : IRC, NEB, NEB-TS, Multilevel, MM, QM/MM, CI optimization
   S Lehtola, MJT Oliveira, MAL Marques          : LibXC Library


 Your calculation uses the libint2 library for the computation of 2-el integrals
 For citations please refer to: http://libint.valeyev.net

 Your ORCA version has been built with support for libXC version: 4.2.3
 For citations please refer to: https://tddft.org/programs/libxc/

 This ORCA versions uses:
   CBLAS   interface :  Fast vector & matrix operations
   LAPACKE interface :  Fast linear algebra routines
   SCALAPACK package :  Parallel linear algebra routines


Your calculation utilizes the atom-pairwise dispersion correction
with the Becke-Johnson damping scheme (D3BJ)
Cite in your paper:
S.Grimme, S.Ehrlich, L.Goerigk, J Comput Chem, (2011), 32, 1456–1465 
S.Grimme, J.Antony, S.Ehrlich and H.Krieg, J.Chem.Phys., 132, (2010), 154104 
   

Your calculation employs the composite approach B97-3c by Grimme and coworkers.
For the correct reference, please check the publication list of the Grimme group:
http://www.thch.uni-bonn.de/tc/index.php?section=publikationen&subsection=grimme#2017
   

XCFun DFT library Copyright 2009-2010 Ulf Ekstrom and contributors.
See http://admol.org/xcfun for more information. This is free soft-
ware; see the source code for copying conditions. There is ABSOLUTELY
NO WARRANTY; not even for MERCHANTABILITY or FITNESS FOR A PARTICULAR
PURPOSE. For details see the documentation. Scientific users of this 
library should cite U. Ekstrom, L. Visscher, R. Bast, A. J. Thorvald-
sen and K. Ruud; J.Chem.Theor.Comp. 2010, DOI: 10.1021/ct100117s
XCFun Version 0.99 
----- Orbital basis set information -----
Your calculation utilizes the basis: def2-mTZVP
----- AuxJ basis set information -----
Your calculation utilizes the basis: def2-mTZVP/J
================================================================================
                                        WARNINGS
                       Please study these warnings very carefully!
================================================================================


WARNING: Geometry Optimization
  ===> : Switching off AutoStart
         For restart on a previous wavefunction, please use MOREAD

INFO   : the flag for use of LIBINT has been found!

================================================================================
                                       INPUT FILE
================================================================================
NAME = SF4.inp
|  1> ! B97-3c Opt Freq TightOpt TightSCF
|  2> 
|  3> %pal
|  4>  nprocs 2
|  5> end
|  6> 
|  7> *xyz 0 1
|  8> S       -3.8094798109      2.0821855465     -0.4454976998                 
|  9> F       -2.2722952489      1.7322215433      0.2181612788                 
| 10> F       -5.3468260945      2.4320922180     -1.1087121001                 
| 11> F       -3.9490270193      3.4352530666      0.5915808204                 
| 12> F       -4.3777115879      0.5513057420      0.0637337464                 
| 13> *
| 14> 
| 15>                          ****END OF INPUT****
================================================================================

                       *****************************
                       * Geometry Optimization Run *
                       *****************************

Geometry optimization settings:
Update method            Update   .... BFGS
Choice of coordinates    CoordSys .... Z-matrix Internals
Initial Hessian          InHess   .... Almoef's Model

Convergence Tolerances:
Energy Change            TolE     ....  1.0000e-06 Eh
Max. Gradient            TolMAXG  ....  1.0000e-04 Eh/bohr
RMS Gradient             TolRMSG  ....  3.0000e-05 Eh/bohr
Max. Displacement        TolMAXD  ....  1.0000e-03 bohr
RMS Displacement         TolRMSD  ....  6.0000e-04 bohr
Strict Convergence                ....  False
------------------------------------------------------------------------------
                        ORCA OPTIMIZATION COORDINATE SETUP
------------------------------------------------------------------------------

The optimization will be done in new redundant internal coordinates
Making redundant internal coordinates   ...  (new redundants) done
Evaluating the initial hessian          ...  (Almloef) done
Evaluating the coordinates              ...  done
Calculating the B-matrix                .... done
Calculating the G-matrix                .... done
Diagonalizing the G-matrix              .... done
The first mode is                       ....    2
The number of degrees of freedom        ....    9

    -----------------------------------------------------------------
                    Redundant Internal Coordinates


    -----------------------------------------------------------------
         Definition                    Initial Value    Approx d2E/dq
    -----------------------------------------------------------------
      1. B(F   1,S   0)                  1.7105         0.431893   
      2. B(F   2,S   0)                  1.7105         0.431955   
      3. B(F   3,S   0)                  1.7105         0.431920   
      4. B(F   4,S   0)                  1.7105         0.431920   
      5. A(F   2,S   0,F   3)           89.9966         0.416762   
      6. A(F   1,S   0,F   4)           89.9955         0.416752   
      7. A(F   2,S   0,F   4)           89.9966         0.416762   
      8. A(F   3,S   0,F   4)          120.0244         0.416756   
      9. A(F   1,S   0,F   3)           89.9955         0.416752   
     10. I(F   1,F   4,F   3,S   0)    -89.9909         0.002500   
     11. I(F   2,F   4,F   3,S   0)     89.9932         0.002500   
    -----------------------------------------------------------------

Number of atoms                         .... 5
Number of degrees of freedom            .... 11

         *************************************************************
         *                GEOMETRY OPTIMIZATION CYCLE   1            *
         *************************************************************
---------------------------------
CARTESIAN COORDINATES (ANGSTROEM)
---------------------------------
  S     -3.809480    2.082186   -0.445498
  F     -2.272295    1.732222    0.218161
  F     -5.346826    2.432092   -1.108712
  F     -3.949027    3.435253    0.591581
  F     -4.377712    0.551306    0.063734

----------------------------
CARTESIAN COORDINATES (A.U.)
----------------------------
  NO LB      ZA    FRAG     MASS         X           Y           Z
   0 S    16.0000    0    32.060   -7.198874    3.934760   -0.841869
   1 F     9.0000    0    18.998   -4.294016    3.273424    0.412265
   2 F     9.0000    0    18.998  -10.104037    4.595988   -2.095162
   3 F     9.0000    0    18.998   -7.462580    6.491687    1.117926
   4 F     9.0000    0    18.998   -8.272676    1.041817    0.120439

--------------------------------
INTERNAL COORDINATES (ANGSTROEM)
--------------------------------
 S      0   0   0     0.000000000000     0.00000000     0.00000000
 F      1   0   0     1.710512911691     0.00000000     0.00000000
 F      1   2   0     1.710474090778   179.98409056     0.00000000
 F      1   2   3     1.710496125217    89.99546206    60.01217160
 F      1   2   4     1.710496125110    89.99546206   239.97564072

---------------------------
INTERNAL COORDINATES (A.U.)
---------------------------
 S      0   0   0     0.000000000000     0.00000000     0.00000000
 F      1   0   0     3.232400951633     0.00000000     0.00000000
 F      1   2   0     3.232327590739   179.98409056     0.00000000
 F      1   2   3     3.232369229793    89.99546206    60.01217160
 F      1   2   4     3.232369229592    89.99546206   239.97564072

---------------------
BASIS SET INFORMATION
---------------------
There are 2 groups of distinct atoms

 Group   1 Type S   : 14s9p1d contracted to 5s4p1d pattern {73211/6111/1}
 Group   2 Type F   : 11s6p1d contracted to 5s3p1d pattern {62111/411/1}

Atom   0S    basis set group =>   1
Atom   1F    basis set group =>   2
Atom   2F    basis set group =>   2
Atom   3F    basis set group =>   2
Atom   4F    basis set group =>   2
---------------------------------
AUXILIARY/J BASIS SET INFORMATION
---------------------------------
There are 2 groups of distinct atoms

 Group   1 Type S   : 14s5p5d2f1g contracted to 8s4p3d1f1g pattern {71111111/2111/311/2/1}
 Group   2 Type F   : 8s3p4d contracted to 6s3p4d pattern {311111/111/1111}

Atom   0S    basis set group =>   1
Atom   1F    basis set group =>   2
Atom   2F    basis set group =>   2
Atom   3F    basis set group =>   2
Atom   4F    basis set group =>   2


           ************************************************************
           *        Program running with 2 parallel MPI-processes     *
           *              working on a common directory               *
           ************************************************************
------------------------------------------------------------------------------
                           ORCA GTO INTEGRAL CALCULATION
                           -- RI-GTO INTEGRALS CHOSEN --
------------------------------------------------------------------------------

                         BASIS SET STATISTICS AND STARTUP INFO

Gaussian basis set:
 # of primitive gaussian shells          ...   96
 # of primitive gaussian functions       ...  182
 # of contracted shells                  ...   46
 # of contracted basis functions         ...   98
 Highest angular momentum                ...    2
 Maximum contraction depth               ...    7
Auxiliary gaussian basis set:
 # of primitive gaussian shells          ...   87
 # of primitive gaussian functions       ...  225
 # of contracted shells                  ...   69
 # of contracted aux-basis functions     ...  191
 Highest angular momentum                ...    4
 Maximum contraction depth               ...    7
Ratio of auxiliary to basis functions    ...  1.95
Integral package used                  ... LIBINT
 One Electron integrals                  ... done
 Ordering auxiliary basis shells         ... done
 Integral threshhold             Thresh  ...  2.500e-11
 Primitive cut-off               TCut    ...  2.500e-12
 Pre-screening matrix                    ... done
 Shell pair data                         ... 
 Ordering of the shell pairs             ... done (   0.000 sec) 993 of 1081 pairs
 Determination of significant pairs      ... done (   0.000 sec)
 Creation of shell pair data             ... done (   0.000 sec)
 Storage of shell pair data              ... done (   0.008 sec)
 Shell pair data done in (   0.009 sec)
 Computing two index integrals           ... done
 Cholesky decomposition of the V-matrix  ... done


Timings:
 Total evaluation time                   ...   0.110 sec (  0.002 min)
 One electron matrix time                ...   0.008 sec (  0.000 min) =  7.2%
 Schwartz matrix evaluation time         ...   0.056 sec (  0.001 min) = 50.9%
 Two index repulsion integral time       ...   0.001 sec (  0.000 min) =  1.2%
 Cholesky decomposition of V             ...   0.014 sec (  0.000 min) = 12.9%
 Three index repulsion integral time     ...   0.000 sec (  0.000 min) =  0.0%



           ************************************************************
           *        Program running with 2 parallel MPI-processes     *
           *              working on a common directory               *
           ************************************************************
-------------------------------------------------------------------------------
                                 ORCA SCF
-------------------------------------------------------------------------------

------------
SCF SETTINGS
------------
Hamiltonian:
 Density Functional     Method          .... DFT(GTOs)
 Exchange Functional    Exchange        .... B973C
 Correlation Functional Correlation     .... B973C
 Gradients option       PostSCFGGA      .... off
   Density functional embedding theory  .... OFF
 RI-approximation to the Coulomb term is turned on
   Number of auxiliary basis functions  .... 191


General Settings:
 Integral files         IntName         .... SF4
 Hartree-Fock type      HFTyp           .... RHF
 Total Charge           Charge          ....    0
 Multiplicity           Mult            ....    1
 Number of Electrons    NEL             ....   52
 Basis Dimension        Dim             ....   98
 Nuclear Repulsion      ENuc            ....    276.0733064150 Eh

Convergence Acceleration:
 DIIS                   CNVDIIS         .... on
   Start iteration      DIISMaxIt       ....    12
   Startup error        DIISStart       ....  0.200000
   # of expansion vecs  DIISMaxEq       ....     5
   Bias factor          DIISBfac        ....   1.050
   Max. coefficient     DIISMaxC        ....  10.000
 Newton-Raphson         CNVNR           .... off
 SOSCF                  CNVSOSCF        .... on
   Start iteration      SOSCFMaxIt      ....   150
   Startup grad/error   SOSCFStart      ....  0.003300
 Level Shifting         CNVShift        .... on
   Level shift para.    LevelShift      ....    0.2500
   Turn off err/grad.   ShiftErr        ....    0.0010
 Zerner damping         CNVZerner       .... off
 Static damping         CNVDamp         .... on
   Fraction old density DampFac         ....    0.7000
   Max. Damping (<1)    DampMax         ....    0.9800
   Min. Damping (>=0)   DampMin         ....    0.0000
   Turn off err/grad.   DampErr         ....    0.1000
 Fernandez-Rico         CNVRico         .... off

SCF Procedure:
 Maximum # iterations   MaxIter         ....   125
 SCF integral mode      SCFMode         .... Direct
   Integral package                     .... LIBINT
 Reset frequency        DirectResetFreq ....    20
 Integral Threshold     Thresh          ....  2.500e-11 Eh
 Primitive CutOff       TCut            ....  2.500e-12 Eh

Convergence Tolerance:
 Convergence Check Mode ConvCheckMode   .... Total+1el-Energy
 Convergence forced     ConvForced      .... 0
 Energy Change          TolE            ....  1.000e-08 Eh
 1-El. energy change                    ....  1.000e-05 Eh
 Orbital Gradient       TolG            ....  1.000e-05
 Orbital Rotation angle TolX            ....  1.000e-05
 DIIS Error             TolErr          ....  5.000e-07


Diagonalization of the overlap matrix:
Smallest eigenvalue                        ... 6.179e-03
Time for diagonalization                   ...    0.020 sec
Threshold for overlap eigenvalues          ... 1.000e-08
Number of eigenvalues below threshold      ... 0
Time for construction of square roots      ...    0.002 sec
Total time needed                          ...    0.022 sec

--------------------------------
INITIAL GUESS: MINIMAL BASIS EHT
--------------------------------
The minimal basis has 29 functions
EHT matrix was diagonalized
Basis set overlap was calculated now projecting the orbitals
Using GuessMode=FMatrix for the initial guess
C*T matrix was formed
Effective Fockian was calculated
Effective Fockian was diagonalized
Initial density was built
                      ------------------
                      INITIAL GUESS DONE
                      ------------------
-------------------
DFT GRID GENERATION
-------------------

General Integration Accuracy     IntAcc      ...  4.340
Radial Grid Type                 RadialGrid  ... Gauss-Chebyshev
Angular Grid (max. acc.)         AngularGrid ... Lebedev-194
Angular grid pruning method      GridPruning ... 3 (G Style)
Weight generation scheme         WeightScheme... Becke
Basis function cutoff            BFCut       ...    1.0000e-11
Integration weight cutoff        WCut        ...    1.0000e-14
Grids for H and He will be reduced by one unit

# of grid points (after initial pruning)     ...  17268 (   0.0 sec)
# of grid points (after weights+screening)   ...  16959 (   0.0 sec)
nearest neighbour list constructed           ...    0.0 sec
Grid point re-assignment to atoms done       ...    0.0 sec
Grid point division into batches done        ...    0.0 sec
Reduced shell lists constructed in    0.1 sec

Total number of grid points                  ...    16959
Total number of batches                      ...      268
Average number of points per batch           ...       63
Average number of grid points per atom       ...     3392
Average number of shells per batch           ...    28.36 (61.64%)
Average number of basis functions per batch  ...    67.16 (68.53%)
Average number of large shells per batch     ...    23.15 (81.64%)
Average number of large basis fcns per batch ...    55.09 (82.03%)
Maximum spatial batch extension              ...  15.44, 17.93, 17.18 au
Average spatial batch extension              ...   1.74,  1.85,  1.86 au

Time for grid setup =    0.087 sec

--------------
SCF ITERATIONS
--------------
ITER       Energy         Delta-E        Max-DP      RMS-DP      [F,P]     Damp
               ***  Starting incremental Fock matrix formation  ***
  0   -794.6214562660   0.000000000000 0.52090630  0.01456063  0.7940646 0.7000
  1   -795.5011281549  -0.879671888912 0.09540028  0.00595640  0.5662996 0.7000
  2   -795.9717563282  -0.470628173238 0.09132098  0.00377902  0.3866165 0.7000
  3   -796.3718300324  -0.400073704226 0.07443057  0.00282217  0.2566762 0.7000
                               ***Turning on DIIS***
  4   -796.6464616107  -0.274631578315 0.05195049  0.00203629  0.1700543 0.7000
  5   -796.8363259576  -0.189864346937 0.03746993  0.00146311  0.1139719 0.7000
  6   -796.9692166230  -0.132890665345 0.07123167  0.00333154  0.0802889 0.0000
  7   -797.2799990684  -0.310782445452 0.00589222  0.00015579  0.0047850 0.0000
                      *** Initiating the SOSCF procedure ***
                           *** Shutting down DIIS ***
                      *** Re-Reading the Fockian *** 
                      *** Removing any level shift *** 
ITER      Energy       Delta-E        Grad      Rot      Max-DP    RMS-DP
  8   -797.28005362  -0.0000545549  0.000769  0.000769  0.002047  0.000062
               *** Restarting incremental Fock matrix formation ***
  9   -797.28007200  -0.0000183729  0.000456  0.001831  0.002078  0.000062
 10   -797.28006847   0.0000035305  0.000853  0.001554  0.001168  0.000046
 11   -797.28007516  -0.0000066977  0.000191  0.001291  0.001357  0.000035
 12   -797.28007544  -0.0000002801  0.000227  0.000212  0.000408  0.000011
 13   -797.28007561  -0.0000001656  0.000131  0.000654  0.000463  0.000016
 14   -797.28007575  -0.0000001438  0.000046  0.000226  0.000358  0.000007
 15   -797.28007581  -0.0000000560  0.000018  0.000039  0.000096  0.000002
 16   -797.28007582  -0.0000000099  0.000008  0.000027  0.000023  0.000001
 17   -797.28007582   0.0000000014  0.000003  0.000009  0.000012  0.000000
 18   -797.28007582   0.0000000003  0.000006  0.000009  0.000008  0.000000
                  ***Gradient check signals convergence***
              ***Rediagonalizing the Fockian in SOSCF/NRSCF***

               *****************************************************
               *                     SUCCESS                       *
               *           SCF CONVERGED AFTER  19 CYCLES          *
               *****************************************************

Setting up the final grid:

General Integration Accuracy     IntAcc      ...  4.670
Radial Grid Type                 RadialGrid  ... Gauss-Chebyshev
Angular Grid (max. acc.)         AngularGrid ... Lebedev-302
Angular grid pruning method      GridPruning ... 3 (G Style)
Weight generation scheme         WeightScheme... Becke
Basis function cutoff            BFCut       ...    1.0000e-11
Integration weight cutoff        WCut        ...    1.0000e-14
Grids for H and He will be reduced by one unit

# of grid points (after initial pruning)     ...  31934 (   0.0 sec)
# of grid points (after weights+screening)   ...  31295 (   0.0 sec)
nearest neighbour list constructed           ...    0.0 sec
Grid point re-assignment to atoms done       ...    0.0 sec
Grid point division into batches done        ...    0.2 sec
Reduced shell lists constructed in    0.2 sec

Total number of grid points                  ...    31295
Total number of batches                      ...      492
Average number of points per batch           ...       63
Average number of grid points per atom       ...     6259
Average number of shells per batch           ...    27.11 (58.92%)
Average number of basis functions per batch  ...    64.35 (65.67%)
Average number of large shells per batch     ...    21.91 (80.85%)
Average number of large basis fcns per batch ...    52.18 (81.09%)
Maximum spatial batch extension              ...  16.08, 15.16, 15.63 au
Average spatial batch extension              ...   1.49,  1.62,  1.61 au

Final grid set up in    0.2 sec
Final integration                            ... done (   0.1 sec)
Change in XC energy                          ...    -0.000785333
Integrated number of electrons               ...    51.999999160
Previous integrated no of electrons          ...    51.999940750

----------------
TOTAL SCF ENERGY
----------------

Total Energy       :         -797.28086115 Eh          -21695.11519 eV

Components:
Nuclear Repulsion  :          276.07330642 Eh            7512.33659 eV
Electronic Energy  :        -1073.35416757 Eh          -29207.45178 eV
One Electron Energy:        -1655.70590823 Eh          -45054.04827 eV
Two Electron Energy:          582.35174066 Eh           15846.59649 eV

Virial components:
Potential Energy   :        -1592.19629397 Eh          -43325.86380 eV
Kinetic Energy     :          794.91543281 Eh           21630.74861 eV
Virial Ratio       :            2.00297570


DFT components:
N(Alpha)           :       25.999999580193 electrons
N(Beta)            :       25.999999580193 electrons
N(Total)           :       51.999999160386 electrons
E(XC)              :      -67.095740912724 Eh       
DFET-embed. en.    :        0.000000000000 Eh       

---------------
SCF CONVERGENCE
---------------

  Last Energy change         ...   -3.3403e-09  Tolerance :   1.0000e-08
  Last MAX-Density change    ...    2.4872e-06  Tolerance :   1.0000e-07
  Last RMS-Density change    ...    6.4180e-08  Tolerance :   5.0000e-09
  Last Orbital Gradient      ...    4.6525e-07  Tolerance :   1.0000e-05
  Last Orbital Rotation      ...    1.2979e-06  Tolerance :   1.0000e-05

             **** THE GBW FILE WAS UPDATED (SF4.gbw) ****
             **** DENSITY FILE WAS UPDATED (SF4.scfp) ****
             **** ENERGY FILE WAS UPDATED (SF4.en.tmp) ****
             **** THE GBW FILE WAS UPDATED (SF4.gbw) ****
             **** DENSITY FILE WAS UPDATED (SF4.scfp) ****
----------------
ORBITAL ENERGIES
----------------

  NO   OCC          E(Eh)            E(eV) 
   0   2.0000     -88.333637     -2403.6805 
   1   2.0000     -24.318317      -661.7350 
   2   2.0000     -24.318286      -661.7342 
   3   2.0000     -24.267988      -660.3655 
   4   2.0000     -24.267967      -660.3649 
   5   2.0000      -7.992515      -217.4874 
   6   2.0000      -6.023378      -163.9045 
   7   2.0000      -6.022812      -163.8891 
   8   2.0000      -6.015290      -163.6844 
   9   2.0000      -1.188801       -32.3489 
  10   2.0000      -1.150992       -31.3201 
  11   2.0000      -1.115771       -30.3617 
  12   2.0000      -1.104371       -30.0515 
  13   2.0000      -0.746076       -20.3018 
  14   2.0000      -0.561074       -15.2676 
  15   2.0000      -0.543542       -14.7905 
  16   2.0000      -0.510107       -13.8807 
  17   2.0000      -0.444810       -12.1039 
  18   2.0000      -0.439448       -11.9580 
  19   2.0000      -0.426668       -11.6102 
  20   2.0000      -0.420274       -11.4362 
  21   2.0000      -0.395417       -10.7598 
  22   2.0000      -0.382115       -10.3979 
  23   2.0000      -0.381300       -10.3757 
  24   2.0000      -0.367485        -9.9998 
  25   2.0000      -0.312774        -8.5110 
  26   0.0000      -0.190443        -5.1822 
  27   0.0000      -0.129317        -3.5189 
  28   0.0000      -0.031673        -0.8619 
  29   0.0000       0.207919         5.6578 
  30   0.0000       0.216219         5.8836 
  31   0.0000       0.221296         6.0218 
  32   0.0000       0.276580         7.5261 
  33   0.0000       0.351196         9.5565 
  34   0.0000       0.354142         9.6367 
  35   0.0000       0.382831        10.4173 
  36   0.0000       0.423770        11.5314 
  37   0.0000       0.458268        12.4701 
  38   0.0000       0.522761        14.2250 
  39   0.0000       0.539736        14.6870 
  40   0.0000       0.548502        14.9255 
  41   0.0000       0.580503        15.7963 
  42   0.0000       0.586749        15.9662 
  43   0.0000       0.606711        16.5095 
  44   0.0000       0.608981        16.5712 
  45   0.0000       0.625185        17.0122 
  46   0.0000       0.671816        18.2810 
  47   0.0000       0.683485        18.5986 
  48   0.0000       0.687335        18.7033 
  49   0.0000       0.689357        18.7584 
  50   0.0000       0.823823        22.4174 
  51   0.0000       0.865065        23.5396 
  52   0.0000       1.002024        27.2665 
  53   0.0000       1.040470        28.3126 
  54   0.0000       1.585605        43.1465 
  55   0.0000       1.658768        45.1374 
  56   0.0000       1.705201        46.4009 
  57   0.0000       1.880481        51.1705 
  58   0.0000       1.886723        51.3404 
  59   0.0000       1.902737        51.7761 
  60   0.0000       1.909594        51.9627 
  61   0.0000       1.911398        52.0118 
  62   0.0000       1.916765        52.1578 
  63   0.0000       1.931880        52.5691 
  64   0.0000       1.934392        52.6375 
  65   0.0000       1.963284        53.4237 
  66   0.0000       1.966114        53.5007 
  67   0.0000       1.987743        54.0892 
  68   0.0000       2.058324        56.0098 
  69   0.0000       2.086988        56.7898 
  70   0.0000       2.114823        57.5472 
  71   0.0000       2.123537        57.7844 
  72   0.0000       2.175758        59.2054 
  73   0.0000       2.327832        63.3435 
  74   0.0000       2.457142        66.8622 
  75   0.0000       2.519287        68.5533 
  76   0.0000       2.523093        68.6569 
  77   0.0000       2.982260        81.1514 
  78   0.0000       2.986879        81.2771 
  79   0.0000       3.027172        82.3735 
  80   0.0000       3.043072        82.8062 
  81   0.0000       3.071224        83.5723 
  82   0.0000       3.077786        83.7508 
  83   0.0000       3.081097        83.8409 
  84   0.0000       3.086488        83.9876 
  85   0.0000       3.136064        85.3366 
  86   0.0000       3.239091        88.1401 
  87   0.0000       3.251011        88.4645 
  88   0.0000       3.277990        89.1986 
  89   0.0000       3.560270        96.8799 
  90   0.0000       3.744402       101.8904 
  91   0.0000       3.758921       102.2854 
  92   0.0000       3.880183       105.5852 
  93   0.0000      17.949766       488.4380 
  94   0.0000      56.133726      1527.4763 
  95   0.0000      56.216657      1529.7330 
  96   0.0000      56.314354      1532.3915 
  97   0.0000      56.534606      1538.3848 

                    ********************************
                    * MULLIKEN POPULATION ANALYSIS *
                    ********************************

-----------------------
MULLIKEN ATOMIC CHARGES
-----------------------
   0 S :    1.134974
   1 F :   -0.324290
   2 F :   -0.324230
   3 F :   -0.243277
   4 F :   -0.243177
Sum of atomic charges:   -0.0000000

--------------------------------
MULLIKEN REDUCED ORBITAL CHARGES
--------------------------------
  0 S s       :     5.957291  s :     5.957291
      pz      :     2.996135  p :     8.511418
      px      :     2.789067
      py      :     2.726216
      dz2     :     0.053602  d :     0.396317
      dxz     :     0.085529
      dyz     :     0.063242
      dx2y2   :     0.119303
      dxy     :     0.074641
  1 F s       :     3.956040  s :     3.956040
      pz      :     1.886713  p :     5.357611
      px      :     1.570800
      py      :     1.900098
      dz2     :     0.001416  d :     0.010639
      dxz     :     0.003127
      dyz     :     0.000495
      dx2y2   :     0.003427
      dxy     :     0.002174
  2 F s       :     3.956049  s :     3.956049
      pz      :     1.804855  p :     5.357540
      px      :     1.657592
      py      :     1.895092
      dz2     :     0.001344  d :     0.010641
      dxz     :     0.003406
      dyz     :     0.000618
      dx2y2   :     0.003206
      dxy     :     0.002066
  3 F s       :     3.959964  s :     3.959964
      pz      :     1.775171  p :     5.272410
      px      :     1.939020
      py      :     1.558219
      dz2     :     0.001716  d :     0.010903
      dxz     :     0.000917
      dyz     :     0.004128
      dx2y2   :     0.002692
      dxy     :     0.001451
  4 F s       :     3.959936  s :     3.959936
      pz      :     1.882480  p :     5.272342
      px      :     1.899127
      py      :     1.490736
      dz2     :     0.001487  d :     0.010899
      dxz     :     0.000637
      dyz     :     0.002508
      dx2y2   :     0.003473
      dxy     :     0.002794


                     *******************************
                     * LOEWDIN POPULATION ANALYSIS *
                     *******************************

----------------------
LOEWDIN ATOMIC CHARGES
----------------------
   0 S :    1.419249
   1 F :   -0.392429
   2 F :   -0.392387
   3 F :   -0.317235
   4 F :   -0.317197

-------------------------------
LOEWDIN REDUCED ORBITAL CHARGES
-------------------------------
  0 S s       :     5.524123  s :     5.524123
      pz      :     3.017664  p :     8.576481
      px      :     2.828407
      py      :     2.730410
      dz2     :     0.067125  d :     0.480147
      dxz     :     0.109384
      dyz     :     0.074848
      dx2y2   :     0.145762
      dxy     :     0.083029
  1 F s       :     3.905083  s :     3.905083
      pz      :     1.909441  p :     5.464472
      px      :     1.651823
      py      :     1.903208
      dz2     :     0.002152  d :     0.022874
      dxz     :     0.008301
      dyz     :     0.000962
      dx2y2   :     0.007713
      dxy     :     0.003746
  2 F s       :     3.905076  s :     3.905076
      pz      :     1.820441  p :     5.464434
      px      :     1.746212
      py      :     1.897782
      dz2     :     0.002865  d :     0.022877
      dxz     :     0.006526
      dyz     :     0.000946
      dx2y2   :     0.008973
      dxy     :     0.003567
  3 F s       :     3.908017  s :     3.908017
      pz      :     1.814517  p :     5.387520
      px      :     1.939157
      py      :     1.633846
      dz2     :     0.002432  d :     0.021699
      dxz     :     0.001421
      dyz     :     0.010386
      dx2y2   :     0.005400
      dxy     :     0.002060
  4 F s       :     3.908028  s :     3.908028
      pz      :     1.894738  p :     5.387472
      px      :     1.909339
      py      :     1.583395
      dz2     :     0.002716  d :     0.021697
      dxz     :     0.001244
      dyz     :     0.005074
      dx2y2   :     0.006955
      dxy     :     0.005708


                      *****************************
                      * MAYER POPULATION ANALYSIS *
                      *****************************

  NA   - Mulliken gross atomic population
  ZA   - Total nuclear charge
  QA   - Mulliken gross atomic charge
  VA   - Mayer's total valence
  BVA  - Mayer's bonded valence
  FA   - Mayer's free valence

  ATOM       NA         ZA         QA         VA         BVA        FA
  0 S     14.8650    16.0000     1.1350     3.3436     3.3436    -0.0000
  1 F      9.3243     9.0000    -0.3243     0.9173     0.9173    -0.0000
  2 F      9.3242     9.0000    -0.3242     0.9174     0.9174    -0.0000
  3 F      9.2433     9.0000    -0.2433     1.0076     1.0076     0.0000
  4 F      9.2432     9.0000    -0.2432     1.0081     1.0081     0.0000

  Mayer bond orders larger than 0.100000
B(  0-S ,  1-F ) :   0.7875 B(  0-S ,  2-F ) :   0.7875 B(  0-S ,  3-F ) :   0.8842 
B(  0-S ,  4-F ) :   0.8844 

-------
TIMINGS
-------

Total SCF time: 0 days 0 hours 0 min 3 sec 

Total time                  ....       3.406 sec
Sum of individual times     ....       3.295 sec  ( 96.7%)

Fock matrix formation       ....       2.904 sec  ( 85.3%)
  Split-RI-J                ....       1.535 sec  ( 52.9% of F)
  XC integration            ....       1.342 sec  ( 46.2% of F)
    Basis function eval.    ....       0.315 sec  ( 23.4% of XC)
    Density eval.           ....       0.299 sec  ( 22.2% of XC)
    XC-Functional eval.     ....       0.406 sec  ( 30.3% of XC)
    XC-Potential eval.      ....       0.235 sec  ( 17.5% of XC)
Diagonalization             ....       0.017 sec  (  0.5%)
Density matrix formation    ....       0.002 sec  (  0.0%)
Population analysis         ....       0.002 sec  (  0.1%)
Initial guess               ....       0.006 sec  (  0.2%)
Orbital Transformation      ....       0.000 sec  (  0.0%)
Orbital Orthonormalization  ....       0.000 sec  (  0.0%)
DIIS solution               ....       0.007 sec  (  0.2%)
SOSCF solution              ....       0.050 sec  (  1.5%)
Grid generation             ....       0.307 sec  (  9.0%)


-------------------------------------------------------------------------------
                          DFT DISPERSION CORRECTION                            
                                                                               
                              DFTD3 V3.1  Rev 1                                
                          USING Becke-Johnson damping                          
-------------------------------------------------------------------------------
The B97-3c composite method is recognized
Using three-body term ABC
Active option DFTDOPT                   ...         4   

molecular C6(AA) [au] = 456.673541 


            DFT-D V3
 parameters
 s6 scaling factor         :     1.0000 
 a1 scaling factor         :     0.3700 
 s8 scaling factor         :     1.5000 
 a2 scaling factor         :     4.1000 
 Damping factor alpha9(ATM):    16.0000 
 ad hoc parameters k1-k3   :    16.0000     1.3333    -4.0000 

 Edisp/kcal,au: -3.868895478042  -0.006165476738 
 E6   /kcal   :  -1.852841629 
 E8   /kcal   :  -2.016488424 
 E6(ABC)      :   0.000434574 
 % E8         :  52.120519547 
 % E6(ABC)    :  -0.011232518 

-------------------------   ----------------
Dispersion correction           -0.006165477
-------------------------   ----------------

------------------   -----------------
SRB correction            -0.007428841
------------------   -----------------

-------------------------   --------------------
FINAL SINGLE POINT ENERGY      -797.294455471186
-------------------------   --------------------



           ************************************************************
           *        Program running with 2 parallel MPI-processes     *
           *              working on a common directory               *
           ************************************************************
------------------------------------------------------------------------------
                         ORCA SCF GRADIENT CALCULATION
------------------------------------------------------------------------------

Gradient of the Kohn-Sham DFT energy:
Kohn-Sham wavefunction type      ... RKS
Hartree-Fock exchange scaling    ...    0.000
Number of operators              ...    1
Number of atoms                  ...    5
Basis set dimensions             ...   98
Integral neglect threshold       ... 2.5e-11
Integral primitive cutoff        ... 2.5e-12

Nuclear repulsion gradient       ... done
One Electron Gradient            ... done
Pre-screening matrix             ... done
RI-J gradient                    ... done
Exchange-correlation gradient    ... done
Dispersion correction            ... done
SRB correction                   ... done

------------------
CARTESIAN GRADIENT
------------------

   1   S   :   -0.010542001   -0.002584396    0.022920133
   2   F   :    0.010853452    0.000867599   -0.013439974
   3   F   :    0.003018330    0.002609347   -0.016804879
   4   F   :    0.004056112    0.038178861    0.010717458
   5   F   :   -0.007385892   -0.039071411   -0.003392738

Difference to translation invariance:
           :   -0.0000000000   -0.0000000000   -0.0000000000

Norm of the cartesian gradient     ...    0.0664998493
RMS gradient                       ...    0.0171701873
MAX gradient                       ...    0.0390714110

-------
TIMINGS
-------

Total SCF gradient time            ...        0.823 sec

One electron gradient       ....       0.014 sec  (  1.7%)
Prescreening matrices       ....       0.034 sec  (  4.1%)
RI-J Coulomb gradient       ....       0.152 sec  ( 18.5%)
XC gradient                 ....       0.438 sec  ( 53.1%)
------------------------------------------------------------------------------
                         ORCA GEOMETRY RELAXATION STEP
------------------------------------------------------------------------------

Reading the OPT-File                    .... done
Getting information on internals        .... done
Copying old internal coords+grads       .... done
Making the new internal coordinates     .... (new redundants).... done
Validating the new internal coordinates .... (new redundants).... done
Calculating the B-matrix                .... done
Calculating the G,G- and P matrices     .... done
Transforming gradient to internals      .... done
Projecting the internal gradient        .... done
Number of atoms                         ....   5
Number of internal coordinates          ....  11
Current Energy                          ....  -797.294455471 Eh
Current gradient norm                   ....     0.066499849 Eh/bohr
Maximum allowed component of the step   ....  0.300
Current trust radius                    ....  0.300
Evaluating the initial hessian          ....  (Almloef) done
Projecting the Hessian                  .... done
Forming the augmented Hessian           .... done
Diagonalizing the augmented Hessian     .... done
Last element of RFO vector              ....  0.931005593
Lowest eigenvalues of augmented Hessian:
 -0.034246884  0.140517800  0.161854925  0.416751510  0.416762090
Length of the computed step             ....  0.392054479
Warning: the length of the step is outside the trust region - taking restricted step instead
The input lambda is                     ....    -0.034247
   iter:   1  x=   -0.074706  g=    1.574612 f(x)=     0.063707
   iter:   2  x=   -0.093280  g=    0.870410 f(x)=     0.016167
   iter:   3  x=   -0.095851  g=    0.689237 f(x)=     0.001773
   iter:   4  x=   -0.095892  g=    0.668367 f(x)=     0.000027
   iter:   5  x=   -0.095892  g=    0.668045 f(x)=     0.000000
   iter:   6  x=   -0.095892  g=    0.668045 f(x)=     0.000000
The output lambda is                    ....    -0.095892 (6 iterations)
The final length of the internal step   ....  0.300000000
Converting the step to cartesian space:
 Initial RMS(Int)=    0.0904534034
Transforming coordinates:
 Iter   0:  RMS(Cart)=    0.1317907892 RMS(Int)=    0.0925869691
 Iter   1:  RMS(Cart)=    0.0139381280 RMS(Int)=    0.0166958879
 Iter   2:  RMS(Cart)=    0.0015794468 RMS(Int)=    0.0009436366
 Iter   3:  RMS(Cart)=    0.0003073648 RMS(Int)=    0.0003620574
 Iter   4:  RMS(Cart)=    0.0000356254 RMS(Int)=    0.0000217438
 Iter   5:  RMS(Cart)=    0.0000067847 RMS(Int)=    0.0000079516
 Iter   6:  RMS(Cart)=    0.0000007969 RMS(Int)=    0.0000005026
 Iter   7:  RMS(Cart)=    0.0000001504 RMS(Int)=    0.0000001756
 Iter   8:  RMS(Cart)=    0.0000000179 RMS(Int)=    0.0000000117
done
Storing new coordinates                 .... done

                                .--------------------.
          ----------------------|Geometry convergence|-------------------------
          Item                value                   Tolerance       Converged
          ---------------------------------------------------------------------
          RMS gradient        0.0291861525            0.0000300000      NO
          MAX gradient        0.0527683513            0.0001000000      NO
          RMS step            0.0904534034            0.0006000000      NO
          MAX step            0.1525591939            0.0010000000      NO
          ........................................................
          Max(Bonds)      0.0365      Max(Angles)    5.90
          Max(Dihed)        0.00      Max(Improp)    8.74
          ---------------------------------------------------------------------

The optimization has not yet converged - more geometry cycles are needed


    ---------------------------------------------------------------------------
                         Redundant Internal Coordinates
                            (Angstroem and degrees)

        Definition                    Value    dE/dq     Step     New-Value
    ----------------------------------------------------------------------------
     1. B(F   1,S   0)                1.7105  0.004365 -0.0044    1.7061   
     2. B(F   2,S   0)                1.7105  0.004334 -0.0043    1.7061   
     3. B(F   3,S   0)                1.7105  0.036367 -0.0365    1.6740   
     4. B(F   4,S   0)                1.7105  0.036414 -0.0365    1.6740   
     5. A(F   2,S   0,F   3)           90.00  0.018023   -4.37     85.63   
     6. A(F   1,S   0,F   4)           90.00  0.018011   -4.37     85.63   
     7. A(F   2,S   0,F   4)           90.00  0.018036   -4.37     85.63   
     8. A(F   3,S   0,F   4)          120.02  0.052768   -5.90    114.13   
     9. A(F   1,S   0,F   3)           90.00  0.018026   -4.37     85.63   
    10. I(F   1,F   4,F   3,S   0)    -89.99 -0.036043    8.74    -81.26   
    11. I(F   2,F   4,F   3,S   0)     89.99  0.036067   -8.74     81.25   
    ----------------------------------------------------------------------------

         *************************************************************
         *                GEOMETRY OPTIMIZATION CYCLE   2            *
         *************************************************************
---------------------------------
CARTESIAN COORDINATES (ANGSTROEM)
---------------------------------
  S     -3.758572    2.094956   -0.556669
  F     -2.346538    1.723523    0.325999
  F     -5.379514    2.413908   -0.982923
  F     -3.932083    3.367791    0.516727
  F     -4.338633    0.632880    0.016132

----------------------------
CARTESIAN COORDINATES (A.U.)
----------------------------
  NO LB      ZA    FRAG     MASS         X           Y           Z
   0 S    16.0000    0    32.060   -7.102671    3.958893   -1.051952
   1 F     9.0000    0    18.998   -4.434315    3.256987    0.616049
   2 F     9.0000    0    18.998  -10.165808    4.561624   -1.857456
   3 F     9.0000    0    18.998   -7.430560    6.364203    0.976472
   4 F     9.0000    0    18.998   -8.198828    1.195970    0.030486

--------------------------------
INTERNAL COORDINATES (ANGSTROEM)
--------------------------------
 S      0   0   0     0.000000000000     0.00000000     0.00000000
 F      1   0   0     1.706136757543     0.00000000     0.00000000
 F      1   2   0     1.706129386443   162.98901618     0.00000000
 F      1   2   3     1.674035444120    85.38757679    57.35202479
 F      1   2   4     1.673988362712    85.38918223   245.29588487

---------------------------
INTERNAL COORDINATES (A.U.)
---------------------------
 S      0   0   0     0.000000000000     0.00000000     0.00000000
 F      1   0   0     3.224131218772     0.00000000     0.00000000
 F      1   2   0     3.224117289412   162.98901618     0.00000000
 F      1   2   3     3.163468527864    85.38757679    57.35202479
 F      1   2   4     3.163379556897    85.38918223   245.29588487



           ************************************************************
           *        Program running with 2 parallel MPI-processes     *
           *              working on a common directory               *
           ************************************************************
 One Electron integrals                  ... done
 Pre-screening matrix                    ... done


           ************************************************************
           *        Program running with 2 parallel MPI-processes     *
           *              working on a common directory               *
           ************************************************************

Diagonalization of the overlap matrix:
Smallest eigenvalue                        ... 4.921e-03
Time for diagonalization                   ...    0.004 sec
Threshold for overlap eigenvalues          ... 1.000e-08
Number of eigenvalues below threshold      ... 0
Time for construction of square roots      ...    0.001 sec
Total time needed                          ...    0.005 sec

-------------------
DFT GRID GENERATION
-------------------

General Integration Accuracy     IntAcc      ...  4.340
Radial Grid Type                 RadialGrid  ... Gauss-Chebyshev
Angular Grid (max. acc.)         AngularGrid ... Lebedev-194
Angular grid pruning method      GridPruning ... 3 (G Style)
Weight generation scheme         WeightScheme... Becke
Basis function cutoff            BFCut       ...    1.0000e-11
Integration weight cutoff        WCut        ...    1.0000e-14
Grids for H and He will be reduced by one unit

# of grid points (after initial pruning)     ...  17268 (   0.0 sec)
# of grid points (after weights+screening)   ...  16939 (   0.0 sec)
nearest neighbour list constructed           ...    0.0 sec
Grid point re-assignment to atoms done       ...    0.0 sec
Grid point division into batches done        ...    0.0 sec
Reduced shell lists constructed in    0.1 sec

Total number of grid points                  ...    16939
Total number of batches                      ...      267
Average number of points per batch           ...       63
Average number of grid points per atom       ...     3388
Average number of shells per batch           ...    28.60 (62.17%)
Average number of basis functions per batch  ...    67.73 (69.11%)
Average number of large shells per batch     ...    23.29 (81.43%)
Average number of large basis fcns per batch ...    55.70 (82.25%)
Maximum spatial batch extension              ...  15.36, 20.18, 17.46 au
Average spatial batch extension              ...   1.81,  1.98,  1.93 au

Time for grid setup =    0.097 sec

--------------
SCF ITERATIONS
--------------
ITER       Energy         Delta-E        Max-DP      RMS-DP      [F,P]     Damp
               ***  Starting incremental Fock matrix formation  ***
  0   -797.2708421405   0.000000000000 0.01443138  0.00070970  0.0373546 0.7000
  1   -797.2770614445  -0.006219304002 0.01657462  0.00078867  0.0301219 0.7000
                               ***Turning on DIIS***
  2   -797.2822381938  -0.005176749271 0.04812737  0.00228107  0.0233959 0.0000
  3   -797.2944819066  -0.012243712847 0.00394384  0.00022290  0.0059548 0.0000
                      *** Initiating the SOSCF procedure ***
                           *** Shutting down DIIS ***
                      *** Re-Reading the Fockian *** 
                      *** Removing any level shift *** 
ITER      Energy       Delta-E        Grad      Rot      Max-DP    RMS-DP
  4   -797.29461679  -0.0001348867  0.001969  0.001969  0.005927  0.000143
               *** Restarting incremental Fock matrix formation ***
  5   -797.29467956  -0.0000627672  0.000995  0.005101  0.004729  0.000156
  6   -797.29468383  -0.0000042728  0.000938  0.001742  0.001680  0.000060
  7   -797.29469144  -0.0000076113  0.000547  0.002595  0.003007  0.000078
  8   -797.29469469  -0.0000032442  0.000194  0.000635  0.000968  0.000024
  9   -797.29469551  -0.0000008174  0.000051  0.000083  0.000048  0.000003
 10   -797.29469552  -0.0000000177  0.000008  0.000028  0.000023  0.000001
 11   -797.29469552  -0.0000000008  0.000012  0.000018  0.000012  0.000001
 12   -797.29469553  -0.0000000008  0.000004  0.000020  0.000014  0.000001
                  ***Gradient check signals convergence***
              ***Rediagonalizing the Fockian in SOSCF/NRSCF***

               *****************************************************
               *                     SUCCESS                       *
               *           SCF CONVERGED AFTER  13 CYCLES          *
               *****************************************************

Setting up the final grid:

General Integration Accuracy     IntAcc      ...  4.670
Radial Grid Type                 RadialGrid  ... Gauss-Chebyshev
Angular Grid (max. acc.)         AngularGrid ... Lebedev-302
Angular grid pruning method      GridPruning ... 3 (G Style)
Weight generation scheme         WeightScheme... Becke
Basis function cutoff            BFCut       ...    1.0000e-11
Integration weight cutoff        WCut        ...    1.0000e-14
Grids for H and He will be reduced by one unit

# of grid points (after initial pruning)     ...  31934 (   0.0 sec)
# of grid points (after weights+screening)   ...  31264 (   0.0 sec)
nearest neighbour list constructed           ...    0.0 sec
Grid point re-assignment to atoms done       ...    0.0 sec
Grid point division into batches done        ...    0.2 sec
Reduced shell lists constructed in    0.2 sec

Total number of grid points                  ...    31264
Total number of batches                      ...      492
Average number of points per batch           ...       63
Average number of grid points per atom       ...     6253
Average number of shells per batch           ...    27.23 (59.19%)
Average number of basis functions per batch  ...    64.54 (65.86%)
Average number of large shells per batch     ...    22.12 (81.25%)
Average number of large basis fcns per batch ...    52.99 (82.10%)
Maximum spatial batch extension              ...  15.73, 17.51, 16.82 au
Average spatial batch extension              ...   1.46,  1.62,  1.62 au

Final grid set up in    0.2 sec
Final integration                            ... done (   0.1 sec)
Change in XC energy                          ...    -0.000672647
Integrated number of electrons               ...    51.999982767
Previous integrated no of electrons          ...    52.000051987
Total Energy       :         -797.29536817 Eh          -21695.50995 eV
  Last Energy change         ...   -5.3194e-10  Tolerance :   1.0000e-08
  Last MAX-Density change    ...    4.9957e-06  Tolerance :   1.0000e-07
             **** THE GBW FILE WAS UPDATED (SF4.gbw) ****
             **** DENSITY FILE WAS UPDATED (SF4.scfp) ****
             **** ENERGY FILE WAS UPDATED (SF4.en.tmp) ****
             **** THE GBW FILE WAS UPDATED (SF4.gbw) ****
             **** DENSITY FILE WAS UPDATED (SF4.scfp) ****
Total SCF time: 0 days 0 hours 0 min 2 sec 


-------------------------------------------------------------------------------
                          DFT DISPERSION CORRECTION                            
                                                                               
                              DFTD3 V3.1  Rev 1                                
                          USING Becke-Johnson damping                          
-------------------------------------------------------------------------------
-------------------------   ----------------
Dispersion correction           -0.006293196
-------------------------   ----------------

------------------   -----------------
SRB correction            -0.008071737
------------------   -----------------

-------------------------   --------------------
FINAL SINGLE POINT ENERGY      -797.309733106821
-------------------------   --------------------



           ************************************************************
           *        Program running with 2 parallel MPI-processes     *
           *              working on a common directory               *
           ************************************************************
------------------------------------------------------------------------------
                         ORCA SCF GRADIENT CALCULATION
------------------------------------------------------------------------------

Gradient of the Kohn-Sham DFT energy:
Kohn-Sham wavefunction type      ... RKS
Hartree-Fock exchange scaling    ...    0.000
Number of operators              ...    1
Number of atoms                  ...    5
Basis set dimensions             ...   98
Integral neglect threshold       ... 2.5e-11
Integral primitive cutoff        ... 2.5e-12

Nuclear repulsion gradient       ... done
One Electron Gradient            ... done
Pre-screening matrix             ... done
RI-J gradient                    ... done
Exchange-correlation gradient    ... done
Dispersion correction            ... done
SRB correction                   ... done

------------------
CARTESIAN GRADIENT
------------------

   1   S   :    0.012999445    0.003421916   -0.028061328
   2   F   :    0.005910562   -0.002306673    0.007917133
   3   F   :   -0.010035132    0.001272471    0.001091059
   4   F   :   -0.001061068    0.021606752    0.013617879
   5   F   :   -0.007813807   -0.023994465    0.005435258

Difference to translation invariance:
           :    0.0000000000   -0.0000000000    0.0000000000

Norm of the cartesian gradient     ...    0.0499433609
RMS gradient                       ...    0.0128953203
MAX gradient                       ...    0.0280613278

-------
TIMINGS
-------

Total SCF gradient time            ...        0.772 sec

One electron gradient       ....       0.009 sec  (  1.1%)
Prescreening matrices       ....       0.038 sec  (  4.9%)
RI-J Coulomb gradient       ....       0.130 sec  ( 16.9%)
XC gradient                 ....       0.473 sec  ( 61.2%)
------------------------------------------------------------------------------
                         ORCA GEOMETRY RELAXATION STEP
------------------------------------------------------------------------------

Reading the OPT-File                    .... done
Getting information on internals        .... done
Copying old internal coords+grads       .... done
Making the new internal coordinates     .... (new redundants).... done
Validating the new internal coordinates .... (new redundants).... done
Calculating the B-matrix                .... done
Calculating the G,G- and P matrices     .... done
Transforming gradient to internals      .... done
Projecting the internal gradient        .... done
Number of atoms                         ....   5
Number of internal coordinates          ....  11
Current Energy                          ....  -797.309733107 Eh
Current gradient norm                   ....     0.049943361 Eh/bohr
Maximum allowed component of the step   ....  0.300
Current trust radius                    ....  0.300
Updating the Hessian (BFGS)             .... done
Forming the augmented Hessian           .... done
Diagonalizing the augmented Hessian     .... done
Last element of RFO vector              ....  0.990717816
Lowest eigenvalues of augmented Hessian:
 -0.005763998  0.140517541  0.260547815  0.295952535  0.416751532
Length of the computed step             ....  0.137208167
The final length of the internal step   ....  0.137208167
Converting the step to cartesian space:
 Initial RMS(Int)=    0.0413698191
Transforming coordinates:
 Iter   0:  RMS(Cart)=    0.0518359811 RMS(Int)=    0.0410359021
 Iter   1:  RMS(Cart)=    0.0011941865 RMS(Int)=    0.0008965674
 Iter   2:  RMS(Cart)=    0.0000365380 RMS(Int)=    0.0000354826
 Iter   3:  RMS(Cart)=    0.0000007899 RMS(Int)=    0.0000007087
 Iter   4:  RMS(Cart)=    0.0000000328 RMS(Int)=    0.0000000321
done
Storing new coordinates                 .... done

                                .--------------------.
          ----------------------|Geometry convergence|-------------------------
          Item                value                   Tolerance       Converged
          ---------------------------------------------------------------------
          Energy change      -0.0152776356            0.0000010000      NO
          RMS gradient        0.0128420310            0.0000300000      NO
          MAX gradient        0.0255244918            0.0001000000      NO
          RMS step            0.0413698191            0.0006000000      NO
          MAX step            0.0804605642            0.0010000000      NO
          ........................................................
          Max(Bonds)      0.0426      Max(Angles)    3.47
          Max(Dihed)        0.00      Max(Improp)    1.17
          ---------------------------------------------------------------------

The optimization has not yet converged - more geometry cycles are needed


    ---------------------------------------------------------------------------
                         Redundant Internal Coordinates
                            (Angstroem and degrees)

        Definition                    Value    dE/dq     Step     New-Value
    ----------------------------------------------------------------------------
     1. B(F   1,S   0)                1.7061  0.009490 -0.0133    1.6928   
     2. B(F   2,S   0)                1.7061  0.009499 -0.0133    1.6928   
     3. B(F   3,S   0)                1.6740  0.025270 -0.0422    1.6318   
     4. B(F   4,S   0)                1.6740  0.025524 -0.0426    1.6314   
     5. A(F   2,S   0,F   3)           85.39 -0.003518    0.46     85.85   
     6. A(F   1,S   0,F   4)           85.39 -0.003458    0.44     85.83   
     7. A(F   2,S   0,F   4)           85.39 -0.003463    0.45     85.84   
     8. A(F   3,S   0,F   4)          114.13  0.013046   -3.47    110.66   
     9. A(F   1,S   0,F   3)           85.39 -0.003409    0.43     85.82   
    10. I(F   1,F   4,F   3,S   0)    -81.50  0.007870   -1.12    -82.62   
    11. I(F   2,F   4,F   3,S   0)     81.49 -0.007977    1.17     82.66   
    ----------------------------------------------------------------------------

         *************************************************************
         *                GEOMETRY OPTIMIZATION CYCLE   3            *
         *************************************************************
---------------------------------
CARTESIAN COORDINATES (ANGSTROEM)
---------------------------------
  S     -3.761620    2.094175   -0.550312
  F     -2.342462    1.728243    0.296844
  F     -5.360135    2.415061   -1.005659
  F     -3.951373    3.303836    0.528332
  F     -4.339750    0.691743    0.050061

----------------------------
CARTESIAN COORDINATES (A.U.)
----------------------------
  NO LB      ZA    FRAG     MASS         X           Y           Z
   0 S    16.0000    0    32.060   -7.108431    3.957418   -1.039939
   1 F     9.0000    0    18.998   -4.426612    3.265906    0.560954
   2 F     9.0000    0    18.998  -10.129187    4.563804   -1.900420
   3 F     9.0000    0    18.998   -7.467012    6.243345    0.998402
   4 F     9.0000    0    18.998   -8.200939    1.307205    0.094602

--------------------------------
INTERNAL COORDINATES (ANGSTROEM)
--------------------------------
 S      0   0   0     0.000000000000     0.00000000     0.00000000
 F      1   0   0     1.692804721428     0.00000000     0.00000000
 F      1   2   0     1.692796217009   165.29526511     0.00000000
 F      1   2   3     1.631795742070    85.80977665    55.55316011
 F      1   2   4     1.631410465048    85.81896221   248.89756621

---------------------------
INTERNAL COORDINATES (A.U.)
---------------------------
 S      0   0   0     0.000000000000     0.00000000     0.00000000
 F      1   0   0     3.198937321707     0.00000000     0.00000000
 F      1   2   0     3.198921250685   165.29526511     0.00000000
 F      1   2   3     3.083647059011    85.80977665    55.55316011
 F      1   2   4     3.082918990954    85.81896221   248.89756621



           ************************************************************
           *        Program running with 2 parallel MPI-processes     *
           *              working on a common directory               *
           ************************************************************
 One Electron integrals                  ... done
 Pre-screening matrix                    ... done


           ************************************************************
           *        Program running with 2 parallel MPI-processes     *
           *              working on a common directory               *
           ************************************************************

Diagonalization of the overlap matrix:
Smallest eigenvalue                        ... 4.162e-03
Time for diagonalization                   ...    0.004 sec
Threshold for overlap eigenvalues          ... 1.000e-08
Number of eigenvalues below threshold      ... 0
Time for construction of square roots      ...    0.001 sec
Total time needed                          ...    0.005 sec

-------------------
DFT GRID GENERATION
-------------------

General Integration Accuracy     IntAcc      ...  4.340
Radial Grid Type                 RadialGrid  ... Gauss-Chebyshev
Angular Grid (max. acc.)         AngularGrid ... Lebedev-194
Angular grid pruning method      GridPruning ... 3 (G Style)
Weight generation scheme         WeightScheme... Becke
Basis function cutoff            BFCut       ...    1.0000e-11
Integration weight cutoff        WCut        ...    1.0000e-14
Grids for H and He will be reduced by one unit

# of grid points (after initial pruning)     ...  17268 (   0.0 sec)
# of grid points (after weights+screening)   ...  16926 (   0.0 sec)
nearest neighbour list constructed           ...    0.0 sec
Grid point re-assignment to atoms done       ...    0.0 sec
Grid point division into batches done        ...    0.0 sec
Reduced shell lists constructed in    0.1 sec

Total number of grid points                  ...    16926
Total number of batches                      ...      266
Average number of points per batch           ...       63
Average number of grid points per atom       ...     3385
Average number of shells per batch           ...    28.63 (62.23%)
Average number of basis functions per batch  ...    67.81 (69.19%)
Average number of large shells per batch     ...    23.40 (81.75%)
Average number of large basis fcns per batch ...    55.91 (82.46%)
Maximum spatial batch extension              ...  15.33, 20.18, 17.52 au
Average spatial batch extension              ...   1.81,  1.91,  1.93 au

Time for grid setup =    0.080 sec

--------------
SCF ITERATIONS
--------------
ITER       Energy         Delta-E        Max-DP      RMS-DP      [F,P]     Damp
               ***  Starting incremental Fock matrix formation  ***
  0   -797.2955351126   0.000000000000 0.00946968  0.00024598  0.0149476 0.7000
  1   -797.2962424570  -0.000707344403 0.00781733  0.00022660  0.0092335 0.7000
                               ***Turning on DIIS***
  2   -797.2967773112  -0.000534854220 0.01800379  0.00058282  0.0064967 0.0000
                      *** Initiating the SOSCF procedure ***
                           *** Shutting down DIIS ***
                      *** Re-Reading the Fockian *** 
                      *** Removing any level shift *** 
ITER      Energy       Delta-E        Grad      Rot      Max-DP    RMS-DP
  3   -797.29803159  -0.0012542762  0.000544  0.000544  0.001400  0.000066
               *** Restarting incremental Fock matrix formation ***
  4   -797.29803368  -0.0000020937  0.000676  0.001292  0.001567  0.000073
  5   -797.29801589   0.0000177940  0.001586  0.000935  0.001137  0.000051
  6   -797.29803839  -0.0000225045  0.000064  0.000165  0.000158  0.000007
  7   -797.29803824   0.0000001551  0.000113  0.000119  0.000086  0.000005
  8   -797.29803845  -0.0000002133  0.000023  0.000036  0.000136  0.000003
  9   -797.29803845   0.0000000012  0.000024  0.000019  0.000085  0.000002
                  ***Gradient check signals convergence***
              ***Rediagonalizing the Fockian in SOSCF/NRSCF***

               *****************************************************
               *                     SUCCESS                       *
               *           SCF CONVERGED AFTER  10 CYCLES          *
               *****************************************************

Setting up the final grid:

General Integration Accuracy     IntAcc      ...  4.670
Radial Grid Type                 RadialGrid  ... Gauss-Chebyshev
Angular Grid (max. acc.)         AngularGrid ... Lebedev-302
Angular grid pruning method      GridPruning ... 3 (G Style)
Weight generation scheme         WeightScheme... Becke
Basis function cutoff            BFCut       ...    1.0000e-11
Integration weight cutoff        WCut        ...    1.0000e-14
Grids for H and He will be reduced by one unit

# of grid points (after initial pruning)     ...  31934 (   0.0 sec)
# of grid points (after weights+screening)   ...  31252 (   0.0 sec)
nearest neighbour list constructed           ...    0.0 sec
Grid point re-assignment to atoms done       ...    0.0 sec
Grid point division into batches done        ...    0.2 sec
Reduced shell lists constructed in    0.2 sec

Total number of grid points                  ...    31252
Total number of batches                      ...      491
Average number of points per batch           ...       63
Average number of grid points per atom       ...     6250
Average number of shells per batch           ...    27.27 (59.29%)
Average number of basis functions per batch  ...    64.70 (66.02%)
Average number of large shells per batch     ...    22.23 (81.53%)
Average number of large basis fcns per batch ...    53.16 (82.15%)
Maximum spatial batch extension              ...  16.20, 17.38, 17.32 au
Average spatial batch extension              ...   1.50,  1.67,  1.65 au

Final grid set up in    0.2 sec
Final integration                            ... done (   0.1 sec)
Change in XC energy                          ...    -0.000720112
Integrated number of electrons               ...    52.000017135
Previous integrated no of electrons          ...    52.000085047
Total Energy       :         -797.29875857 Eh          -21695.60220 eV
  Last Energy change         ...   -1.1122e-08  Tolerance :   1.0000e-08
  Last MAX-Density change    ...    6.1480e-06  Tolerance :   1.0000e-07
             **** THE GBW FILE WAS UPDATED (SF4.gbw) ****
             **** DENSITY FILE WAS UPDATED (SF4.scfp) ****
             **** ENERGY FILE WAS UPDATED (SF4.en.tmp) ****
             **** THE GBW FILE WAS UPDATED (SF4.gbw) ****
             **** DENSITY FILE WAS UPDATED (SF4.scfp) ****
Total SCF time: 0 days 0 hours 0 min 2 sec 


-------------------------------------------------------------------------------
                          DFT DISPERSION CORRECTION                            
                                                                               
                              DFTD3 V3.1  Rev 1                                
                          USING Becke-Johnson damping                          
-------------------------------------------------------------------------------
-------------------------   ----------------
Dispersion correction           -0.006346063
-------------------------   ----------------

------------------   -----------------
SRB correction            -0.008983488
------------------   -----------------

-------------------------   --------------------
FINAL SINGLE POINT ENERGY      -797.314088122557
-------------------------   --------------------



           ************************************************************
           *        Program running with 2 parallel MPI-processes     *
           *              working on a common directory               *
           ************************************************************
------------------------------------------------------------------------------
                         ORCA SCF GRADIENT CALCULATION
------------------------------------------------------------------------------

Gradient of the Kohn-Sham DFT energy:
Kohn-Sham wavefunction type      ... RKS
Hartree-Fock exchange scaling    ...    0.000
Number of operators              ...    1
Number of atoms                  ...    5
Basis set dimensions             ...   98
Integral neglect threshold       ... 2.5e-11
Integral primitive cutoff        ... 2.5e-12

Nuclear repulsion gradient       ... done
One Electron Gradient            ... done
Pre-screening matrix             ... done
RI-J gradient                    ... done
Exchange-correlation gradient    ... done
Dispersion correction            ... done
SRB correction                   ... done

------------------
CARTESIAN GRADIENT
------------------

   1   S   :    0.005592601    0.001238564   -0.012269580
   2   F   :   -0.001856313   -0.000454951    0.004184233
   3   F   :   -0.001982924   -0.000532996    0.004100036
   4   F   :    0.000520110    0.009406845    0.003659830
   5   F   :   -0.002273474   -0.009657462    0.000325481

Difference to translation invariance:
           :   -0.0000000000    0.0000000000    0.0000000000

Norm of the cartesian gradient     ...    0.0206454758
RMS gradient                       ...    0.0053306389
MAX gradient                       ...    0.0122695801

-------
TIMINGS
-------

Total SCF gradient time            ...        0.766 sec

One electron gradient       ....       0.008 sec  (  1.1%)
Prescreening matrices       ....       0.034 sec  (  4.4%)
RI-J Coulomb gradient       ....       0.132 sec  ( 17.2%)
XC gradient                 ....       0.462 sec  ( 60.3%)
------------------------------------------------------------------------------
                         ORCA GEOMETRY RELAXATION STEP
------------------------------------------------------------------------------

Reading the OPT-File                    .... done
Getting information on internals        .... done
Copying old internal coords+grads       .... done
Making the new internal coordinates     .... (new redundants).... done
Validating the new internal coordinates .... (new redundants).... done
Calculating the B-matrix                .... done
Calculating the G,G- and P matrices     .... done
Transforming gradient to internals      .... done
Projecting the internal gradient        .... done
Number of atoms                         ....   5
Number of internal coordinates          ....  11
Current Energy                          ....  -797.314088123 Eh
Current gradient norm                   ....     0.020645476 Eh/bohr
Maximum allowed component of the step   ....  0.300
Current trust radius                    ....  0.300
Updating the Hessian (BFGS)             .... done
Forming the augmented Hessian           .... done
Diagonalizing the augmented Hessian     .... done
Last element of RFO vector              ....  0.980697381
Lowest eigenvalues of augmented Hessian:
 -0.004809062  0.119863156  0.140520649  0.316591392  0.416751553
Length of the computed step             ....  0.199380266
The final length of the internal step   ....  0.199380266
Converting the step to cartesian space:
 Initial RMS(Int)=    0.0601154119
Transforming coordinates:
 Iter   0:  RMS(Cart)=    0.1000647580 RMS(Int)=    0.0599232370
 Iter   1:  RMS(Cart)=    0.0044160076 RMS(Int)=    0.0041343783
 Iter   2:  RMS(Cart)=    0.0002065833 RMS(Int)=    0.0002252657
 Iter   3:  RMS(Cart)=    0.0000168720 RMS(Int)=    0.0000104677
 Iter   4:  RMS(Cart)=    0.0000012157 RMS(Int)=    0.0000013272
 Iter   5:  RMS(Cart)=    0.0000000663 RMS(Int)=    0.0000000498
done
Storing new coordinates                 .... done

                                .--------------------.
          ----------------------|Geometry convergence|-------------------------
          Item                value                   Tolerance       Converged
          ---------------------------------------------------------------------
          Energy change      -0.0043550157            0.0000010000      NO
          RMS gradient        0.0073284421            0.0000300000      NO
          MAX gradient        0.0125983370            0.0001000000      NO
          RMS step            0.0601154119            0.0006000000      NO
          MAX step            0.1084975677            0.0010000000      NO
          ........................................................
          Max(Bonds)      0.0453      Max(Angles)    6.22
          Max(Dihed)        0.00      Max(Improp)    3.88
          ---------------------------------------------------------------------

The optimization has not yet converged - more geometry cycles are needed


    ---------------------------------------------------------------------------
                         Redundant Internal Coordinates
                            (Angstroem and degrees)

        Definition                    Value    dE/dq     Step     New-Value
    ----------------------------------------------------------------------------
     1. B(F   1,S   0)                1.6928  0.000635 -0.0065    1.6863   
     2. B(F   2,S   0)                1.6928  0.000670 -0.0065    1.6863   
     3. B(F   3,S   0)                1.6318  0.009363 -0.0453    1.5865   
     4. B(F   4,S   0)                1.6314  0.009197 -0.0450    1.5864   
     5. A(F   2,S   0,F   3)           85.84 -0.004612    1.81     87.65   
     6. A(F   1,S   0,F   4)           85.82 -0.004628    1.81     87.63   
     7. A(F   2,S   0,F   4)           85.83 -0.004598    1.80     87.63   
     8. A(F   3,S   0,F   4)          110.66  0.012598   -6.22    104.44   
     9. A(F   1,S   0,F   3)           85.81 -0.004605    1.81     87.62   
    10. I(F   1,F   4,F   3,S   0)    -82.63  0.009339   -3.88    -86.51   
    11. I(F   2,F   4,F   3,S   0)     82.67 -0.009312    3.87     86.53   
    ----------------------------------------------------------------------------

         *************************************************************
         *                GEOMETRY OPTIMIZATION CYCLE   4            *
         *************************************************************
---------------------------------
CARTESIAN COORDINATES (ANGSTROEM)
---------------------------------
  S     -3.772469    2.091487   -0.526567
  F     -2.304232    1.736196    0.222971
  F     -5.329190    2.424551   -1.082611
  F     -3.993221    3.210574    0.576122
  F     -4.356227    0.770250    0.129350

----------------------------
CARTESIAN COORDINATES (A.U.)
----------------------------
  NO LB      ZA    FRAG     MASS         X           Y           Z
   0 S    16.0000    0    32.060   -7.128934    3.952338   -0.995067
   1 F     9.0000    0    18.998   -4.354368    3.280935    0.421355
   2 F     9.0000    0    18.998  -10.070710    4.581738   -2.045839
   3 F     9.0000    0    18.998   -7.546095    6.067105    1.088713
   4 F     9.0000    0    18.998   -8.232076    1.455561    0.244437

--------------------------------
INTERNAL COORDINATES (ANGSTROEM)
[...]
  3 F      9.2235     9.0000    -0.2235     1.0194     1.0194     0.0000
  4 F      9.2233     9.0000    -0.2233     1.0202     1.0202    -0.0000

  Mayer bond orders larger than 0.100000
B(  0-S ,  1-F ) :   0.7937 B(  0-S ,  2-F ) :   0.7937 B(  0-S ,  3-F ) :   0.9355 
B(  0-S ,  4-F ) :   0.9359 

-------
TIMINGS
-------

Total SCF time: 0 days 0 hours 0 min 1 sec 

Total time                  ....       1.167 sec
Sum of individual times     ....       1.080 sec  ( 92.5%)

Fock matrix formation       ....       0.746 sec  ( 63.9%)
  Split-RI-J                ....       0.338 sec  ( 45.3% of F)
  XC integration            ....       0.404 sec  ( 54.2% of F)
    Basis function eval.    ....       0.097 sec  ( 24.0% of XC)
    Density eval.           ....       0.092 sec  ( 22.8% of XC)
    XC-Functional eval.     ....       0.114 sec  ( 28.2% of XC)
    XC-Potential eval.      ....       0.075 sec  ( 18.7% of XC)
Diagonalization             ....       0.002 sec  (  0.2%)
Density matrix formation    ....       0.003 sec  (  0.2%)
Population analysis         ....       0.002 sec  (  0.2%)
Initial guess               ....       0.002 sec  (  0.2%)
Orbital Transformation      ....       0.000 sec  (  0.0%)
Orbital Orthonormalization  ....       0.002 sec  (  0.1%)
DIIS solution               ....       0.000 sec  (  0.0%)
SOSCF solution              ....       0.007 sec  (  0.6%)
Grid generation             ....       0.318 sec  ( 27.3%)


-------------------------------------------------------------------------------
                          DFT DISPERSION CORRECTION                            
                                                                               
                              DFTD3 V3.1  Rev 1                                
                          USING Becke-Johnson damping                          
-------------------------------------------------------------------------------
The B97-3c composite method is recognized
Using three-body term ABC
Active option DFTDOPT                   ...         4   

molecular C6(AA) [au] = 456.467844 


            DFT-D V3
 parameters
 s6 scaling factor         :     1.0000 
 a1 scaling factor         :     0.3700 
 s8 scaling factor         :     1.5000 
 a2 scaling factor         :     4.1000 
 Damping factor alpha9(ATM):    16.0000 
 ad hoc parameters k1-k3   :    16.0000     1.3333    -4.0000 

 Edisp/kcal,au: -3.993923295491  -0.006364721227 
 E6   /kcal   :  -1.919480481 
 E8   /kcal   :  -2.074708794 
 E6(ABC)      :   0.000265979 
 % E8         :  51.946635929 
 % E6(ABC)    :  -0.006659583 

-------------------------   ----------------
Dispersion correction           -0.006364721
-------------------------   ----------------

------------------   -----------------
SRB correction            -0.009388770
------------------   -----------------

-------------------------   --------------------
FINAL SINGLE POINT ENERGY      -797.317182483970
-------------------------   --------------------

                                *** OPTIMIZATION RUN DONE ***

                            ***************************************
                            *     ORCA property calculations      *
                            ***************************************

                                    ---------------------
                                    Active property flags
                                    ---------------------
   (+) Dipole Moment


------------------------------------------------------------------------------
                       ORCA ELECTRIC PROPERTIES CALCULATION
------------------------------------------------------------------------------

Dipole Moment Calculation                       ... on
Quadrupole Moment Calculation                   ... off
Polarizability Calculation                      ... off
GBWName                                         ... SF4.gbw
Electron density file                           ... SF4.scfp
The origin for moment calculation is the CENTER OF MASS  = (-7.424653,  3.877991 -0.348594)

-------------
DIPOLE MOMENT
-------------
                                X             Y             Z
Electronic contribution:     -0.10661      -0.02728       0.23237
Nuclear contribution   :      0.24676       0.06175      -0.53927
                        -----------------------------------------
Total Dipole Moment    :      0.14015       0.03446      -0.30690
                        -----------------------------------------
Magnitude (a.u.)       :      0.33914
Magnitude (Debye)      :      0.86203



--------------------
Rotational spectrum 
--------------------
 
Rotational constants in cm-1:     0.206771     0.126424     0.100434 
Rotational constants in MHz :  6198.842311  3790.100284  3010.921609 

 Dipole components along the rotational axes: 
x,y,z [a.u.] :    -0.000125    -0.000847     0.339140 
x,y,z [Debye]:    -0.000319    -0.002152     0.862026 

 


           ************************************************************
           *        Program running with 2 parallel MPI-processes     *
           *              working on a common directory               *
           ************************************************************

-------------------------------------------------------------------------------
                               ORCA SCF HESSIAN
-------------------------------------------------------------------------------

Hessian of the Kohn-Sham DFT energy:
Kohn-Sham wavefunction type                      ... RKS
Hartree-Fock exchange scaling                    ...    0.000
Number of operators                              ...    1
Number of atoms                                  ...    5
Basis set dimensions                             ...   98
Integral neglect threshold                       ... 2.5e-11
Integral primitive cutoff                        ... 2.5e-12

Setting up DFT Hessian calculations              ... 
Electron density on the grid                     ... found on disk
Electron density on the final grid               ... found on disk
Building xc-kernel on the grid                   ... done   (      0.1 sec)
Building xc-kernel on the final grid             ... done   (      0.1 sec)
                                                     done   (      0.2 sec)

Nuclear repulsion Hessian                        ... done   (      0.0 sec)

----------------------------------------------
Forming right-hand sides of CP-SCF equations     ...
----------------------------------------------
One electron integral derivatives                ... done   (      0.1 sec)
Transforming the overlap derivative matrices     ... done   (      0.0 sec)
Making the Q(x) pseudodensities                  ... done   (      0.0 sec)
Adding the E*S(x)*S(y) terms to the Hessian      ... done   (      0.0 sec)
Calculating energy weighted overlap derivatives  ... done   (      0.0 sec)
Two electron integral derivatives (RI)           ... done   (      0.3 sec)
Exchange-correlation integral derivatives        ... done   (      2.6 sec)
tr(F(y)Q(x)) contribution to the Hessian         ... done   (      0.0 sec)
Response fock operator R(S(x)) (RI)              ... done   (      0.3 sec)
XC Response fock operator R(S(x))                ... done   (      0.7 sec)
tr(F(y)S(x)) contribution to the Hessian         ... done   (      0.0 sec)
Transforming and finalizing RHSs                 ... done   (      0.0 sec)

----------------------------------------------
Solving the CP-SCF equations (RI)                ...
----------------------------------------------
     CP-SCF ITERATION   0: 
     CP-SCF ITERATION   1:      0.003140865186
     CP-SCF ITERATION   2:      0.000381616683
     CP-SCF ITERATION   3:      0.000031979162
     CP-SCF ITERATION   4:      0.000004227569
     CP-SCF ITERATION   5:      0.000000315552
     CP-SCF ITERATION   6:      0.000000005590

                                                 ... done   (      6.7 sec)
Forming perturbed density Hessian contributions  ... done   (      0.0 sec)
Making the perturbed densities                   ... done   (      0.0 sec)
2nd integral derivative contribs (RI)            ... done   (      0.6 sec)
Exchange-correlation Hessian                     ... done   (      2.6 sec)
Dispersion correction in the Hessian             ... done   (      0.4 sec)
SRB correction in the Hessian                    ... done   (      0.0 sec)
Dipol derivatives                                ... done   (      0.1 sec)

Total SCF Hessian time: 0 days 0 hours 0 min 14 sec 

Writing the Hessian file to the disk             ... done


Maximum memory used throughout the entire calculation: 145.7 MB

-----------------------
VIBRATIONAL FREQUENCIES
-----------------------

Scaling factor for frequencies =  1.000000000  (already applied!)

   0:         0.00 cm**-1
   1:         0.00 cm**-1
   2:         0.00 cm**-1
   3:         0.00 cm**-1
   4:         0.00 cm**-1
   5:         0.00 cm**-1
   6:       196.01 cm**-1
   7:       298.47 cm**-1
   8:       407.32 cm**-1
   9:       459.61 cm**-1
  10:       466.16 cm**-1
  11:       510.75 cm**-1
  12:       700.99 cm**-1
  13:       775.10 cm**-1
  14:       806.31 cm**-1


------------
NORMAL MODES
------------

These modes are the Cartesian displacements weighted by the diagonal matrix
M(i,i)=1/sqrt(m[i]) where m[i] is the mass of the displaced atom
Thus, these vectors are normalized but *not* orthogonal

                  0          1          2          3          4          5    
      0       0.000000   0.000000   0.000000   0.000000   0.000000   0.000000
      1       0.000000   0.000000   0.000000   0.000000   0.000000   0.000000
      2       0.000000   0.000000   0.000000   0.000000   0.000000   0.000000
      3       0.000000   0.000000   0.000000   0.000000   0.000000   0.000000
      4       0.000000   0.000000   0.000000   0.000000   0.000000   0.000000
      5       0.000000   0.000000   0.000000   0.000000   0.000000   0.000000
      6       0.000000   0.000000   0.000000   0.000000   0.000000   0.000000
      7       0.000000   0.000000   0.000000   0.000000   0.000000   0.000000
      8       0.000000   0.000000   0.000000   0.000000   0.000000   0.000000
      9       0.000000   0.000000   0.000000   0.000000   0.000000   0.000000
     10       0.000000   0.000000   0.000000   0.000000   0.000000   0.000000
     11       0.000000   0.000000   0.000000   0.000000   0.000000   0.000000
     12       0.000000   0.000000   0.000000   0.000000   0.000000   0.000000
     13       0.000000   0.000000   0.000000   0.000000   0.000000   0.000000
     14       0.000000   0.000000   0.000000   0.000000   0.000000   0.000000
                  6          7          8          9         10         11    
      0      -0.017711   0.054219  -0.006124  -0.175555   0.121335  -0.013747
      1      -0.005430   0.362150  -0.000323  -0.038614  -0.033795  -0.003710
      2       0.039926   0.066701  -0.001897   0.362416   0.076819   0.028800
      3       0.237311  -0.081097  -0.069721   0.265680   0.479007   0.557888
      4       0.036622  -0.562338  -0.401360   0.004789  -0.058235  -0.145291
      5      -0.393564  -0.102942  -0.070140  -0.227220  -0.123717   0.345829
      6       0.142003  -0.082957   0.054867  -0.032850   0.228500  -0.636905
      7       0.058206  -0.558527   0.409820   0.075230  -0.091457   0.125928
      8      -0.433511  -0.101120   0.062172  -0.395891   0.389217  -0.169550
      9      -0.223114  -0.039035  -0.500683   0.110892  -0.465549   0.025279
     10      -0.366233   0.237405   0.115120   0.501718   0.137261  -0.163985
     11       0.321204   0.204373  -0.216433   0.099173  -0.198348  -0.144702
     12      -0.126312   0.111592   0.525871  -0.047465  -0.446716   0.076938
     13       0.280567   0.272315  -0.123035  -0.516574   0.069462   0.189609
     14       0.438494  -0.112871   0.227601  -0.087655  -0.196788  -0.080178
                  12         13         14    
      0       0.637734  -0.084469   0.235371
      1      -0.148231  -0.540688   0.059366
      2       0.274103  -0.099275  -0.516713
      3      -0.381154   0.004354   0.135087
      4       0.104858   0.015963  -0.045893
      5      -0.272791   0.004316   0.144719
      6      -0.465347   0.004459  -0.200548
      7       0.087828   0.016156   0.029620
      8      -0.091330   0.002599  -0.001278
      9      -0.117731  -0.087817  -0.112253
     10       0.029597   0.403476   0.314026
     11      -0.048072   0.419588   0.429707
     12      -0.111974   0.221550  -0.219486
     13       0.027863   0.476840  -0.397936
     14      -0.050369  -0.258972   0.298830


-----------
IR SPECTRUM
-----------

 Mode    freq (cm**-1)   T**2         TX         TY         TZ
-------------------------------------------------------------------
   6:       196.01    1.109664  ( -0.424770  -0.131722   0.954926)
   7:       298.47    9.879814  (  0.450747   3.059633   0.561502)
   8:       407.32    0.003516  ( -0.055703  -0.002145  -0.020206)
   9:       459.61   17.556195  ( -1.674258  -0.406710   3.819377)
  10:       466.16    1.104963  ( -1.021733   0.164444  -0.184346)
  11:       510.75    3.348174  ( -0.777822  -0.191849   1.645102)
  12:       700.99  596.734862  ( 21.949116  -5.063927   9.451339)
  13:       775.10  179.631012  ( -2.063716 -13.018623  -2.426425)
  14:       806.31  107.591393  (  4.267139   1.081478  -9.392195)

The first frequency considered to be a vibration is 6
The total number of vibrations considered is 9


--------------------------
THERMOCHEMISTRY AT 298.15K
--------------------------

Temperature         ... 298.15 K
Pressure            ... 1.00 atm
Total Mass          ... 108.05 AMU

Throughout the following assumptions are being made:
  (1) The electronic state is orbitally nondegenerate
  (2) There are no thermally accessible electronically excited states
  (3) Hindered rotations indicated by low frequency modes are not
      treated as such but are treated as vibrations and this may
      cause some error
  (4) All equations used are the standard statistical mechanics
      equations for an ideal gas
  (5) All vibrations are strictly harmonic

freq.     196.01  E(vib)   ...       0.36 
freq.     298.47  E(vib)   ...       0.26 
freq.     407.32  E(vib)   ...       0.19 
freq.     459.61  E(vib)   ...       0.16 
freq.     466.16  E(vib)   ...       0.16 
freq.     510.75  E(vib)   ...       0.14 
freq.     700.99  E(vib)   ...       0.07 
freq.     775.10  E(vib)   ...       0.05 
freq.     806.31  E(vib)   ...       0.05 

------------
INNER ENERGY
------------

The inner energy is: U= E(el) + E(ZPE) + E(vib) + E(rot) + E(trans)
    E(el)   - is the total energy from the electronic structure calculation
              = E(kin-el) + E(nuc-el) + E(el-el) + E(nuc-nuc)
    E(ZPE)  - the the zero temperature vibrational energy from the frequency calculation
    E(vib)  - the the finite temperature correction to E(ZPE) due to population
              of excited vibrational states
    E(rot)  - is the rotational thermal energy
    E(trans)- is the translational thermal energy

Summary of contributions to the inner energy U:
Electronic energy                ...   -797.31718248 Eh
Zero point energy                ...      0.01052679 Eh       6.61 kcal/mol
Thermal vibrational correction   ...      0.00228867 Eh       1.44 kcal/mol
Thermal rotational correction    ...      0.00141627 Eh       0.89 kcal/mol
Thermal translational correction ...      0.00141627 Eh       0.89 kcal/mol
-----------------------------------------------------------------------
Total thermal energy                   -797.30153449 Eh


Summary of corrections to the electronic energy:
(perhaps to be used in another calculation)
Total thermal correction                  0.00512121 Eh       3.21 kcal/mol
Non-thermal (ZPE) correction              0.01052679 Eh       6.61 kcal/mol
-----------------------------------------------------------------------
Total correction                          0.01564799 Eh       9.82 kcal/mol


--------
ENTHALPY
--------

The enthalpy is H = U + kB*T
                kB is Boltzmann's constant
Total free energy                 ...   -797.30153449 Eh 
Thermal Enthalpy correction       ...      0.00094421 Eh       0.59 kcal/mol
-----------------------------------------------------------------------
Total Enthalpy                    ...   -797.30059028 Eh


Note: Only C1 symmetry has been detected, increase convergence thresholds 
      if your molecule has a higher symmetry. Symmetry factor of 1.0 is   
      used for the rotational entropy correction. 
 

Note: Rotational entropy computed according to Herzberg 
Infrared and Raman Spectra, Chapter V,1, Van Nostrand Reinhold, 1945 
Point Group:  C1, Symmetry Number:   1  
Rotational constants in cm-1:     0.206771     0.126424     0.100434 

Vibrational entropy computed according to the QRRHO of S. Grimme
Chem.Eur.J. 2012 18 9955


-------
ENTROPY
-------

The entropy contributions are T*S = T*(S(el)+S(vib)+S(rot)+S(trans))
     S(el)   - electronic entropy
     S(vib)  - vibrational entropy
     S(rot)  - rotational entropy
     S(trans)- translational entropy
The entropies will be listed as mutliplied by the temperature to get
units of energy

Electronic entropy                ...      0.00000000 Eh      0.00 kcal/mol
Vibrational entropy               ...      0.00352849 Eh      2.21 kcal/mol
Rotational entropy                ...      0.01231621 Eh      7.73 kcal/mol
Translational entropy             ...      0.01898092 Eh     11.91 kcal/mol
-----------------------------------------------------------------------
Final entropy term                ...      0.03482562 Eh     21.85 kcal/mol

In case the symmetry of your molecule has not been determined correctly
or in case you have a reason to use a different symmetry number we print 
out the resulting rotational entropy values for sn=1,12 :
 --------------------------------------------------------
|  sn= 1 | S(rot)=       0.01231621 Eh      7.73 kcal/mol|
|  sn= 2 | S(rot)=       0.01166176 Eh      7.32 kcal/mol|
|  sn= 3 | S(rot)=       0.01127893 Eh      7.08 kcal/mol|
|  sn= 4 | S(rot)=       0.01100730 Eh      6.91 kcal/mol|
|  sn= 5 | S(rot)=       0.01079661 Eh      6.77 kcal/mol|
|  sn= 6 | S(rot)=       0.01062447 Eh      6.67 kcal/mol|
|  sn= 7 | S(rot)=       0.01047892 Eh      6.58 kcal/mol|
|  sn= 8 | S(rot)=       0.01035285 Eh      6.50 kcal/mol|
|  sn= 9 | S(rot)=       0.01024164 Eh      6.43 kcal/mol|
|  sn=10 | S(rot)=       0.01014216 Eh      6.36 kcal/mol|
|  sn=11 | S(rot)=       0.01005217 Eh      6.31 kcal/mol|
|  sn=12 | S(rot)=       0.00997001 Eh      6.26 kcal/mol|
 --------------------------------------------------------


-------------------
GIBBS FREE ENERGY
-------------------

The Gibbs free energy is G = H - T*S

Total enthalpy                    ...   -797.30059028 Eh 
Total entropy correction          ...     -0.03482562 Eh    -21.85 kcal/mol
-----------------------------------------------------------------------
Final Gibbs free energy         ...   -797.33541590 Eh

For completeness - the Gibbs free energy minus the electronic energy
G-E(el)                           ...     -0.01823342 Eh    -11.44 kcal/mol


Timings for individual modules:

Sum of individual times         ...       54.166 sec (=   0.903 min)
GTO integral calculation        ...        3.776 sec (=   0.063 min)   7.0 %
SCF iterations                  ...       24.067 sec (=   0.401 min)  44.4 %
SCF Gradient evaluation         ...        9.643 sec (=   0.161 min)  17.8 %
Geometry relaxation             ...        0.878 sec (=   0.015 min)   1.6 %
Analytical frequency calculation...       15.802 sec (=   0.263 min)  29.2 %
                             ****ORCA TERMINATED NORMALLY****
TOTAL RUN TIME: 0 days 0 hours 0 minutes 55 seconds 980 msec
