
                                 *****************
                                 * O   R   C   A *
                                 *****************

           --- An Ab Initio, DFT and Semiempirical electronic structure package ---

                  #######################################################
                  #                        -***-                        #
                  #          Department of theory and spectroscopy      #
                  #               Directorship: Frank Neese             #
                  #        Max Planck Institute fuer Kohlenforschung    #
                  #                Kaiser Wilhelm Platz 1               #
                  #                 D-45470 Muelheim/Ruhr               #
                  #                      Germany                        #
                  #                                                     #
                  #                  All rights reserved                #
                  #                        -***-                        #
                  #######################################################


                         Program Version 4.2.1 -  RELEASE  -


 With contributions from (in alphabetic order):
   Daniel Aravena         : Magnetic Suceptibility
   Michael Atanasov       : Ab Initio Ligand Field Theory (pilot matlab implementation)
   Alexander A. Auer      : GIAO ZORA, VPT2
   Ute Becker             : Parallelization
   Giovanni Bistoni       : ED, misc. LED, open-shell LED, HFLD
   Martin Brehm           : Molecular dynamics
   Dmytro Bykov           : SCF Hessian
   Vijay G. Chilkuri      : MRCI spin determinant printing, contributions to CSF-ICE
   Dipayan Datta          : RHF DLPNO-CCSD density
   Achintya Kumar Dutta   : EOM-CC, STEOM-CC
   Dmitry Ganyushin       : Spin-Orbit,Spin-Spin,Magnetic field MRCI
   Miquel Garcia          : C-PCM Hessian, Gaussian charge scheme
   Yang Guo               : DLPNO-NEVPT2, CIM, IAO-localization
   Andreas Hansen         : Spin unrestricted coupled pair/coupled cluster methods
   Benjamin Helmich-Paris : CASSCF linear response (MC-RPA)
   Lee Huntington         : MR-EOM, pCC
   Robert Izsak           : Overlap fitted RIJCOSX, COSX-SCS-MP3, EOM
   Christian Kollmar      : KDIIS, OOCD, Brueckner-CCSD(T), CCSD density
   Simone Kossmann        : Meta GGA functionals, TD-DFT gradient, OOMP2, MP2 Hessian
   Martin Krupicka        : AUTO-CI
   Lucas Lang             : DCDCAS
   Dagmar Lenk            : GEPOL surface, SMD
   Dimitrios Liakos       : Extrapolation schemes; Compound Job, initial MDCI parallelization
   Dimitrios Manganas     : Further ROCIS development; embedding schemes
   Dimitrios Pantazis     : SARC Basis sets
   Taras Petrenko         : DFT Hessian,TD-DFT gradient, ASA, ECA, R-Raman, ABS, FL, XAS/XES, NRVS
   Peter Pinski           : DLPNO-MP2, DLPNO-MP2 Gradient
   Christoph Reimann      : Effective Core Potentials
   Marius Retegan         : Local ZFS, SOC
   Christoph Riplinger    : Optimizer, TS searches, QM/MM, DLPNO-CCSD(T), (RO)-DLPNO pert. Triples
   Tobias Risthaus        : Range-separated hybrids, TD-DFT gradient, RPA, STAB
   Michael Roemelt        : Original ROCIS implementation
   Masaaki Saitow         : Open-shell DLPNO-CCSD energy and density
   Barbara Sandhoefer     : DKH picture change effects
   Avijit Sen             : IP-ROCIS
   Kantharuban Sivalingam : CASSCF convergence, NEVPT2, FIC-MRCI
   Bernardo de Souza      : ESD, SOC TD-DFT
   Georgi Stoychev        : AutoAux, RI-MP2 NMR
   Willem Van den Heuvel  : Paramagnetic NMR
   Boris Wezisla          : Elementary symmetry handling
   Frank Wennmohs         : Technical directorship


 We gratefully acknowledge several colleagues who have allowed us to
 interface, adapt or use parts of their codes:
   Stefan Grimme, W. Hujo, H. Kruse,             : VdW corrections, initial TS optimization,
                  C. Bannwarth                     DFT functionals, gCP, sTDA/sTD-DF
   Ed Valeev, F. Pavosevic, A. Kumar             : LibInt (2-el integral package), F12 methods
   Garnet Chan, S. Sharma, J. Yang, R. Olivares  : DMRG
   Ulf Ekstrom                                   : XCFun DFT Library
   Mihaly Kallay                                 : mrcc  (arbitrary order and MRCC methods)
   Andreas Klamt, Michael Diedenhofen            : otool_cosmo (COSMO solvation model)
   Jiri Pittner, Ondrej Demel                    : Mk-CCSD
   Frank Weinhold                                : gennbo (NPA and NBO analysis)
   Christopher J. Cramer and Donald G. Truhlar   : smd solvation model
   Lars Goerigk                                  : TD-DFT with DH, B97 family of functionals
   V. Asgeirsson, H. Jonsson                     : NEB implementation
   FAccTs GmbH                                   : IRC, NEB, NEB-TS, Multilevel, MM, QM/MM, CI optimization
   S Lehtola, MJT Oliveira, MAL Marques          : LibXC Library


 Your calculation uses the libint2 library for the computation of 2-el integrals
 For citations please refer to: http://libint.valeyev.net

 Your ORCA version has been built with support for libXC version: 4.2.3
 For citations please refer to: https://tddft.org/programs/libxc/

 This ORCA versions uses:
   CBLAS   interface :  Fast vector & matrix operations
   LAPACKE interface :  Fast linear algebra routines
   SCALAPACK package :  Parallel linear algebra routines


Your calculation utilizes the geometrical counterpoise correction gCP
Please cite in your paper:
H.Kruse, S. Grimme J.Chem.Phys., 136, (2012), 154101 
   

Your calculation utilizes the atom-pairwise dispersion correction
with the Becke-Johnson damping scheme (D3BJ)
Cite in your paper:
S.Grimme, S.Ehrlich, L.Goerigk, J Comput Chem, (2011), 32, 1456–1465 
S.Grimme, J.Antony, S.Ehrlich and H.Krieg, J.Chem.Phys., 132, (2010), 154104 
   

----- Orbital basis set information -----
Your calculation utilizes the basis: 6-31G*
   H-He, Li-Ne : W. J. Hehre, R. Ditchfield and J.A. Pople, J. Chem. Phys. 56, 2257 (1972).
                 Note: He and Ne are unpublished basis sets taken from the Gaussian program.
                 Note: Li and B from J. D. Dill and J. A. Pople, J. Chem. Phys. 62, 2921 (1975).
   Na - Ar     : M. M. Francl, W. J. Pietro, W. J. Hehre, J. S. Binkley, M. S. Gordon, 
                 D. J. DeFrees and J. A. Pople, J. Chem. Phys. 77, 3654 (1982).
   K - Zn      : V. A. Rassolov, J. A. Pople, M. A. Ratner, and T. L. Windus, J. Chem. Phys. 109, 1223 (1998).

================================================================================
                                        WARNINGS
                       Please study these warnings very carefully!
================================================================================


WARNING: Geometry Optimization
  ===> : Switching off AutoStart
         For restart on a previous wavefunction, please use MOREAD

INFO   : the flag for use of LIBINT has been found!

================================================================================
                                       INPUT FILE
================================================================================
NAME = SF6.inp
|  1> ! B3LYP D3BJ gCP(DFT/631GD) 6-31G* Opt Freq TightOpt TightSCF Grid4 FinalGrid5 LargePrint
|  2> 
|  3> %pal
|  4>  nprocs 12
|  5> end
|  6> 
|  7> *xyz 0 1
|  8> S       -2.1948405936      2.3954811731      0.4564124627                 
|  9> F       -1.9949556555      2.3045610169      2.1526985004                 
| 10> F       -3.3347627118      1.1219017353      0.5222444507                 
| 11> F       -1.0546602846      3.6688448345      0.3904554846                 
| 12> F       -3.4544010852      3.5336491224      0.6660068424                 
| 13> F       -0.9355547221      1.2570707175      0.2467716111                 
| 14> F       -2.3947831513      2.4869759810     -1.2399439500                 
| 15> *
| 16> 
| 17>                          ****END OF INPUT****
================================================================================

                       *****************************
                       * Geometry Optimization Run *
                       *****************************

Geometry optimization settings:
Update method            Update   .... BFGS
Choice of coordinates    CoordSys .... Z-matrix Internals
Initial Hessian          InHess   .... Almoef's Model

Convergence Tolerances:
Energy Change            TolE     ....  1.0000e-06 Eh
Max. Gradient            TolMAXG  ....  1.0000e-04 Eh/bohr
RMS Gradient             TolRMSG  ....  3.0000e-05 Eh/bohr
Max. Displacement        TolMAXD  ....  1.0000e-03 bohr
RMS Displacement         TolRMSD  ....  6.0000e-04 bohr
Strict Convergence                ....  False
------------------------------------------------------------------------------
                        ORCA OPTIMIZATION COORDINATE SETUP
------------------------------------------------------------------------------

The optimization will be done in new redundant internal coordinates
Making redundant internal coordinates   ...  (new redundants) done
Evaluating the initial hessian          ...  (Almloef) done
Evaluating the coordinates              ...  done
Calculating the B-matrix                .... done
Calculating the G-matrix                .... done
Diagonalizing the G-matrix              .... done
The first mode is                       ....    3
The number of degrees of freedom        ....   15

    -----------------------------------------------------------------
                    Redundant Internal Coordinates


    -----------------------------------------------------------------
         Definition                    Initial Value    Approx d2E/dq
    -----------------------------------------------------------------
      1. B(F   1,S   0)                  1.7104         0.432008   
      2. B(F   2,S   0)                  1.7105         0.431937   
      3. B(F   3,S   0)                  1.7105         0.431911   
      4. B(F   4,S   0)                  1.7105         0.431896   
      5. B(F   5,S   0)                  1.7105         0.431952   
      6. B(F   6,S   0)                  1.7105         0.431838   
      7. A(F   1,S   0,F   3)           89.9951         0.416770   
      8. A(F   1,S   0,F   4)           89.9945         0.416767   
      9. A(F   2,S   0,F   4)           89.9990         0.416755   
     10. A(F   3,S   0,F   4)           90.0127         0.416750   
     11. A(F   1,S   0,F   5)           90.0077         0.416777   
     12. A(F   2,S   0,F   5)           89.9889         0.416764   
     13. A(F   3,S   0,F   5)           89.9994         0.416760   
     14. A(F   2,S   0,F   6)           90.0055         0.416745   
     15. A(F   3,S   0,F   6)           89.9917         0.416740   
     16. A(F   4,S   0,F   6)           89.9916         0.416738   
     17. A(F   5,S   0,F   6)           90.0062         0.416747   
     18. A(F   1,S   0,F   2)           90.0076         0.416774   
    -----------------------------------------------------------------

Number of atoms                         .... 7
Number of degrees of freedom            .... 18

         *************************************************************
         *                GEOMETRY OPTIMIZATION CYCLE   1            *
         *************************************************************
---------------------------------
CARTESIAN COORDINATES (ANGSTROEM)
---------------------------------
  S     -2.194841    2.395481    0.456412
  F     -1.994956    2.304561    2.152699
  F     -3.334763    1.121902    0.522244
  F     -1.054660    3.668845    0.390455
  F     -3.454401    3.533649    0.666007
  F     -0.935555    1.257071    0.246772
  F     -2.394783    2.486976   -1.239944

----------------------------
CARTESIAN COORDINATES (A.U.)
----------------------------
  NO LB      ZA    FRAG     MASS         X           Y           Z
   0 S    16.0000    0    32.060   -4.147648    4.526803    0.862495
   1 F     9.0000    0    18.998   -3.769920    4.354989    4.068011
   2 F     9.0000    0    18.998   -6.301788    2.120087    0.986899
   3 F     9.0000    0    18.998   -1.993019    6.933112    0.737854
   4 F     9.0000    0    18.998   -6.527872    6.677629    1.258571
   5 F     9.0000    0    18.998   -1.767942    2.375519    0.466331
   6 F     9.0000    0    18.998   -4.525484    4.699704   -2.343154

--------------------------------
INTERNAL COORDINATES (ANGSTROEM)
--------------------------------
 S      0   0   0     0.000000000000     0.00000000     0.00000000
 F      1   0   0     1.710440523660     0.00000000     0.00000000
 F      1   2   0     1.710485565736    90.00762470     0.00000000
 F      1   2   3     1.710501819398    89.99513258   180.01169049
 F      1   2   3     1.710511244282    89.99446883    89.99898915
 F      1   2   3     1.710476120336    90.00771827   270.01110772
 F      1   2   3     1.710547691577   179.98084496   133.29935759

---------------------------
INTERNAL COORDINATES (A.U.)
---------------------------
 S      0   0   0     0.000000000000     0.00000000     0.00000000
 F      1   0   0     3.232264158078     0.00000000     0.00000000
 F      1   2   0     3.232349275267    90.00762470     0.00000000
 F      1   2   3     3.232379990237    89.99513258   180.01169049
 F      1   2   3     3.232397800686    89.99446883    89.99898915
 F      1   2   3     3.232331426047    90.00771827   270.01110772
 F      1   2   3     3.232466676092   179.98084496   133.29935759

---------------------
BASIS SET INFORMATION
---------------------
There are 2 groups of distinct atoms

 Group   1 Type S   : 16s10p1d contracted to 4s3p1d pattern {6631/631/1}
 Group   2 Type F   : 10s4p1d contracted to 3s2p1d pattern {631/31/1}

Atom   0S    basis set group =>   1
Atom   1F    basis set group =>   2
Atom   2F    basis set group =>   2
Atom   3F    basis set group =>   2
Atom   4F    basis set group =>   2
Atom   5F    basis set group =>   2
Atom   6F    basis set group =>   2

-------------------------
BASIS SET IN INPUT FORMAT
-------------------------

 # Basis set for element : F 
 NewGTO F 
 S 6 
   1    7001.7130900000      0.0018196200
   2    1051.3660900000      0.0139160800
   3     239.2856900000      0.0684053199
   4      67.3974453000      0.2331857596
   5      21.5199573000      0.4712674391
   6       7.4031013000      0.3566185493
 S 3 
   1      20.8479528000     -0.1085069803
   2       4.8083083400     -0.1464516604
   3       1.3440698600      1.1286885835
 P 3 
   1      20.8479528000      0.0716287200
   2       4.8083083400      0.3459121001
   3       1.3440698600      0.7224699603
 S 1 
   1       0.3581513900      1.0000000000
 P 1 
   1       0.3581513900      1.0000000000
 D 1 
   1       0.8000000000      1.0000000000
  end;

 # Basis set for element : S 
 NewGTO S 
 S 6 
   1   21917.1000000000      0.0018690012
   2    3301.4900000000      0.0142300092
   3     754.1460000000      0.0696960451
   4     212.7110000000      0.2384871542
   5      67.9896000000      0.4833073125
   6      23.0515000000      0.3380742186
 S 6 
   1     423.7350000000     -0.0023767005
   2     100.7100000000     -0.0316930066
   3      32.1599000000     -0.1133170236
   4      11.8079000000      0.0560900117
   5       4.6311000000      0.5922551234
   6       1.8702500000      0.4550060948
 P 6 
   1     423.7350000000      0.0040610003
   2     100.7100000000      0.0306810024
   3      32.1599000000      0.1304520103
   4      11.8079000000      0.3272050259
   5       4.6311000000      0.4528510358
   6       1.8702500000      0.2560420203
 S 3 
   1       2.6158400000     -0.2503731142
   2       0.9221670000      0.0669567631
   3       0.3412870000      1.0545062691
 P 3 
   1       2.6158400000     -0.0145109929
   2       0.9221670000      0.3102628472
   3       0.3412870000      0.7544826285
 S 1 
   1       0.1171670000      1.0000000000
 P 1 
   1       0.1171670000      1.0000000000
 D 1 
   1       0.6500000000      1.0000000000
  end;



           ************************************************************
           *        Program running with 12 parallel MPI-processes    *
           *              working on a common directory               *
           ************************************************************
------------------------------------------------------------------------------
                           ORCA GTO INTEGRAL CALCULATION
------------------------------------------------------------------------------

                         BASIS SET STATISTICS AND STARTUP INFO

 # of primitive gaussian shells          ...  117
 # of primitive gaussian functions       ...  213
 # of contracted shells                  ...   44
 # of contracted basis functions         ...  102
 Highest angular momentum                ...    2
 Maximum contraction depth               ...    6
 Integral package used                   ... LIBINT
 Integral threshhold            Thresh   ...  2.500e-11
 Primitive cut-off              TCut     ...  2.500e-12


------------------------------ INTEGRAL EVALUATION ----------------------------


 * One electron integrals 
 Pre-screening matrix                    ... done
 Shell pair data                         ... done (   0.002 sec)



           ************************************************************
           *        Program running with 12 parallel MPI-processes    *
           *              working on a common directory               *
           ************************************************************
-------------------------------------------------------------------------------
                                 ORCA SCF
-------------------------------------------------------------------------------

------------
SCF SETTINGS
------------
Hamiltonian:
 Density Functional     Method          .... DFT(GTOs)
 Exchange Functional    Exchange        .... B88
   X-Alpha parameter    XAlpha          ....  0.666667
   Becke's b parameter  XBeta           ....  0.004200
 Correlation Functional Correlation     .... LYP
 LDA part of GGA corr.  LDAOpt          .... VWN-5
 Gradients option       PostSCFGGA      .... off
 Hybrid DFT is turned on
   Fraction HF Exchange ScalHFX         ....  0.200000
   Scaling of DF-GGA-X  ScalDFX         ....  0.720000
   Scaling of DF-GGA-C  ScalDFC         ....  0.810000
   Scaling of DF-LDA-C  ScalLDAC        ....  1.000000
   Perturbative correction              ....  0.000000
   Density functional embedding theory  .... OFF
   NL short-range parameter             ....  4.800000


General Settings:
 Integral files         IntName         .... SF6
 Hartree-Fock type      HFTyp           .... RHF
 Total Charge           Charge          ....    0
 Multiplicity           Mult            ....    1
 Number of Electrons    NEL             ....   70
 Basis Dimension        Dim             ....  102
 Nuclear Repulsion      ENuc            ....    517.5182420078 Eh

Convergence Acceleration:
 DIIS                   CNVDIIS         .... on
   Start iteration      DIISMaxIt       ....    12
   Startup error        DIISStart       ....  0.200000
   # of expansion vecs  DIISMaxEq       ....     5
   Bias factor          DIISBfac        ....   1.050
   Max. coefficient     DIISMaxC        ....  10.000
 Newton-Raphson         CNVNR           .... off
 SOSCF                  CNVSOSCF        .... on
   Start iteration      SOSCFMaxIt      ....   150
   Startup grad/error   SOSCFStart      ....  0.003300
 Level Shifting         CNVShift        .... on
   Level shift para.    LevelShift      ....    0.2500
   Turn off err/grad.   ShiftErr        ....    0.0010
 Zerner damping         CNVZerner       .... off
 Static damping         CNVDamp         .... on
   Fraction old density DampFac         ....    0.7000
   Max. Damping (<1)    DampMax         ....    0.9800
   Min. Damping (>=0)   DampMin         ....    0.0000
   Turn off err/grad.   DampErr         ....    0.1000
 Fernandez-Rico         CNVRico         .... off

SCF Procedure:
 Maximum # iterations   MaxIter         ....   125
 SCF integral mode      SCFMode         .... Direct
   Integral package                     .... LIBINT
 Reset frequency        DirectResetFreq ....    20
 Integral Threshold     Thresh          ....  2.500e-11 Eh
 Primitive CutOff       TCut            ....  2.500e-12 Eh

Convergence Tolerance:
 Convergence Check Mode ConvCheckMode   .... Total+1el-Energy
 Convergence forced     ConvForced      .... 0
 Energy Change          TolE            ....  1.000e-08 Eh
 1-El. energy change                    ....  1.000e-05 Eh
 Orbital Gradient       TolG            ....  1.000e-05
 Orbital Rotation angle TolX            ....  1.000e-05
 DIIS Error             TolErr          ....  5.000e-07


Diagonalization of the overlap matrix:
Smallest eigenvalue                        ... 1.903e-02
Time for diagonalization                   ...    0.004 sec
Threshold for overlap eigenvalues          ... 1.000e-08
Number of eigenvalues below threshold      ... 0
Time for construction of square roots      ...    0.008 sec
Total time needed                          ...    0.013 sec

-------------------
DFT GRID GENERATION
-------------------

General Integration Accuracy     IntAcc      ...  4.670
Radial Grid Type                 RadialGrid  ... Gauss-Chebyshev
Angular Grid (max. acc.)         AngularGrid ... Lebedev-302
Angular grid pruning method      GridPruning ... 3 (G Style)
Weight generation scheme         WeightScheme... Becke
Basis function cutoff            BFCut       ...    1.0000e-11
Integration weight cutoff        WCut        ...    1.0000e-14
Grids for H and He will be reduced by one unit

# of grid points (after initial pruning)     ...  44478 (   0.0 sec)
# of grid points (after weights+screening)   ...  42746 (   0.0 sec)
nearest neighbour list constructed           ...    0.0 sec
Grid point re-assignment to atoms done       ...    0.0 sec
Grid point division into batches done        ...    0.2 sec
Reduced shell lists constructed in    0.3 sec

Total number of grid points                  ...    42746
Total number of batches                      ...      672
Average number of points per batch           ...       63
Average number of grid points per atom       ...     6107
Average number of shells per batch           ...    37.86 (86.04%)
Average number of basis functions per batch  ...    94.84 (92.98%)
Average number of large shells per batch     ...    34.14 (90.18%)
Average number of large basis fcns per batch ...    88.77 (93.60%)
Maximum spatial batch extension              ...   1.67,  1.57,  1.30 au
Average spatial batch extension              ...   0.08,  0.08,  0.07 au

Time for grid setup =    0.337 sec

------------------------------
INITIAL GUESS: MODEL POTENTIAL
------------------------------
Loading Hartree-Fock densities                     ... done
Calculating cut-offs                               ... done
Setting up the integral package                    ... done
Initializing the effective Hamiltonian             ... done
Starting the Coulomb interaction                   ... done (   0.0 sec)
Reading the grid                                   ... done
Mapping shells                                     ... done
Starting the XC term evaluation                    ... done (   0.1 sec)
  promolecular density results
     # of electrons  =     69.999981134
     EX              =    -85.292092078
     EC              =     -2.744276370
     EX+EC           =    -88.036368447
Transforming the Hamiltonian                       ... done (   0.0 sec)
Diagonalizing the Hamiltonian                      ... done (   0.0 sec)
Back transforming the eigenvectors                 ... done (   0.0 sec)
Now organizing SCF variables                       ... done
                      ------------------
                      INITIAL GUESS DONE (   0.7 sec)
                      ------------------
----------------------
INITIAL GUESS ORBITALS
----------------------
                      0         1         2         3         4         5   
                 -88.16344 -24.40352 -24.40343 -24.40343 -24.40343 -24.40332
                   2.00000   2.00000   2.00000   2.00000   2.00000   2.00000
                  --------  --------  --------  --------  --------  --------
  0S   1s        -0.996590 -0.000003 -0.000000  0.000000  0.000000 -0.000000
  0S   2s        -0.012772  0.001391  0.000013 -0.000041 -0.000006  0.000009
  0S   1pz       -0.000000  0.000008  0.000039  0.000268  0.000013 -0.000006
  0S   1px       -0.000000  0.000002 -0.000199  0.000038 -0.000180  0.000002
  0S   1py        0.000000 -0.000003  0.000180 -0.000016 -0.000203 -0.000001
  0S   3s         0.004851  0.004148  0.000039 -0.000122 -0.000019  0.000028
  0S   2pz        0.000000 -0.000030 -0.000155 -0.001067 -0.000053  0.000025
  0S   2px        0.000000 -0.000009  0.000793 -0.000150  0.000717 -0.000007
  0S   2py       -0.000000  0.000012 -0.000716  0.000064  0.000806  0.000005
  0S   4s         0.000132 -0.018338 -0.000173  0.000538  0.000084 -0.000123
  0S   3pz        0.000000 -0.000215 -0.001105 -0.007618 -0.000379  0.000181
  0S   3px        0.000000 -0.000061  0.005666 -0.001075  0.005122 -0.000049
  0S   3py       -0.000000  0.000088 -0.005115  0.000454  0.005755  0.000034
  0S   1dz2      -0.000000  0.000000 -0.000010 -0.000056  0.000003 -0.001083
  0S   1dxz      -0.000000  0.000001 -0.000003 -0.000011  0.000000 -0.000309
  0S   1dyz      -0.000000 -0.000002  0.000003  0.000005  0.000001  0.000245
  0S   1dx2y2     0.000000 -0.000001  0.000001 -0.000000  0.000001  0.000124
  0S   1dxy       0.000000  0.000013 -0.000016 -0.000000 -0.000008 -0.001258
  1F   1s         0.000015 -0.426375 -0.021935 -0.709744 -0.004630 -0.364817
  1F   2s         0.000383 -0.013042 -0.000635 -0.020488 -0.000133 -0.009858
  1F   1pz       -0.000155  0.000393 -0.000010  0.000526 -0.000005  0.000288
  1F   1px       -0.000018  0.000045  0.000167  0.000057  0.000149  0.000032
  1F   1py        0.000008 -0.000019 -0.000150 -0.000027  0.000167 -0.000014
  1F   3s        -0.000796  0.008778  0.000341  0.010908  0.000070  0.003344
  1F   2pz        0.000769 -0.002246  0.000077 -0.002078  0.000036 -0.000736
  1F   2px        0.000091 -0.000259 -0.000898 -0.000217 -0.000805 -0.000076
  1F   2py       -0.000041  0.000108  0.000806  0.000104 -0.000900  0.000033
  1F   1dz2      -0.000421  0.000203 -0.000054  0.000236 -0.000019  0.000286
  1F   1dxz      -0.000087  0.000040  0.000218  0.000042  0.000197  0.000049
  1F   1dyz       0.000039 -0.000016 -0.000197 -0.000020  0.000223 -0.000013
  1F   1dx2y2    -0.000004  0.000002  0.000015  0.000002  0.000035  0.000013
  1F   1dxy       0.000005 -0.000001 -0.000036 -0.000002  0.000015 -0.000106
  2F   1s         0.000015 -0.405110 -0.007697  0.028915 -0.704389 -0.186997
  2F   2s         0.000383 -0.012434 -0.000224  0.000840 -0.020381 -0.005070
  2F   1pz       -0.000006  0.000008 -0.000032 -0.000222  0.000018  0.000011
  2F   1px        0.000104 -0.000255  0.000160 -0.000013 -0.000352 -0.000100
  2F   1py        0.000117 -0.000281 -0.000154  0.000033 -0.000392 -0.000109
  2F   3s        -0.000796  0.008469  0.000122 -0.000456  0.010979  0.001772
  2F   2pz        0.000030 -0.000051  0.000172  0.001197 -0.000068 -0.000043
  2F   2px       -0.000517  0.001481 -0.000866  0.000088  0.001412  0.000267
  2F   2py       -0.000577  0.001630  0.000824 -0.000161  0.001573  0.000284
  2F   1dz2       0.000215 -0.000099 -0.000006 -0.000015 -0.000116 -0.000182
  2F   1dxz       0.000019 -0.000003  0.000037  0.000197 -0.000008 -0.000038
  2F   1dyz       0.000021 -0.000004  0.000024  0.000224 -0.000009  0.000005
  2F   1dx2y2     0.000041 -0.000015 -0.000296  0.000043 -0.000021 -0.000006
  2F   1dxy      -0.000371  0.000172 -0.000028  0.000001  0.000200  0.000062
  3F   1s         0.000015 -0.399056 -0.005781  0.013463  0.702443 -0.189574
  3F   2s         0.000383 -0.012258 -0.000169  0.000393  0.020341 -0.005145
  3F   1pz        0.000006 -0.000021 -0.000032 -0.000221  0.000018 -0.000001
  3F   1px       -0.000104  0.000248  0.000168 -0.000038 -0.000351  0.000099
  3F   1py       -0.000117  0.000281 -0.000145  0.000006 -0.000391  0.000113
  3F   3s        -0.000796  0.008374  0.000092 -0.000214 -0.011003  0.001812
  3F   2pz       -0.000030  0.000118  0.000174  0.001190 -0.000069 -0.000013
  3F   2px        0.000517 -0.001443 -0.000902  0.000200  0.001419 -0.000259
  3F   2py        0.000577 -0.001636  0.000784 -0.000036  0.001579 -0.000303
  3F   1dz2       0.000215 -0.000097 -0.000000  0.000022  0.000115 -0.000184
  3F   1dxz       0.000019 -0.000014 -0.000038 -0.000197  0.000008 -0.000029
  3F   1dyz       0.000021 -0.000016 -0.000024 -0.000221  0.000009  0.000016
  3F   1dx2y2     0.000041 -0.000023  0.000296 -0.000040  0.000021 -0.000011
  3F   1dxy      -0.000371  0.000168  0.000034 -0.000027 -0.000198  0.000063
  4F   1s         0.000015 -0.403000 -0.700712  0.036278  0.004657  0.568038
  4F   2s         0.000383 -0.012358 -0.020301  0.001052  0.000135  0.015384
  4F   1pz       -0.000019  0.000040  0.000060 -0.000225 -0.000012 -0.000050
  4F   1px        0.000115 -0.000279 -0.000387 -0.000006  0.000152  0.000331
  4F   1py       -0.000104  0.000253  0.000350 -0.000010  0.000164 -0.000299
  4F   3s        -0.000796  0.008386  0.011008 -0.000568 -0.000072 -0.005327
  4F   2pz        0.000095 -0.000233 -0.000236  0.001211  0.000062  0.000115
  4F   2px       -0.000571  0.001612  0.001568  0.000055 -0.000816 -0.000856
  4F   2py        0.000516 -0.001462 -0.001418  0.000031 -0.000889  0.000775
  4F   1dz2       0.000206 -0.000099 -0.000110 -0.000058 -0.000001  0.000189
  4F   1dxz       0.000067 -0.000025 -0.000031  0.000217  0.000036  0.000060
  4F   1dyz      -0.000061  0.000023  0.000028 -0.000199  0.000017 -0.000057
  4F   1dx2y2    -0.000037  0.000017  0.000020  0.000017 -0.000297 -0.000039
  4F   1dxy       0.000366 -0.000172 -0.000194 -0.000017 -0.000030  0.000389
  5F   1s         0.000015 -0.417013  0.705782  0.007115  0.002439  0.553166
  5F   2s         0.000383 -0.012763  0.020411  0.000208  0.000071  0.014953
  5F   1pz        0.000019 -0.000054  0.000060 -0.000221 -0.000011  0.000059
  5F   1px       -0.000115  0.000286 -0.000389 -0.000034  0.000147 -0.000322
  5F   1py        0.000104 -0.000258  0.000352  0.000015  0.000168  0.000291
  5F   3s        -0.000796  0.008605 -0.010968 -0.000112 -0.000037 -0.005094
  5F   2pz       -0.000095  0.000308 -0.000234  0.001191  0.000058 -0.000163
  5F   2px        0.000571 -0.001642  0.001556  0.000180 -0.000796  0.000819
  5F   2py       -0.000516  0.001479 -0.001408 -0.000082 -0.000906 -0.000739
  5F   1dz2       0.000206 -0.000097  0.000113  0.000064  0.000005  0.000184
  5F   1dxz       0.000067 -0.000039  0.000032 -0.000214 -0.000035  0.000069
  5F   1dyz      -0.000061  0.000035 -0.000029  0.000196 -0.000018 -0.000065
  5F   1dx2y2    -0.000037  0.000018 -0.000020 -0.000019  0.000296 -0.000039
  5F   1dxy       0.000366 -0.000173  0.000200  0.000044  0.000033  0.000383
  6F   1s         0.000015 -0.385295  0.007378  0.695437  0.010696 -0.396174
  6F   2s         0.000383 -0.011853  0.000213  0.020186  0.000311 -0.010765
  6F   1pz        0.000155 -0.000362 -0.000023  0.000519 -0.000000 -0.000310
  6F   1px        0.000018 -0.000044  0.000166  0.000056  0.000150 -0.000039
  6F   1py       -0.000008  0.000022 -0.000149 -0.000027  0.000167  0.000018
  6F   3s        -0.000796  0.008136 -0.000117 -0.011048 -0.000170  0.003834
  6F   2pz       -0.000769  0.002120  0.000132 -0.002128  0.000011  0.000826
  6F   2px       -0.000091  0.000255 -0.000892 -0.000223 -0.000808  0.000108
  6F   2py        0.000042 -0.000127  0.000803  0.000108 -0.000898 -0.000051
  6F   1dz2      -0.000421  0.000188  0.000063 -0.000218  0.000016  0.000295
  6F   1dxz      -0.000087  0.000040 -0.000216 -0.000038 -0.000198  0.000056
  6F   1dyz       0.000040 -0.000021  0.000196  0.000019 -0.000223 -0.000018
  6F   1dx2y2    -0.000004  0.000002 -0.000015 -0.000001 -0.000035  0.000014
  6F   1dxy       0.000005 -0.000001  0.000034  0.000002 -0.000016 -0.000107
                      6         7         8         9        10        11   
                 -24.40331  -7.73694  -5.76192  -5.76192  -5.76192  -1.18274
                   2.00000   2.00000   2.00000   2.00000   2.00000   2.00000
                  --------  --------  --------  --------  --------  --------
  0S   1s         0.000000  0.280179 -0.000000  0.000000  0.000000 -0.026866
  0S   2s        -0.000006 -1.024096  0.000000 -0.000000 -0.000000  0.117308
  0S   1pz       -0.000007 -0.000000  0.065819  0.872669  0.460637  0.000011
  0S   1px       -0.000002 -0.000000 -0.944549  0.189330 -0.223719  0.000003
  0S   1py       -0.000000  0.000000  0.285594  0.425056 -0.846069 -0.000004
  0S   3s        -0.000018 -0.044497 -0.000000  0.000000  0.000000 -0.231011
  0S   2pz        0.000026 -0.000001  0.002525  0.033482  0.017674 -0.000018
  0S   2px        0.000008 -0.000000 -0.036240  0.007264 -0.008584 -0.000005
  0S   2py        0.000001  0.000000  0.010957  0.016308 -0.032462  0.000007
  0S   4s         0.000080  0.005008  0.000000  0.000000  0.000000  0.028398
  0S   3pz        0.000185 -0.000000 -0.000334 -0.004431 -0.002339  0.000004
  0S   3px        0.000059 -0.000000  0.004796 -0.000961  0.001136  0.000001
  0S   3py        0.000006  0.000000 -0.001450 -0.002159  0.004296 -0.000001
  0S   1dz2      -0.001269  0.000000  0.000000  0.000001 -0.000000  0.000000
  0S   1dxz      -0.000186  0.000000  0.000000  0.000000 -0.000000 -0.000000
  0S   1dyz      -0.000006  0.000000 -0.000000  0.000001  0.000001  0.000000
  0S   1dx2y2    -0.000130 -0.000000  0.000000  0.000001 -0.000001 -0.000001
  0S   1dxy       0.001124 -0.000000 -0.000000  0.000000 -0.000000 -0.000000
  1F   1s        -0.413046 -0.000080 -0.000004  0.000053  0.000029  0.088859
  1F   2s        -0.011144 -0.001479 -0.000097  0.001394  0.000767 -0.188841
  1F   1pz        0.000325  0.000567  0.000044 -0.000425 -0.000236  0.029592
  1F   1px        0.000039  0.000067 -0.000100 -0.000041 -0.000059  0.003487
  1F   1py       -0.000017 -0.000030  0.000030  0.000075 -0.000078 -0.001587
  1F   3s         0.003733  0.003322  0.000270 -0.003872 -0.002129 -0.209094
  1F   2pz       -0.000815 -0.003897 -0.000419  0.004646  0.002569  0.022740
  1F   2px       -0.000102 -0.000459  0.000665  0.000483  0.000511  0.002679
  1F   2py        0.000041  0.000209 -0.000195 -0.000603  0.000479 -0.001219
  1F   1dz2       0.000322  0.001904  0.000334 -0.001519 -0.000870 -0.004580
  1F   1dxz       0.000074  0.000392 -0.000937 -0.000225 -0.000467 -0.000943
  1F   1dyz      -0.000040 -0.000178  0.000276  0.000633 -0.000773  0.000429
  1F   1dx2y2    -0.000006  0.000018 -0.000098  0.000022 -0.000088 -0.000044
  1F   1dxy       0.000087 -0.000021  0.000086  0.000070 -0.000076  0.000051
  2F   1s         0.541842 -0.000080  0.000025 -0.000025  0.000048  0.088836
  2F   2s         0.014670 -0.001479  0.000676 -0.000659  0.001284 -0.188791
  2F   1pz       -0.000011  0.000022 -0.000003  0.000106  0.000032  0.001149
  2F   1px        0.000287 -0.000381  0.000065 -0.000145  0.000298 -0.019881
  2F   1py        0.000319 -0.000426  0.000222 -0.000138  0.000267 -0.022212
  2F   3s        -0.005066  0.003321 -0.001877  0.001831 -0.003566 -0.209041
  2F   2pz        0.000013 -0.000151  0.000050 -0.000752 -0.000156  0.000881
  2F   2px       -0.000746  0.002618 -0.001018  0.001542 -0.003113 -0.015278
  2F   2py       -0.000824  0.002925 -0.002144  0.001563 -0.003031 -0.017069
  2F   1dz2       0.000174 -0.000972  0.000386 -0.000311  0.000757  0.002337
  2F   1dxz       0.000005 -0.000087 -0.000027 -0.000657 -0.000223  0.000209
  2F   1dyz       0.000022 -0.000097  0.000023 -0.000726 -0.000273  0.000232
  2F   1dx2y2     0.000041 -0.000186  0.001004  0.000081 -0.000272  0.000448
  2F   1dxy      -0.000387  0.001678 -0.000559  0.000625 -0.001318 -0.004035
  3F   1s         0.548550 -0.000080 -0.000025  0.000025 -0.000048  0.088828
  3F   2s         0.014865 -0.001479 -0.000676  0.000659 -0.001284 -0.188774
  3F   1pz        0.000022 -0.000022 -0.000003  0.000106  0.000032 -0.001152
  3F   1px       -0.000289  0.000381  0.000065 -0.000145  0.000298  0.019881
  3F   1py       -0.000324  0.000426  0.000222 -0.000138  0.000267  0.022208
  3F   3s        -0.005170  0.003321  0.001878 -0.001830  0.003566 -0.209024
  3F   2pz       -0.000073  0.000152  0.000051 -0.000752 -0.000156 -0.000885
  3F   2px        0.000749 -0.002619 -0.001019  0.001542 -0.003114  0.015280
  3F   2py        0.000845 -0.002925 -0.002144  0.001562 -0.003030  0.017065
  3F   1dz2       0.000174 -0.000972 -0.000386  0.000311 -0.000757  0.002337
  3F   1dxz       0.000015 -0.000087  0.000027  0.000657  0.000223  0.000209
  3F   1dyz       0.000033 -0.000097 -0.000024  0.000725  0.000273  0.000233
  3F   1dx2y2     0.000044 -0.000186 -0.001004 -0.000081  0.000273  0.000446
  3F   1dxy      -0.000388  0.001678  0.000560 -0.000625  0.001318 -0.004035
  4F   1s        -0.111008 -0.000080  0.000054  0.000015 -0.000021  0.088825
  4F   2s        -0.003002 -0.001479  0.001440  0.000403 -0.000551 -0.188768
  4F   1pz        0.000016  0.000070 -0.000059  0.000078  0.000077  0.003654
  4F   1px       -0.000063 -0.000421  0.000296  0.000133 -0.000178 -0.021960
  4F   1py        0.000059  0.000381 -0.000330 -0.000054  0.000045  0.019848
  4F   3s         0.001027  0.003321 -0.003999 -0.001120  0.001530 -0.209014
  4F   2pz       -0.000057 -0.000481  0.000627 -0.000465 -0.000604  0.002808
  4F   2px        0.000156  0.002893 -0.003357 -0.001281  0.001723 -0.016879
  4F   2py       -0.000151 -0.002614  0.003460  0.000710 -0.000770  0.015252
  4F   1dz2      -0.000156 -0.000932  0.000772  0.000406 -0.000187  0.002242
  4F   1dxz      -0.000038 -0.000305  0.000253 -0.000530 -0.000547  0.000734
  4F   1dyz       0.000020  0.000276 -0.000301  0.000555  0.000359 -0.000663
  4F   1dx2y2    -0.000003  0.000168  0.000296 -0.000508  0.000852 -0.000405
  4F   1dxy      -0.000004 -0.001657  0.001428  0.000450 -0.000386  0.003984
  5F   1s        -0.107964 -0.000080 -0.000054 -0.000015  0.000021  0.088841
  5F   2s        -0.002914 -0.001479 -0.001440 -0.000404  0.000551 -0.188804
  5F   1pz       -0.000005 -0.000070 -0.000059  0.000078  0.000077 -0.003658
  5F   1px        0.000064  0.000421  0.000296  0.000133 -0.000178  0.021961
  5F   1py       -0.000056 -0.000381 -0.000330 -0.000054  0.000045 -0.019855
  5F   3s         0.000980  0.003322  0.003999  0.001121 -0.001530 -0.209052
  5F   2pz       -0.000003  0.000482  0.000627 -0.000465 -0.000605 -0.002811
  5F   2px       -0.000165 -0.002893 -0.003356 -0.001281  0.001723  0.016878
  5F   2py        0.000139  0.002615  0.003460  0.000711 -0.000771 -0.015258
  5F   1dz2      -0.000158 -0.000932 -0.000772 -0.000406  0.000187  0.002242
  5F   1dxz      -0.000028 -0.000305 -0.000253  0.000530  0.000547  0.000734
  5F   1dyz       0.000010  0.000276  0.000301 -0.000556 -0.000360 -0.000664
  5F   1dx2y2     0.000001  0.000167 -0.000296  0.000508 -0.000852 -0.000403
  5F   1dxy      -0.000005 -0.001657 -0.001428 -0.000451  0.000386  0.003985
  6F   1s        -0.447800 -0.000080  0.000004 -0.000053 -0.000029  0.088805
  6F   2s        -0.012150 -0.001479  0.000097 -0.001394 -0.000767 -0.188724
  6F   1pz       -0.000351 -0.000567  0.000044 -0.000425 -0.000236 -0.029573
  6F   1px       -0.000040 -0.000067 -0.000100 -0.000041 -0.000059 -0.003486
  6F   1py        0.000019  0.000031  0.000030  0.000075 -0.000078  0.001593
  6F   3s         0.004276  0.003321 -0.000270  0.003870  0.002130 -0.208971
  6F   2pz        0.000919  0.003896 -0.000420  0.004644  0.002570 -0.022728
  6F   2px        0.000103  0.000459  0.000665  0.000482  0.000512 -0.002679
  6F   2py       -0.000052 -0.000210 -0.000194 -0.000605  0.000477  0.001227
  6F   1dz2       0.000334  0.001904 -0.000334  0.001518  0.000871 -0.004577
  6F   1dxz       0.000073  0.000392  0.000936  0.000225  0.000467 -0.000942
  6F   1dyz      -0.000042 -0.000180 -0.000276 -0.000634  0.000772  0.000431
  6F   1dx2y2    -0.000007  0.000018  0.000098 -0.000022  0.000088 -0.000044
  6F   1dxy       0.000086 -0.000021 -0.000086 -0.000070  0.000075  0.000051
                     12        13        14        15        16        17   
                  -1.12949  -1.12949  -1.12949  -1.10906  -1.10906  -0.68846
                   2.00000   2.00000   2.00000   2.00000   2.00000   2.00000
                  --------  --------  --------  --------  --------  --------
  0S   1s        -0.000001  0.000002 -0.000000 -0.000000  0.000000  0.061900
  0S   2s         0.000004 -0.000010  0.000001  0.000001 -0.000000 -0.269422
  0S   1pz       -0.005314  0.047304 -0.018154 -0.000010 -0.000012 -0.000002
  0S   1px       -0.049675 -0.008460 -0.007504 -0.000004  0.000004 -0.000001
  0S   1py        0.009981 -0.016919 -0.047006 -0.000014 -0.000012  0.000001
  0S   3s        -0.000009  0.000022 -0.000001 -0.000002  0.000001  0.619673
  0S   2pz        0.010105 -0.089957  0.034523  0.000019  0.000023  0.000005
  0S   2px        0.094466  0.016088  0.014270  0.000007 -0.000007  0.000001
  0S   2py       -0.018981  0.032175  0.089389  0.000026  0.000023 -0.000002
  0S   4s         0.000000 -0.000001  0.000000  0.000002 -0.000001  0.048514
  0S   3pz       -0.002099  0.018707 -0.007177 -0.000004 -0.000005 -0.000003
  0S   3px       -0.019641 -0.003344 -0.002968 -0.000002  0.000002 -0.000001
  0S   3py        0.003946 -0.006692 -0.018588 -0.000007 -0.000006  0.000001
  0S   1dz2      -0.000002 -0.000013  0.000029 -0.024692 -0.027007 -0.000000
  0S   1dxz      -0.000001 -0.000002  0.000005 -0.006917 -0.003842  0.000000
  0S   1dyz       0.000002 -0.000007 -0.000002  0.005368 -0.000319  0.000000
  0S   1dx2y2    -0.000002  0.000001  0.000007  0.002626 -0.002941  0.000001
  0S   1dxy       0.000005  0.000002  0.000003 -0.026729  0.025590  0.000000
  1F   1s        -0.038117  0.153853 -0.053890  0.095810  0.102292  0.042721
  1F   2s         0.082786 -0.334151  0.117047 -0.211563 -0.225877 -0.103227
  1F   1pz       -0.008054  0.029187 -0.010018  0.013353  0.014256 -0.153222
  1F   1px        0.005344  0.005240 -0.000492  0.001572  0.001681 -0.018054
  1F   1py       -0.000812  0.000281  0.006693 -0.000712 -0.000760  0.008213
  1F   3s         0.088596 -0.357601  0.125252 -0.218611 -0.233400 -0.112917
  1F   2pz       -0.006637  0.022857 -0.007759  0.010451  0.011158 -0.091702
  1F   2px        0.006665  0.004824 -0.000100  0.001231  0.001315 -0.010806
  1F   2py       -0.001116  0.000958  0.007701 -0.000557 -0.000595  0.004914
  1F   1dz2       0.001910 -0.006411  0.002164 -0.003004 -0.003230  0.007359
  1F   1dxz      -0.001049 -0.001729  0.000296 -0.000682 -0.000605  0.001515
  1F   1dyz       0.000112  0.000185 -0.001595  0.000386  0.000203 -0.000689
  1F   1dx2y2    -0.000135 -0.000132 -0.000072  0.000070 -0.000124  0.000071
  1F   1dxy       0.000090  0.000044 -0.000180 -0.000903  0.000912 -0.000081
  2F   1s         0.083667  0.065853  0.129148  0.040771 -0.134154  0.042716
  2F   2s        -0.181713 -0.143025 -0.280495 -0.090027  0.296232 -0.103216
  2F   1pz        0.001427 -0.005480  0.003479  0.000223 -0.000725 -0.005947
  2F   1px       -0.006509 -0.009056 -0.018925 -0.003817  0.012561  0.102953
  2F   1py       -0.015678 -0.009161 -0.016188 -0.004267  0.014040  0.115026
  2F   3s        -0.194470 -0.153065 -0.300179 -0.093034  0.306102 -0.112905
  2F   2pz        0.001440 -0.006682  0.003734  0.000175 -0.000565 -0.003559
  2F   2px       -0.003437 -0.007357 -0.015804 -0.002991  0.009831  0.061616
  2F   2py       -0.013782 -0.007086 -0.011793 -0.003341  0.010987  0.068844
  2F   1dz2       0.001779  0.001500  0.002727 -0.000388 -0.002471 -0.003755
  2F   1dxz       0.000246 -0.000774  0.000651 -0.000197 -0.000270 -0.000335
  2F   1dyz       0.000347 -0.000874  0.000682  0.000233 -0.000163 -0.000375
  2F   1dx2y2     0.001609  0.000132 -0.000219  0.000181 -0.000397 -0.000721
  2F   1dxy      -0.002946 -0.002503 -0.004834 -0.001734  0.003538  0.006485
  3F   1s        -0.083701 -0.065933 -0.129067  0.040637 -0.134217  0.042715
  3F   2s         0.181791  0.143198  0.280317 -0.089736  0.296370 -0.103213
  3F   1pz        0.001430 -0.005483  0.003482 -0.000219  0.000732  0.005958
  3F   1px       -0.006520 -0.009069 -0.018915  0.003808 -0.012573 -0.102972
  3F   1py       -0.015679 -0.009171 -0.016174  0.004251 -0.014040 -0.115000
  3F   3s         0.194547  0.153247  0.299996 -0.092720  0.306250 -0.112900
  3F   2pz        0.001442 -0.006682  0.003736 -0.000170  0.000572  0.003567
  3F   2px       -0.003442 -0.007367 -0.015800  0.002977 -0.009843 -0.061629
  3F   2py       -0.013781 -0.007093 -0.011783  0.003325 -0.010989 -0.068827
  3F   1dz2      -0.001779 -0.001502 -0.002724 -0.000391 -0.002472 -0.003756
  3F   1dxz      -0.000246  0.000774 -0.000651 -0.000198 -0.000271 -0.000336
  3F   1dyz      -0.000348  0.000873 -0.000683  0.000232 -0.000164 -0.000375
  3F   1dx2y2    -0.001608 -0.000131  0.000222  0.000180 -0.000395 -0.000718
  3F   1dxy       0.002946  0.002505  0.004833 -0.001728  0.003541  0.006484
  4F   1s         0.139864  0.002496 -0.091873 -0.136600  0.031775  0.042713
  4F   2s        -0.303770 -0.005422  0.199537  0.301633 -0.070166 -0.103210
  4F   1pz        0.004643 -0.006001 -0.000271 -0.002350  0.000549 -0.018928
  4F   1px       -0.017421  0.000659  0.016591  0.014133 -0.003288  0.113744
  4F   1py        0.020223  0.002555 -0.008097 -0.012770  0.002970 -0.102786
  4F   3s        -0.325084 -0.005801  0.213544  0.311684 -0.072496 -0.112895
  4F   2pz        0.004181 -0.007122  0.000539 -0.001839  0.000430 -0.011329
  4F   2px       -0.012733  0.000922  0.014460  0.011066 -0.002571  0.068079
  4F   2py        0.016806  0.002896 -0.004902 -0.009996  0.002323 -0.061517
  4F   1dz2       0.002807  0.000344 -0.001978 -0.002357 -0.000588 -0.003602
  4F   1dxz       0.001101 -0.001027 -0.000402 -0.000730 -0.000019 -0.001179
  4F   1dyz      -0.001120  0.000840  0.000171  0.000630 -0.000114  0.001065
  4F   1dx2y2     0.000232  0.000499  0.001497  0.000363 -0.000165  0.000650
  4F   1dxy       0.005144  0.000313 -0.003291 -0.003594  0.001505 -0.006402
  5F   1s        -0.139825 -0.002541  0.091985 -0.136520  0.031909  0.042717
  5F   2s         0.303685  0.005519 -0.199785  0.301460 -0.070458 -0.103218
  5F   1pz        0.004641 -0.005995 -0.000277  0.002353 -0.000548  0.018934
  5F   1px       -0.017409  0.000655  0.016609 -0.014118  0.003299 -0.113731
  5F   1py        0.020224  0.002562 -0.008112  0.012771 -0.002985  0.102820
  5F   3s         0.324994  0.005905 -0.213798  0.311498 -0.072811 -0.112905
  5F   2pz        0.004181 -0.007120  0.000536  0.001843 -0.000428  0.011332
  5F   2px       -0.012726  0.000917  0.014469 -0.011052  0.002586 -0.068068
  5F   2py        0.016807  0.002901 -0.004913  0.009995 -0.002338  0.061538
  5F   1dz2      -0.002807 -0.000345  0.001981 -0.002355 -0.000584 -0.003601
  5F   1dxz      -0.001101  0.001026  0.000402 -0.000730 -0.000018 -0.001179
  5F   1dyz       0.001120 -0.000840 -0.000171  0.000630 -0.000115  0.001066
  5F   1dx2y2    -0.000234 -0.000499 -0.001496  0.000360 -0.000165  0.000647
  5F   1dxy      -0.005143 -0.000314  0.003293 -0.003591  0.001511 -0.006403
  6F   1s         0.038151 -0.153819  0.053701  0.095902  0.102395  0.042710
  6F   2s        -0.082861  0.334075 -0.116630 -0.211764 -0.226102 -0.103202
  6F   1pz       -0.008060  0.029179 -0.009978 -0.013364 -0.014269  0.153177
  6F   1px        0.005342  0.005240 -0.000488 -0.001577 -0.001681  0.018054
  6F   1py       -0.000809  0.000271  0.006693  0.000724  0.000773 -0.008264
  6F   3s        -0.088674  0.357528 -0.124824 -0.218826 -0.233641 -0.112887
  6F   2pz       -0.006641  0.022852 -0.007735 -0.010461 -0.011169  0.091679
  6F   2px        0.006663  0.004824 -0.000097 -0.001234 -0.001317  0.010806
  6F   2py       -0.001114  0.000949  0.007702  0.000568  0.000606 -0.004948
  6F   1dz2      -0.001911  0.006408 -0.002158 -0.003007 -0.003233  0.007357
  6F   1dxz       0.001049  0.001729 -0.000295 -0.000683 -0.000606  0.001515
  6F   1dyz      -0.000111 -0.000189  0.001596  0.000390  0.000206 -0.000694
  6F   1dx2y2     0.000135  0.000132  0.000073  0.000071 -0.000124  0.000071
  6F   1dxy      -0.000090 -0.000044  0.000180 -0.000902  0.000912 -0.000082
                     18        19        20        21        22        23   
                  -0.53680  -0.53680  -0.53680  -0.45429  -0.45429  -0.45428
                   2.00000   2.00000   2.00000   2.00000   2.00000   2.00000
                  --------  --------  --------  --------  --------  --------
  0S   1s         0.000001  0.000002  0.000000 -0.000000  0.000001  0.000001
  0S   2s        -0.000003 -0.000008 -0.000001  0.000001 -0.000005 -0.000004
  0S   1pz        0.034721  0.137557 -0.032505 -0.000005 -0.000006  0.000005
  0S   1px        0.132034 -0.019617  0.058019  0.000004 -0.000003  0.000002
  0S   1py        0.050451 -0.043328 -0.129467 -0.000003 -0.000010 -0.000006
  0S   3s         0.000007  0.000020  0.000004 -0.000002  0.000014  0.000002
  0S   2pz       -0.084308 -0.334016  0.078930  0.000010  0.000012 -0.000010
  0S   2px       -0.320605  0.047636 -0.140882 -0.000011  0.000006 -0.000004
  0S   2py       -0.122506  0.105209  0.314371  0.000008  0.000023  0.000011
  0S   4s         0.000004  0.000012  0.000002 -0.000003  0.000002  0.000016
  0S   3pz       -0.009005 -0.035646  0.008425  0.000031  0.000038 -0.000032
  0S   3px       -0.034214  0.005078 -0.015037  0.000012 -0.000003 -0.000004
  0S   3py       -0.013077  0.011228  0.033556 -0.000002  0.000023  0.000046
  0S   1dz2      -0.000008 -0.000010  0.000015 -0.015390  0.001134 -0.000086
  0S   1dxz      -0.000004 -0.000001  0.000001  0.060088 -0.022652  0.023285
  0S   1dyz      -0.000003 -0.000008  0.000002 -0.031264 -0.041931  0.045241
  0S   1dx2y2    -0.000004  0.000002  0.000011 -0.000050 -0.050374 -0.047873
  0S   1dxy      -0.000004  0.000001  0.000002 -0.007616 -0.008533 -0.001520
  1F   1s        -0.011612 -0.033574  0.004573 -0.000001  0.000002  0.000002
  1F   2s         0.028268  0.081739 -0.011130  0.000005 -0.000000 -0.000007
  1F   1pz        0.125557  0.332561 -0.033996 -0.041086  0.003966  0.000792
  1F   1px       -0.090166  0.068578 -0.054750  0.281049 -0.128830  0.080952
  1F   1py       -0.049651  0.011654  0.109472 -0.149071 -0.208206  0.194128
  1F   3s         0.036702  0.106108 -0.014455 -0.000012 -0.000020  0.000006
  1F   2pz        0.075682  0.199171 -0.019834 -0.029388  0.002844  0.000571
  1F   2px       -0.058804  0.042434 -0.035078  0.201042 -0.092154  0.057908
  1F   2py       -0.031749  0.008345  0.070519 -0.106636 -0.148943  0.138860
  1F   1dz2      -0.003847 -0.008299  0.000083  0.002784 -0.000293 -0.000083
  1F   1dxz       0.004886 -0.003292  0.002806 -0.010771  0.005314 -0.002832
  1F   1dyz       0.002627 -0.000795 -0.005799  0.005768  0.008330 -0.007391
  1F   1dx2y2     0.000751 -0.000350  0.000016 -0.001303 -0.001579 -0.003825
  1F   1dxy       0.000009 -0.000009 -0.000829  0.001245  0.000412 -0.001047
  2F   1s         0.030569 -0.012457 -0.013899  0.000000 -0.000001  0.000002
  2F   2s        -0.074423  0.030326  0.033836 -0.000001  0.000002 -0.000007
  2F   1pz       -0.044222 -0.106410  0.033819 -0.080289  0.213466 -0.226559
  2F   1px        0.164210 -0.094963 -0.171508  0.009663  0.181812  0.156271
  2F   1py        0.263071 -0.088527 -0.032235 -0.012782 -0.151768 -0.151464
  2F   3s        -0.096610  0.039366  0.043930  0.000003  0.000007  0.000005
  2F   2pz       -0.027986 -0.068882  0.021572 -0.057441  0.152698 -0.162065
  2F   2px        0.096528 -0.057432 -0.106372  0.006911  0.130063  0.111786
  2F   2py        0.159209 -0.052830 -0.016012 -0.009143 -0.108563 -0.108356
  2F   1dz2      -0.003820  0.002004  0.001687 -0.000619 -0.000676  0.000781
  2F   1dxz      -0.001431 -0.003831  0.001344  0.000698  0.005729 -0.006826
  2F   1dyz      -0.001766 -0.004316  0.001172 -0.004918  0.006144 -0.005849
  2F   1dx2y2    -0.003591 -0.000294 -0.005356  0.000829  0.009267  0.008514
  2F   1dxy       0.006413 -0.003069 -0.003664 -0.000514  0.001288  0.000709
  3F   1s        -0.030570  0.012462  0.013891 -0.000000 -0.000000  0.000001
  3F   2s         0.074424 -0.030339 -0.033819  0.000001  0.000003  0.000003
  3F   1pz       -0.044260 -0.106399  0.033829  0.080458 -0.213523  0.226567
  3F   1px        0.164264 -0.095020 -0.171441 -0.009646 -0.181778 -0.156128
  3F   1py        0.263037 -0.088555 -0.032147  0.012810  0.151713  0.151479
  3F   3s         0.096612 -0.039384 -0.043900 -0.000001 -0.000008 -0.000021
  3F   2pz       -0.028009 -0.068870  0.021579  0.057550 -0.152744  0.162077
  3F   2px        0.096559 -0.057465 -0.106336 -0.006901 -0.130035 -0.111679
  3F   2py        0.159190 -0.052847 -0.015959  0.009165  0.108526  0.108367
  3F   1dz2       0.003819 -0.002005 -0.001687 -0.000618 -0.000678  0.000785
  3F   1dxz       0.001432  0.003831 -0.001346  0.000693  0.005732 -0.006828
  3F   1dyz       0.001767  0.004314 -0.001172 -0.004921  0.006144 -0.005847
  3F   1dx2y2     0.003589  0.000295  0.005357  0.000830  0.009265  0.008511
  3F   1dxy      -0.006415  0.003070  0.003661 -0.000515  0.001287  0.000706
  4F   1s         0.014618 -0.000606  0.032690  0.000001 -0.000001 -0.000003
  4F   2s        -0.035588  0.001476 -0.079589 -0.000003  0.000005  0.000011
  4F   1pz       -0.052436 -0.111836 -0.026916 -0.309603 -0.050886  0.059633
  4F   1px        0.035683  0.010112  0.274386 -0.019366  0.133950  0.170320
  4F   1py       -0.171486  0.040937 -0.184798  0.035534  0.157685  0.177715
  4F   3s        -0.046197  0.001914 -0.103312  0.000001 -0.000007 -0.000007
  4F   2pz       -0.033002 -0.072191 -0.015515 -0.221476 -0.036407  0.042661
  4F   2px        0.018044  0.006733  0.165910 -0.013854  0.095825  0.121845
  4F   2py       -0.106147  0.026227 -0.109174  0.025420  0.112797  0.127120
  4F   1dz2      -0.001410  0.001363 -0.004190  0.002527  0.000629 -0.000664
  4F   1dxz      -0.001480 -0.004542 -0.001009 -0.008253 -0.004133  0.002559
  4F   1dyz       0.002257  0.003774  0.000493  0.008688 -0.001689 -0.000562
  4F   1dx2y2    -0.005199  0.001890  0.003232  0.000487  0.007673  0.009910
  4F   1dxy      -0.003541  0.001074 -0.007010  0.001592  0.000905  0.000817
  5F   1s        -0.014609  0.000608 -0.032696 -0.000001 -0.000001 -0.000002
  5F   2s         0.035570 -0.001481  0.079600  0.000002 -0.000001  0.000003
  5F   1pz       -0.052433 -0.111836 -0.026949  0.309481  0.050998 -0.059696
  5F   1px        0.035567  0.010108  0.274399  0.019392 -0.134012 -0.170466
  5F   1py       -0.171453  0.040956 -0.184890 -0.035587 -0.157707 -0.177744
  5F   3s         0.046167 -0.001920  0.103333  0.000000  0.000012  0.000016
  5F   2pz       -0.033003 -0.072195 -0.015535  0.221386  0.036477 -0.042697
  5F   2px        0.017977  0.006728  0.165915  0.013870 -0.095872 -0.121952
  5F   2py       -0.106125  0.026238 -0.109228 -0.025456 -0.112810 -0.127140
  5F   1dz2       0.001410 -0.001364  0.004190  0.002528  0.000629 -0.000666
  5F   1dxz       0.001480  0.004542  0.001010 -0.008247 -0.004136  0.002559
  5F   1dyz      -0.002258 -0.003776 -0.000495  0.008688 -0.001686 -0.000565
  5F   1dx2y2     0.005201 -0.001891 -0.003229  0.000488  0.007675  0.009915
  5F   1dxy       0.003537 -0.001074  0.007013  0.001594  0.000904  0.000815
  6F   1s         0.011606  0.033573 -0.004558  0.000001  0.000003  0.000001
  6F   2s        -0.028256 -0.081738  0.011098 -0.000005 -0.000011  0.000003
  6F   1pz        0.125472  0.332529 -0.033801  0.041171 -0.003857 -0.000876
  6F   1px       -0.090132  0.068575 -0.054709 -0.280967  0.128807 -0.080949
  6F   1py       -0.049671  0.011526  0.109436  0.149045  0.208305 -0.193895
  6F   3s        -0.036680 -0.106100  0.014400  0.000013  0.000008 -0.000021
  6F   2pz        0.075634  0.199158 -0.019722  0.029453 -0.002763 -0.000635
  6F   2px       -0.058781  0.042432 -0.035053 -0.200990  0.092143 -0.057907
  6F   2py       -0.031761  0.008268  0.070497  0.106620  0.149008 -0.138710
  6F   1dz2       0.003844  0.008298 -0.000077  0.002786 -0.000289 -0.000086
  6F   1dxz      -0.004884  0.003292 -0.002804 -0.010769  0.005313 -0.002832
  6F   1dyz      -0.002628  0.000788  0.005797  0.005767  0.008333 -0.007383
  6F   1dx2y2    -0.000751  0.000350 -0.000014 -0.001300 -0.001575 -0.003829
  6F   1dxy      -0.000006  0.000008  0.000830  0.001245  0.000413 -0.001047
                     24        25        26        27        28        29   
                  -0.44322  -0.44322  -0.40956  -0.40955  -0.40955  -0.40750
                   2.00000   2.00000   2.00000   2.00000   2.00000   2.00000
                  --------  --------  --------  --------  --------  --------
  0S   1s         0.000001 -0.000001 -0.000000  0.000000 -0.000000  0.000000
  0S   2s        -0.000003  0.000004  0.000001 -0.000001  0.000000 -0.000001
  0S   1pz        0.000002  0.000001 -0.015457  0.019099  0.003874 -0.000003
  0S   1px       -0.000001  0.000002  0.001539  0.006129 -0.024061 -0.000019
  0S   1py        0.000003  0.000003  0.019424  0.014708  0.004994  0.000003
  0S   3s         0.000007 -0.000012 -0.000003  0.000002 -0.000001  0.000000
  0S   2pz       -0.000005 -0.000004  0.045329 -0.056008 -0.011360  0.000008
  0S   2px        0.000002 -0.000002 -0.004514 -0.017971  0.070558  0.000054
  0S   2py       -0.000005 -0.000005 -0.056965 -0.043133 -0.014644 -0.000008
  0S   4s         0.000001  0.000000 -0.000011  0.000007 -0.000002  0.000007
  0S   3pz       -0.000034 -0.000026 -0.098806  0.122095  0.024764 -0.000025
  0S   3px        0.000010 -0.000010  0.009844  0.039156 -0.153786 -0.000102
  0S   3py       -0.000037 -0.000038  0.124203  0.094038  0.031902  0.000025
  0S   1dz2       0.080434  0.065525  0.000002  0.000017  0.000005 -0.000004
  0S   1dxz       0.011998  0.018953  0.000001  0.000005  0.000000  0.000010
  0S   1dyz       0.000044 -0.015253  0.000008 -0.000010 -0.000000  0.000003
  0S   1dx2y2     0.007903 -0.007886 -0.000007 -0.000007 -0.000003  0.000001
  0S   1dxy      -0.068109  0.079797  0.000002 -0.000001 -0.000002 -0.000016
  1F   1s         0.006379  0.005325 -0.003946  0.004602  0.000186 -0.000001
  1F   2s        -0.012833 -0.010712  0.004339 -0.005058 -0.000205  0.000002
  1F   1pz       -0.301768 -0.251940 -0.133629  0.169121  0.045625 -0.030351
  1F   1px       -0.035566 -0.029622  0.026197  0.068144 -0.301580  0.241856
  1F   1py        0.016106  0.013369  0.239468  0.187952  0.062542 -0.033930
  1F   3s        -0.018614 -0.015538  0.042900 -0.050041 -0.002028  0.000014
  1F   2pz       -0.191394 -0.159792 -0.096947  0.121062  0.028273 -0.019925
  1F   2px       -0.022558 -0.018787  0.013851  0.043313 -0.181693  0.158757
  1F   2py        0.010219  0.008478  0.145194  0.112268  0.037651 -0.022272
  1F   1dz2       0.005490  0.004544  0.006039 -0.007238 -0.000868  0.000995
  1F   1dxz       0.001018  0.001068  0.000893 -0.001895  0.002491 -0.004553
  1F   1dyz      -0.000325 -0.000647 -0.002554 -0.001011 -0.000492  0.001051
  1F   1dx2y2     0.000229 -0.000166 -0.000090 -0.000208  0.000274 -0.000032
  1F   1dxy      -0.001723  0.001941 -0.000282 -0.000103 -0.000201 -0.003911
  2F   1s        -0.007803  0.002864 -0.003922 -0.003486  0.003040  0.000003
  2F   2s         0.015696 -0.005761  0.004311  0.003833 -0.003345 -0.000006
  2F   1pz        0.014233 -0.005246 -0.190959  0.240594  0.046418 -0.218870
  2F   1px       -0.247959  0.090867 -0.020622  0.041249 -0.269615 -0.179529
  2F   1py       -0.277119  0.101790  0.198371  0.144172  0.096566  0.149200
  2F   3s         0.022772 -0.008369  0.042650  0.037907 -0.033045 -0.000020
  2F   2pz        0.009022 -0.003322 -0.115721  0.144430  0.028453 -0.143655
  2F   2px       -0.157268  0.057624 -0.001470  0.034610 -0.170979 -0.117835
  2F   2py       -0.175758  0.064566  0.131803  0.097770  0.048698  0.097920
  2F   1dz2       0.004176  0.000817 -0.003009 -0.002912  0.002397 -0.001734
  2F   1dxz       0.000489  0.000398 -0.001305  0.001175  0.000523 -0.003004
  2F   1dyz       0.000217 -0.000457 -0.001534  0.001279  0.000450 -0.002732
  2F   1dx2y2     0.000616 -0.000356 -0.001856 -0.001098 -0.001805 -0.004067
  2F   1dxy      -0.005457  0.003357  0.005183  0.004805 -0.004411 -0.001776
  3F   1s        -0.007805  0.002860  0.003921  0.003486 -0.003040 -0.000001
  3F   2s         0.015701 -0.005753 -0.004310 -0.003833  0.003344 -0.000001
  3F   1pz       -0.014388  0.005195 -0.190948  0.240400  0.046495 -0.218678
  3F   1px        0.248127 -0.090924 -0.020531  0.041369 -0.269706 -0.179534
  3F   1py        0.277001 -0.101642  0.198327  0.144203  0.096806  0.149434
  3F   3s         0.022787 -0.008342 -0.042644 -0.037902  0.033055  0.000016
  3F   2pz       -0.009118  0.003292 -0.115721  0.144307  0.028505 -0.143530
  3F   2px        0.157372 -0.057662 -0.001409  0.034690 -0.171039 -0.117836
  3F   2py        0.175685 -0.064470  0.131771  0.097786  0.048850  0.098072
  3F   1dz2       0.004173  0.000819  0.003010  0.002914 -0.002397  0.001736
  3F   1dxz       0.000491  0.000399  0.001306 -0.001172 -0.000524  0.003004
  3F   1dyz       0.000220 -0.000456  0.001534 -0.001277 -0.000451  0.002728
  3F   1dx2y2     0.000611 -0.000351  0.001853  0.001096  0.001810  0.004070
  3F   1dxy      -0.005459  0.003356 -0.005184 -0.004806  0.004408  0.001771
  4F   1s         0.001421 -0.008191  0.002413  0.001858  0.005243  0.000002
  4F   2s        -0.002859  0.016480 -0.002652 -0.002042 -0.005763  0.000002
  4F   1pz       -0.008349  0.047805 -0.197717  0.235560  0.038717  0.248946
  4F   1px        0.049951 -0.287701  0.046425  0.097451 -0.241785 -0.062858
  4F   1py       -0.045094  0.259749  0.218523  0.165137  0.009277 -0.115341
  4F   3s        -0.004139  0.023912 -0.026245 -0.020199 -0.057018 -0.000037
  4F   2pz       -0.005293  0.030320 -0.117928  0.142945  0.026033  0.163408
  4F   2px        0.031682 -0.182483  0.020530  0.052999 -0.161916 -0.041260
  4F   2py       -0.028600  0.164737  0.138444  0.104713  0.020229 -0.075695
  4F   1dz2       0.001607  0.003819  0.002222  0.001005  0.003977 -0.003980
  4F   1dxz       0.000171  0.001188 -0.000837  0.001753  0.001518  0.002953
  4F   1dyz       0.000115 -0.001026  0.000482 -0.001854 -0.001150 -0.002656
  4F   1dx2y2     0.000265 -0.000598  0.001293  0.001368 -0.002039 -0.002440
  4F   1dxy      -0.002362  0.005884  0.003658  0.002440  0.006955  0.001009
  5F   1s         0.001425 -0.008188 -0.002414 -0.001858 -0.005243 -0.000005
  5F   2s        -0.002867  0.016474  0.002653  0.002042  0.005763  0.000009
  5F   1pz        0.008270 -0.047893 -0.197790  0.235693  0.038803  0.249122
  5F   1px       -0.049944  0.287506  0.046486  0.097580 -0.241609 -0.062878
  5F   1py        0.045236 -0.259919  0.218482  0.165027  0.009504 -0.115131
  5F   3s        -0.004168  0.023895  0.026255  0.020207  0.057015  0.000035
  5F   2pz        0.005246 -0.030374 -0.117970  0.143027  0.026091  0.163522
  5F   2px       -0.031675  0.182362  0.020572  0.053084 -0.161798 -0.041275
  5F   2py        0.028692 -0.164843  0.138422  0.104646  0.020377 -0.075561
  5F   1dz2       0.001605  0.003821 -0.002222 -0.001002 -0.003974  0.003978
  5F   1dxz       0.000173  0.001189  0.000838 -0.001755 -0.001518 -0.002954
  5F   1dyz       0.000114 -0.001028 -0.000482  0.001855  0.001152  0.002661
  5F   1dx2y2     0.000262 -0.000592 -0.001294 -0.001370  0.002033  0.002439
  5F   1dxy      -0.002364  0.005882 -0.003657 -0.002437 -0.006957 -0.001014
  6F   1s         0.006384  0.005328  0.003945 -0.004600 -0.000186  0.000002
  6F   2s        -0.012843 -0.010720 -0.004336  0.005057  0.000205 -0.000002
  6F   1pz        0.301774  0.251918 -0.133510  0.169367  0.045705 -0.030407
  6F   1px        0.035496  0.029769  0.026179  0.068199 -0.301549  0.241915
  6F   1py       -0.016442 -0.013657  0.239719  0.187604  0.062523 -0.033939
  6F   3s        -0.018640 -0.015559 -0.042905  0.050020  0.002023 -0.000017
  6F   2pz        0.191399  0.159778 -0.096874  0.121220  0.028324 -0.019962
  6F   2px        0.022511  0.018883  0.013838  0.043351 -0.181679  0.158792
  6F   2py       -0.010429 -0.008658  0.145368  0.112039  0.037640 -0.022279
  6F   1dz2       0.005490  0.004542 -0.006035  0.007241  0.000869 -0.000996
  6F   1dxz       0.001015  0.001073 -0.000893  0.001897 -0.002489  0.004552
  6F   1dyz      -0.000334 -0.000654  0.002560  0.001002  0.000492 -0.001051
  6F   1dx2y2     0.000228 -0.000166  0.000090  0.000207 -0.000275  0.000032
  6F   1dxy      -0.001723  0.001940  0.000282  0.000101  0.000203  0.003910
                     30        31        32        33        34        35   
                  -0.40750  -0.40750  -0.38504  -0.38504  -0.38503  -0.15974
                   2.00000   2.00000   2.00000   2.00000   2.00000   0.00000
                  --------  --------  --------  --------  --------  --------
  0S   1s        -0.000000  0.000001 -0.000000 -0.000000  0.000001  0.069386
  0S   2s         0.000002 -0.000009  0.000000  0.000000 -0.000004 -0.299534
  0S   1pz        0.000017  0.000015 -0.000006 -0.000010 -0.000003  0.000025
  0S   1px       -0.000024 -0.000000 -0.000001  0.000003 -0.000010  0.000006
  0S   1py        0.000029  0.000005 -0.000000 -0.000001 -0.000001 -0.000009
  0S   3s        -0.000000  0.000001 -0.000005 -0.000000  0.000009  0.806244
  0S   2pz       -0.000050 -0.000045  0.000018  0.000029  0.000008 -0.000069
  0S   2px        0.000069  0.000003  0.000002 -0.000008  0.000029 -0.000018
  0S   2py       -0.000084 -0.000017  0.000001  0.000003  0.000003  0.000026
  0S   4s        -0.000013  0.000049  0.000009  0.000001  0.000006  0.382637
  0S   3pz        0.000109  0.000105 -0.000039 -0.000063 -0.000017 -0.000009
  0S   3px       -0.000140 -0.000026 -0.000003  0.000016 -0.000062 -0.000002
  0S   3py        0.000161  0.000053 -0.000004 -0.000009 -0.000006  0.000003
  0S   1dz2       0.000006 -0.000011  0.000000 -0.000000 -0.000003  0.000000
  0S   1dxz      -0.000012 -0.000006 -0.000000  0.000001 -0.000003  0.000001
  0S   1dyz       0.000001  0.000003  0.000001  0.000000 -0.000000  0.000002
  0S   1dx2y2     0.000005 -0.000016  0.000001  0.000001  0.000002 -0.000000
  0S   1dxy      -0.000015 -0.000004 -0.000001  0.000007 -0.000005  0.000002
  1F   1s         0.000003  0.000005 -0.000003 -0.000004 -0.000002  0.025846
  1F   2s        -0.000002 -0.000007  0.000005  0.000010  0.000004 -0.064884
  1F   1pz       -0.022404 -0.023583  0.045438  0.002126 -0.007867  0.254910
  1F   1px        0.240723  0.052828 -0.314192  0.116261  0.124718  0.030037
  1F   1py        0.109568 -0.328049  0.157887  0.296590  0.127664 -0.013653
  1F   3s        -0.000033 -0.000050  0.000017  0.000027  0.000010 -0.123406
  1F   2pz       -0.014700 -0.015468  0.028453  0.001326 -0.004930  0.192898
  1F   2px        0.158014  0.034677 -0.196783  0.072813  0.078119  0.022731
  1F   2py        0.071898 -0.215325  0.098888  0.185763  0.079959 -0.010333
  1F   1dz2       0.000650  0.000711 -0.000659 -0.000028  0.000116  0.005656
  1F   1dxz      -0.004022 -0.000786  0.002592 -0.000977 -0.001040  0.001164
  1F   1dyz      -0.002415  0.005672 -0.001305 -0.002488 -0.001075 -0.000529
  1F   1dx2y2    -0.001023  0.000018  0.000240 -0.000249 -0.000181  0.000054
  1F   1dxy       0.003858  0.002465 -0.000295 -0.000242 -0.000072 -0.000062
  2F   1s         0.000001 -0.000001  0.000000 -0.000001  0.000003  0.025848
  2F   2s        -0.000006  0.000005 -0.000001  0.000003 -0.000007 -0.064887
  2F   1pz        0.236619  0.131630 -0.085185  0.275113  0.215265  0.009900
  2F   1px       -0.053145 -0.179834 -0.056657  0.158301 -0.209433 -0.171295
  2F   1py        0.059716  0.167824  0.046291 -0.127413  0.198495 -0.191399
  2F   3s         0.000010 -0.000001 -0.000003  0.000002 -0.000022 -0.123407
  2F   2pz        0.155298  0.086386 -0.053348  0.172313  0.134827  0.007488
  2F   2px       -0.034865 -0.118033 -0.035487  0.099150 -0.131176 -0.129625
  2F   2py        0.039186  0.110148  0.028992 -0.079798  0.124319 -0.144833
  2F   1dz2      -0.003826  0.002876  0.000048 -0.000156 -0.000122 -0.002886
  2F   1dxz       0.002017  0.002456 -0.000460  0.001501  0.001281 -0.000258
  2F   1dyz       0.003712  0.001168 -0.000552  0.001774  0.001291 -0.000288
  2F   1dx2y2    -0.001254 -0.004587 -0.000611  0.001695 -0.002430 -0.000555
  2F   1dxy      -0.002038  0.001352 -0.000097  0.000281 -0.000203  0.004985
  3F   1s         0.000002 -0.000000 -0.000000  0.000001 -0.000003  0.025848
  3F   2s        -0.000007  0.000005  0.000001 -0.000000  0.000006 -0.064888
  3F   1pz        0.236326  0.131641  0.085314 -0.275430 -0.215406 -0.009903
  3F   1px       -0.053104 -0.179992  0.056605 -0.158186  0.209081  0.171356
  3F   1py        0.059958  0.168001 -0.046271  0.127377 -0.198436  0.191349
  3F   3s        -0.000007 -0.000017  0.000000 -0.000006  0.000021 -0.123406
  3F   2pz        0.155105  0.086395  0.053439 -0.172504 -0.134914 -0.007491
  3F   2px       -0.034836 -0.118135  0.035454 -0.099077  0.130950  0.129667
  3F   2py        0.039340  0.110273 -0.028980  0.079779 -0.124293  0.144798
  3F   1dz2       0.003829 -0.002876  0.000049 -0.000157 -0.000123 -0.002888
  3F   1dxz      -0.002015 -0.002458 -0.000464  0.001500  0.001282 -0.000258
  3F   1dyz      -0.003706 -0.001167 -0.000553  0.001778  0.001291 -0.000287
  3F   1dx2y2     0.001256  0.004592 -0.000611  0.001695 -0.002428 -0.000551
  3F   1dxy       0.002033 -0.001352 -0.000095  0.000277 -0.000196  0.004985
  4F   1s         0.000007  0.000002  0.000000 -0.000002  0.000004  0.025848
  4F   2s        -0.000006  0.000002  0.000000  0.000004 -0.000007 -0.064887
  4F   1pz       -0.213422 -0.107239 -0.341776 -0.104726 -0.004247  0.031508
  4F   1px       -0.188285  0.127080  0.001336 -0.124706  0.209074 -0.189300
  4F   1py       -0.168711  0.160446  0.064420 -0.118744  0.232213  0.171031
  4F   3s        -0.000088 -0.000039 -0.000000  0.000013 -0.000022 -0.123408
  4F   2pz       -0.140091 -0.070398 -0.214066 -0.065588 -0.002657  0.023842
  4F   2px       -0.123603  0.083406  0.000837 -0.078105  0.130949 -0.143252
  4F   2py       -0.110723  0.105319  0.040349 -0.074373  0.145445  0.129425
  4F   1dz2      -0.000764 -0.003435  0.000613  0.000188  0.000007 -0.002770
  4F   1dxz      -0.002690 -0.002352 -0.002130 -0.000521 -0.000243 -0.000907
  4F   1dyz       0.002988  0.001046  0.001859  0.000714 -0.000217  0.000820
  4F   1dx2y2    -0.004653  0.003351  0.000371 -0.001445  0.002609  0.000501
  4F   1dxy       0.000964  0.002882  0.000395 -0.000039  0.000272 -0.004922
  5F   1s        -0.000009 -0.000004  0.000000  0.000002 -0.000002  0.025847
  5F   2s         0.000012  0.000011  0.000000 -0.000003  0.000005 -0.064886
  5F   1pz       -0.213658 -0.107416  0.341394  0.104603  0.004298 -0.031494
  5F   1px       -0.188320  0.126909 -0.001426  0.124867 -0.209369  0.189243
  5F   1py       -0.168391  0.160363 -0.064433  0.118794 -0.232289 -0.171085
  5F   3s         0.000094  0.000021 -0.000004 -0.000011  0.000016 -0.123409
  5F   2pz       -0.140245 -0.070516  0.213827  0.065520  0.002696 -0.023833
  5F   2px       -0.123627  0.083295 -0.000893  0.078213 -0.131137  0.143213
  5F   2py       -0.110513  0.105254 -0.040357  0.074400 -0.145481 -0.129463
  5F   1dz2       0.000760  0.003432  0.000614  0.000188  0.000007 -0.002769
  5F   1dxz       0.002691  0.002353 -0.002128 -0.000523 -0.000245 -0.000906
  5F   1dyz      -0.002992 -0.001049  0.001857  0.000712 -0.000217  0.000819
  5F   1dx2y2     0.004650 -0.003347  0.000372 -0.001448  0.002612  0.000497
  5F   1dxy      -0.000971 -0.002884  0.000393 -0.000035  0.000265 -0.004923
  6F   1s        -0.000003 -0.000004  0.000003  0.000004  0.000002  0.025849
  6F   2s         0.000003  0.000006 -0.000006 -0.000007 -0.000003 -0.064891
  6F   1pz       -0.022317 -0.023849 -0.045609 -0.002368  0.007768 -0.254933
  6F   1px        0.240647  0.052768  0.314286 -0.116350 -0.124755 -0.030047
  6F   1py        0.109560 -0.328013 -0.157929 -0.296687 -0.127708  0.013765
  6F   3s         0.000038  0.000031 -0.000020 -0.000029 -0.000013 -0.123408
  6F   2pz       -0.014642 -0.015651 -0.028571 -0.001492  0.004860 -0.192913
  6F   2px        0.157974  0.034641  0.196845 -0.072877 -0.078131 -0.022738
  6F   2py        0.071895 -0.215306 -0.098915 -0.185823 -0.079986  0.010412
  6F   1dz2      -0.000647 -0.000719 -0.000664 -0.000037  0.000112  0.005658
  6F   1dxz       0.004021  0.000785  0.002591 -0.000979 -0.001038  0.001165
  6F   1dyz       0.002415 -0.005670 -0.001304 -0.002488 -0.001075 -0.000534
  6F   1dx2y2     0.001025 -0.000025  0.000241 -0.000248 -0.000181  0.000054
  6F   1dxy      -0.003859 -0.002466 -0.000301 -0.000239 -0.000069 -0.000063
                     36        37        38        39        40        41   
                   0.04785   0.04785   0.04786   0.30122   0.33331   0.33332
                   0.00000   0.00000   0.00000   0.00000   0.00000   0.00000
                  --------  --------  --------  --------  --------  --------
  0S   1s         0.000002  0.000006 -0.000002 -0.049749  0.000008 -0.000010
  0S   2s        -0.000011 -0.000027  0.000010 -0.084383  0.000020 -0.000025
  0S   1pz       -0.169631 -0.183481  0.168570  0.000049  0.041407 -0.185772
  0S   1px       -0.116342 -0.122001 -0.249873  0.000014  0.055839 -0.053528
  0S   1py       -0.220327  0.205682  0.002157 -0.000022 -0.189044 -0.056504
  0S   3s         0.000028  0.000060 -0.000024 -1.683601  0.000290 -0.000367
  0S   2pz        0.515212  0.557277 -0.511991 -0.000205 -0.190133  0.853026
  0S   2px        0.353359  0.370546  0.758932 -0.000060 -0.256399  0.245790
  0S   2py        0.669187 -0.624706 -0.006551  0.000093  0.868045  0.259454
  0S   4s         0.000032  0.000093 -0.000029  3.226314 -0.000573  0.000718
  0S   3pz        0.307740  0.332860 -0.305789  0.000454  0.413519 -1.855142
  0S   3px        0.211053  0.221351  0.453281  0.000126  0.557612 -0.534534
  0S   3py        0.399716 -0.373154 -0.003926 -0.000191 -1.887787 -0.564231
  0S   1dz2      -0.000044  0.000002  0.000019 -0.000001  0.000015 -0.000014
  0S   1dxz       0.000001  0.000001  0.000005  0.000006 -0.000008 -0.000011
  0S   1dyz      -0.000024 -0.000049  0.000029  0.000010 -0.000024  0.000083
  0S   1dx2y2    -0.000043  0.000037  0.000008 -0.000004  0.000081  0.000032
  0S   1dxy      -0.000013 -0.000002 -0.000005  0.000000  0.000000  0.000015
  1F   1s         0.030647  0.037328 -0.024838  0.043470  0.011722 -0.038132
  1F   2s        -0.079014 -0.096246  0.064041 -0.090434 -0.017646  0.057371
  1F   1pz        0.164054  0.209184 -0.120341 -0.038898 -0.033909  0.140938
  1F   1px       -0.019765 -0.016082 -0.123624 -0.004589 -0.034506  0.035549
  1F   1py       -0.101868  0.068275  0.010979  0.002110  0.113690  0.032194
  1F   3s        -0.188564 -0.229640  0.152806 -0.482266 -0.184535  0.600413
  1F   2pz        0.154253  0.195232 -0.115101  0.247751  0.061234 -0.161118
  1F   2px       -0.012532 -0.008990 -0.099530  0.029188 -0.030824  0.004633
  1F   2py       -0.081388  0.051961  0.009736 -0.013264  0.136169  0.058258
  1F   1dz2       0.005407  0.008644 -0.001605 -0.047865 -0.017550  0.048187
  1F   1dxz      -0.003848 -0.003532 -0.014434 -0.009851  0.001717  0.006726
  1F   1dyz      -0.012332  0.009353  0.000815  0.004485 -0.017272 -0.011226
  1F   1dx2y2    -0.001168  0.000010 -0.001632 -0.000461 -0.000560 -0.000271
  1F   1dxy      -0.001188  0.001379  0.000839  0.000527 -0.002312 -0.001149
  2F   1s        -0.042346  0.014217 -0.030883  0.043463  0.021379  0.014371
  2F   2s         0.109182 -0.036654  0.079632 -0.090428 -0.032154 -0.021634
  2F   1pz       -0.081324 -0.070270  0.059295 -0.001527 -0.025454  0.110831
  2F   1px        0.169013 -0.122075  0.056325  0.026112 -0.022200  0.039588
  2F   1py        0.152210  0.002332  0.177054  0.029171  0.125663  0.042218
  2F   3s         0.260519 -0.087470  0.189975 -0.482115 -0.336665 -0.226208
  2F   2pz       -0.065229 -0.054728  0.045577  0.009573 -0.024384  0.143041
  2F   2px        0.156340 -0.103817  0.061425 -0.166484 -0.154656 -0.035958
  2F   2py        0.145880 -0.007001  0.158276 -0.185975  0.014908 -0.042627
  2F   1dz2       0.003249 -0.001923  0.003385  0.024431  0.014043  0.007989
  2F   1dxz       0.006617  0.005790 -0.005633  0.002177 -0.000802  0.013556
  2F   1dyz       0.007211  0.007149 -0.005730  0.002431 -0.001885  0.015164
  2F   1dx2y2    -0.002402  0.011479  0.010260  0.004678 -0.014282  0.001911
  2F   1dxy      -0.006676  0.003912 -0.004120 -0.042168 -0.025820 -0.015235
  3F   1s         0.042346 -0.014207  0.030885  0.043460 -0.021393 -0.014349
  3F   2s        -0.109183  0.036634 -0.079634 -0.090426  0.032205  0.021588
  3F   1pz       -0.081321 -0.070218  0.059250  0.001471 -0.025422  0.110765
  3F   1px        0.169090 -0.122077  0.056368 -0.026105 -0.022274  0.039545
  3F   1py        0.152128  0.002421  0.177057 -0.029157  0.125714  0.042227
  3F   3s        -0.260502  0.087393 -0.190008 -0.482058  0.336728  0.225948
  3F   2pz       -0.065243 -0.054714  0.045555 -0.009661 -0.024377  0.143056
  3F   2px        0.156379 -0.103790  0.061475  0.166487 -0.154698 -0.035875
  3F   2py        0.145828 -0.006935  0.158273  0.185956  0.014873 -0.042518
  3F   1dz2      -0.003254  0.001926 -0.003386  0.024416 -0.014034 -0.007967
  3F   1dxz      -0.006617 -0.005780  0.005629  0.002184  0.000812 -0.013579
  3F   1dyz      -0.007207 -0.007144  0.005724  0.002443  0.001886 -0.015176
  3F   1dx2y2     0.002418 -0.011490 -0.010261  0.004676  0.014260 -0.001916
  3F   1dxy       0.006671 -0.003904  0.004128 -0.042171  0.025827  0.015214
  4F   1s         0.014727 -0.036790 -0.037128  0.043458 -0.032933 -0.004252
  4F   2s        -0.037973  0.094856  0.095729 -0.090426  0.049568  0.006394
  4F   1pz       -0.054975 -0.108957  0.033515 -0.004824 -0.021621  0.111602
  4F   1px       -0.130298  0.158090  0.108108  0.028822 -0.052438  0.029597
  4F   1py       -0.014332 -0.104104 -0.188415 -0.026062  0.130422  0.036062
  4F   3s        -0.090589  0.226328  0.228414 -0.482024  0.518413  0.066970
  4F   2pz       -0.041689 -0.089363  0.022534  0.030567 -0.062896  0.134540
  4F   2px       -0.111399  0.146798  0.107760 -0.183931  0.150538  0.064784
  4F   2py       -0.003063 -0.102225 -0.168630  0.166207 -0.032602  0.019734
  4F   1dz2      -0.003053  0.000929  0.004838  0.023420 -0.019031 -0.006582
  4F   1dxz       0.004558  0.009213 -0.005041  0.007662 -0.012034  0.012003
  4F   1dyz      -0.006193 -0.007717  0.003132 -0.006926  0.009153 -0.012147
  4F   1dx2y2     0.012731 -0.004087  0.007835 -0.004221  0.013899  0.008508
  4F   1dxy      -0.002045  0.004043  0.007560  0.041641 -0.034388 -0.006153
  5F   1s        -0.014730  0.036798  0.037124  0.043464  0.032918  0.004275
  5F   2s         0.037976 -0.094874 -0.095720 -0.090430 -0.049521 -0.006436
  5F   1pz       -0.055006 -0.109015  0.033541  0.004775 -0.021634  0.111679
  5F   1px       -0.130283  0.158049  0.108040 -0.028864 -0.052507  0.029566
  5F   1py       -0.014252 -0.104202 -0.188436  0.026081  0.130363  0.036050
  5F   3s         0.090637 -0.226390 -0.228380 -0.482146 -0.518319 -0.067259
  5F   2pz       -0.041691 -0.089388  0.022539 -0.030651 -0.062891  0.134509
  5F   2px       -0.111413  0.146793  0.107695  0.183909  0.150463  0.064895
  5F   2py       -0.003017 -0.102299 -0.168647 -0.166247 -0.032570  0.019637
  5F   1dz2       0.003051 -0.000923 -0.004836  0.023435  0.019041  0.006594
  5F   1dxz      -0.004564 -0.009219  0.005046  0.007674  0.012033 -0.011972
[...]
     19       0.000006   0.000331   0.000048   0.000000   0.000090   0.000001
     20      -0.000105   0.000048  -0.000560  -0.000003   0.000001   0.000065
                  6          7          8          9         10         11    
      0      -0.000070  -0.000451   0.000023  -0.000070  -0.000451   0.000023
      1      -0.000451  -0.000170   0.000026  -0.000451  -0.000170   0.000026
      2       0.000023   0.000026   0.000333   0.000023   0.000026   0.000333
      3       0.000084  -0.000011  -0.000015   0.000091  -0.000009   0.000011
      4      -0.000011   0.000087  -0.000013  -0.000009   0.000084   0.000017
      5      -0.000015  -0.000013   0.000079   0.000011   0.000017   0.000075
      6      -0.000338   0.000484  -0.000025   0.000079  -0.000013   0.000001
      7       0.000484  -0.000231  -0.000028  -0.000013   0.000076   0.000001
      8      -0.000025  -0.000028  -0.000770   0.000001   0.000001   0.000090
      9       0.000079  -0.000013   0.000001  -0.000338   0.000484  -0.000025
     10      -0.000013   0.000076   0.000001   0.000484  -0.000231  -0.000028
     11       0.000001   0.000001   0.000090  -0.000025  -0.000028  -0.000770
     12       0.000097   0.000002   0.000000   0.000057  -0.000002   0.000005
     13       0.000002   0.000057  -0.000002  -0.000002   0.000097   0.000000
     14       0.000000  -0.000002   0.000097   0.000005   0.000000   0.000096
     15       0.000057  -0.000002   0.000005   0.000097   0.000002   0.000000
     16      -0.000002   0.000097   0.000000   0.000002   0.000057  -0.000002
     17       0.000005   0.000000   0.000096   0.000000  -0.000002   0.000097
     18       0.000091  -0.000009   0.000011   0.000084  -0.000011  -0.000015
     19      -0.000009   0.000084   0.000017  -0.000011   0.000087  -0.000013
     20       0.000011   0.000017   0.000075  -0.000015  -0.000013   0.000079
                 12         13         14         15         16         17    
      0      -0.000159   0.000445   0.000082  -0.000159   0.000445   0.000082
      1       0.000445  -0.000069  -0.000074   0.000445  -0.000069  -0.000074
      2       0.000082  -0.000074   0.000320   0.000082  -0.000074   0.000320
      3       0.000082   0.000012  -0.000015   0.000089   0.000008   0.000014
      4       0.000012   0.000086   0.000013   0.000008   0.000089  -0.000014
      5      -0.000015   0.000013   0.000082   0.000014  -0.000014   0.000072
      6       0.000097   0.000002   0.000000   0.000057  -0.000002   0.000005
      7       0.000002   0.000057  -0.000002  -0.000002   0.000097   0.000000
      8       0.000000  -0.000002   0.000097   0.000005   0.000000   0.000096
      9       0.000057  -0.000002   0.000005   0.000097   0.000002   0.000000
     10      -0.000002   0.000097   0.000000   0.000002   0.000057  -0.000002
     11       0.000005   0.000000   0.000096   0.000000  -0.000002   0.000097
     12      -0.000243  -0.000478  -0.000088   0.000077   0.000012   0.000002
     13      -0.000478  -0.000340   0.000080   0.000012   0.000079  -0.000002
     14      -0.000088   0.000080  -0.000757   0.000002  -0.000002   0.000090
     15       0.000077   0.000012   0.000002  -0.000243  -0.000478  -0.000088
     16       0.000012   0.000079  -0.000002  -0.000478  -0.000340   0.000080
     17       0.000002  -0.000002   0.000090  -0.000088   0.000080  -0.000757
     18       0.000089   0.000008   0.000014   0.000082   0.000012  -0.000015
     19       0.000008   0.000089  -0.000014   0.000012   0.000086   0.000013
     20       0.000014  -0.000014   0.000072  -0.000015   0.000013   0.000082
                  18         19         20    
      0       0.000322   0.000006  -0.000105
      1       0.000006   0.000331   0.000048
      2      -0.000105   0.000048  -0.000560
      3       0.000090   0.000000  -0.000003
      4       0.000000   0.000090   0.000001
      5      -0.000003   0.000001   0.000065
      6       0.000091  -0.000009   0.000011
      7      -0.000009   0.000084   0.000017
      8       0.000011   0.000017   0.000075
      9       0.000084  -0.000011  -0.000015
     10      -0.000011   0.000087  -0.000013
     11      -0.000015  -0.000013   0.000079
     12       0.000089   0.000008   0.000014
     13       0.000008   0.000089  -0.000014
     14       0.000014  -0.000014   0.000072
     15       0.000082   0.000012  -0.000015
     16       0.000012   0.000086   0.000013
     17      -0.000015   0.000013   0.000082
     18      -0.000758  -0.000006   0.000113
     19      -0.000006  -0.000769  -0.000052
     20       0.000113  -0.000052   0.000187

done   (      0.0 sec)
Dipol derivatives                                ... done   (      0.2 sec)

-------
TIMINGS
-------

Total SCF Hessian time: 0 days 0 hours 0 min 39 sec 
                   F(y)            G[Q(x)]           CPSCF         Total
Table01         1.4  0.04         2.3  0.06        21.7  0.55        39.4 
Table01a        1.4  0.04,        2.3, 0.06,       21.7  0.55        39.4 
Table01b        1.4   3.6,        2.3,  5.9,       21.7  55.2        39.4 

Writing the Hessian file to the disk             ... done


Maximum memory used throughout the entire calculation: 90.1 MB

-----------------------
VIBRATIONAL FREQUENCIES
-----------------------

Scaling factor for frequencies =  1.000000000  (already applied!)

   0:         0.00 cm**-1
   1:         0.00 cm**-1
   2:         0.00 cm**-1
   3:         0.00 cm**-1
   4:         0.00 cm**-1
   5:         0.00 cm**-1
   6:       312.63 cm**-1
   7:       313.91 cm**-1
   8:       315.53 cm**-1
   9:       471.09 cm**-1
  10:       471.68 cm**-1
  11:       472.83 cm**-1
  12:       555.28 cm**-1
  13:       556.34 cm**-1
  14:       556.82 cm**-1
  15:       641.31 cm**-1
  16:       641.53 cm**-1
  17:       723.41 cm**-1
  18:       957.41 cm**-1
  19:       957.78 cm**-1
  20:       958.16 cm**-1


------------
NORMAL MODES
------------

These modes are the Cartesian displacements weighted by the diagonal matrix
M(i,i)=1/sqrt(m[i]) where m[i] is the mass of the displaced atom
Thus, these vectors are normalized but *not* orthogonal

                  0          1          2          3          4          5    
      0       0.000000   0.000000   0.000000   0.000000   0.000000   0.000000
      1       0.000000   0.000000   0.000000   0.000000   0.000000   0.000000
      2       0.000000   0.000000   0.000000   0.000000   0.000000   0.000000
      3       0.000000   0.000000   0.000000   0.000000   0.000000   0.000000
      4       0.000000   0.000000   0.000000   0.000000   0.000000   0.000000
      5       0.000000   0.000000   0.000000   0.000000   0.000000   0.000000
      6       0.000000   0.000000   0.000000   0.000000   0.000000   0.000000
      7       0.000000   0.000000   0.000000   0.000000   0.000000   0.000000
      8       0.000000   0.000000   0.000000   0.000000   0.000000   0.000000
      9       0.000000   0.000000   0.000000   0.000000   0.000000   0.000000
     10       0.000000   0.000000   0.000000   0.000000   0.000000   0.000000
     11       0.000000   0.000000   0.000000   0.000000   0.000000   0.000000
     12       0.000000   0.000000   0.000000   0.000000   0.000000   0.000000
     13       0.000000   0.000000   0.000000   0.000000   0.000000   0.000000
     14       0.000000   0.000000   0.000000   0.000000   0.000000   0.000000
     15       0.000000   0.000000   0.000000   0.000000   0.000000   0.000000
     16       0.000000   0.000000   0.000000   0.000000   0.000000   0.000000
     17       0.000000   0.000000   0.000000   0.000000   0.000000   0.000000
     18       0.000000   0.000000   0.000000   0.000000   0.000000   0.000000
     19       0.000000   0.000000   0.000000   0.000000   0.000000   0.000000
     20       0.000000   0.000000   0.000000   0.000000   0.000000   0.000000
                  6          7          8          9         10         11    
      0      -0.000322  -0.000547   0.000309  -0.000000  -0.000000  -0.000000
      1       0.001123  -0.000035  -0.000667  -0.000000   0.000000   0.000000
      2       0.000462  -0.000618  -0.001694  -0.000000   0.000000  -0.000000
      3      -0.059615  -0.416894  -0.262711  -0.348545  -0.183836  -0.302386
      4       0.287411  -0.248270   0.324262  -0.067287   0.451494  -0.202133
      5       0.022865   0.034725   0.046859   0.036465   0.046268   0.024119
      6       0.223499   0.121038   0.272289   0.289802  -0.098584  -0.210936
      7      -0.181330  -0.104341  -0.260814  -0.249584   0.079145   0.208717
      8       0.370466   0.094863  -0.319692   0.238581  -0.197764   0.391984
      9       0.223499   0.121037   0.272289  -0.289802   0.098584   0.210936
     10      -0.181330  -0.104341  -0.260814   0.249583  -0.079145  -0.208718
     11       0.370466   0.094864  -0.319692  -0.238581   0.197764  -0.391984
     12      -0.163612   0.296318  -0.009838   0.258567  -0.015336  -0.217025
     13      -0.107028   0.352641  -0.062886   0.249364  -0.099087  -0.260046
     14      -0.393720  -0.129068   0.274262   0.201050   0.441667   0.103398
     15      -0.163612   0.296318  -0.009838  -0.258567   0.015335   0.217025
     16      -0.107028   0.352641  -0.062886  -0.249364   0.099087   0.260046
     17      -0.393721  -0.129068   0.274263  -0.201050  -0.441667  -0.103397
     18      -0.059615  -0.416894  -0.262711   0.348545   0.183836   0.302386
     19       0.287411  -0.248270   0.324262   0.067288  -0.451494   0.202132
     20       0.022865   0.034725   0.046859  -0.036466  -0.046268  -0.024119
                 12         13         14         15         16         17    
      0       0.238536  -0.128989   0.117325   0.000000   0.000000  -0.000000
      1       0.036131  -0.157913  -0.247046   0.000000  -0.000000   0.000001
      2       0.171270   0.213524  -0.111067   0.000001  -0.000001  -0.000001
      3      -0.224067   0.218870  -0.166088   0.055234  -0.037495  -0.047576
      4      -0.072042   0.158499   0.306685  -0.026571   0.017075   0.021457
      5       0.325652   0.302894  -0.093611   0.477796  -0.316197  -0.404416
      6       0.044186  -0.231171  -0.325588   0.344996   0.172491   0.272219
      7       0.321347  -0.243308   0.088832   0.383918   0.192833   0.303077
      8      -0.222850  -0.234088   0.145594  -0.018595  -0.009864  -0.015628
      9       0.044186  -0.231171  -0.325588  -0.344996  -0.172492  -0.272219
     10       0.321348  -0.243309   0.088831  -0.383918  -0.192833  -0.303077
     11      -0.222851  -0.234088   0.145594   0.018594   0.009865   0.015629
     12      -0.021390   0.121139   0.392681  -0.024899  -0.423884   0.301764
     13      -0.279792   0.218052  -0.187066   0.023538   0.382884  -0.271874
     14      -0.247316  -0.248973   0.041733   0.004399   0.070774  -0.050434
     15      -0.021390   0.121139   0.392681   0.024899   0.423884  -0.301764
     16      -0.279792   0.218053  -0.187065  -0.023538  -0.382884   0.271874
     17      -0.247316  -0.248973   0.041733  -0.004400  -0.070773   0.050435
     18      -0.224066   0.218869  -0.166088  -0.055234   0.037494   0.047576
     19      -0.072042   0.158499   0.306684   0.026570  -0.017075  -0.021457
     20       0.325654   0.302896  -0.093612  -0.477796   0.316197   0.404417
                  18         19         20    
      0       0.016678   0.255275  -0.670279
      1       0.647963   0.282010   0.123552
      2      -0.307306   0.608132   0.224524
      3       0.021898  -0.063925   0.046520
      4      -0.065378  -0.003885  -0.005948
      5       0.224640  -0.413915  -0.099489
      6      -0.201121  -0.162601   0.199834
      7      -0.276550  -0.181679   0.149718
      8       0.036665  -0.043333  -0.027324
      9      -0.201121  -0.162601   0.199833
     10      -0.276549  -0.181679   0.149718
     11       0.036665  -0.043333  -0.027324
     12       0.165150   0.011132   0.319209
     13      -0.204805  -0.052387  -0.248020
     14      -0.002008  -0.055878  -0.062635
     15       0.165151   0.011132   0.319210
     16      -0.204806  -0.052387  -0.248020
     17      -0.002008  -0.055878  -0.062636
     18       0.021898  -0.063925   0.046520
     19      -0.065378  -0.003886  -0.005948
     20       0.224638  -0.413911  -0.099488


-----------
IR SPECTRUM
-----------

 Mode    freq (cm**-1)   T**2         TX         TY         TZ
-------------------------------------------------------------------
   6:       312.63    0.000842  ( -0.003388   0.027318   0.009165)
   7:       313.91    0.000174  ( -0.008307  -0.000806  -0.010231)
   8:       315.53    0.001430  (  0.006386  -0.013121  -0.034892)
   9:       471.09    0.000000  ( -0.000001  -0.000002  -0.000000)
  10:       471.68    0.000000  ( -0.000000   0.000002   0.000001)
  11:       472.83    0.000000  ( -0.000001   0.000001  -0.000000)
  12:       555.28   24.358243  (  3.976105   0.595563   2.862540)
  13:       556.34   24.175819  ( -2.149694  -2.635400   3.550958)
  14:       556.82   24.156836  (  1.952591  -4.113912  -1.849312)
  15:       641.31    0.000000  (  0.000008   0.000004   0.000035)
  16:       641.53    0.000000  (  0.000011  -0.000009  -0.000026)
  17:       723.41    0.000000  ( -0.000010   0.000016  -0.000035)
  18:       957.41  365.060996  (  0.441183  17.257443  -8.188224)
  19:       957.78  365.072441  (  6.803419   7.513347  16.196776)
  20:       958.16  365.189399  (-17.850313   3.289493   5.977873)

The first frequency considered to be a vibration is 6
The total number of vibrations considered is 15


--------------------------
THERMOCHEMISTRY AT 298.15K
--------------------------

Temperature         ... 298.15 K
Pressure            ... 1.00 atm
Total Mass          ... 146.05 AMU

Throughout the following assumptions are being made:
  (1) The electronic state is orbitally nondegenerate
  (2) There are no thermally accessible electronically excited states
  (3) Hindered rotations indicated by low frequency modes are not
      treated as such but are treated as vibrations and this may
      cause some error
  (4) All equations used are the standard statistical mechanics
      equations for an ideal gas
  (5) All vibrations are strictly harmonic

freq.     312.63  E(vib)   ...       0.25 
freq.     313.91  E(vib)   ...       0.25 
freq.     315.53  E(vib)   ...       0.25 
freq.     471.09  E(vib)   ...       0.15 
freq.     471.68  E(vib)   ...       0.15 
freq.     472.83  E(vib)   ...       0.15 
freq.     555.28  E(vib)   ...       0.12 
freq.     556.34  E(vib)   ...       0.12 
freq.     556.82  E(vib)   ...       0.12 
freq.     641.31  E(vib)   ...       0.09 
freq.     641.53  E(vib)   ...       0.09 
freq.     723.41  E(vib)   ...       0.07 
freq.     957.41  E(vib)   ...       0.03 
freq.     957.78  E(vib)   ...       0.03 
freq.     958.16  E(vib)   ...       0.03 

------------
INNER ENERGY
------------

The inner energy is: U= E(el) + E(ZPE) + E(vib) + E(rot) + E(trans)
    E(el)   - is the total energy from the electronic structure calculation
              = E(kin-el) + E(nuc-el) + E(el-el) + E(nuc-nuc)
    E(ZPE)  - the the zero temperature vibrational energy from the frequency calculation
    E(vib)  - the the finite temperature correction to E(ZPE) due to population
              of excited vibrational states
    E(rot)  - is the rotational thermal energy
    E(trans)- is the translational thermal energy

Summary of contributions to the inner energy U:
Electronic energy                ...   -996.76021577 Eh
Zero point energy                ...      0.02028866 Eh      12.73 kcal/mol
Thermal vibrational correction   ...      0.00301428 Eh       1.89 kcal/mol
Thermal rotational correction    ...      0.00141627 Eh       0.89 kcal/mol
Thermal translational correction ...      0.00141627 Eh       0.89 kcal/mol
-----------------------------------------------------------------------
Total thermal energy                   -996.73408029 Eh


Summary of corrections to the electronic energy:
(perhaps to be used in another calculation)
Total thermal correction                  0.00584682 Eh       3.67 kcal/mol
Non-thermal (ZPE) correction              0.02028866 Eh      12.73 kcal/mol
-----------------------------------------------------------------------
Total correction                          0.02613548 Eh      16.40 kcal/mol


--------
ENTHALPY
--------

The enthalpy is H = U + kB*T
                kB is Boltzmann's constant
Total free energy                 ...   -996.73408029 Eh 
Thermal Enthalpy correction       ...      0.00094421 Eh       0.59 kcal/mol
-----------------------------------------------------------------------
Total Enthalpy                    ...   -996.73313608 Eh


Note: Rotational entropy computed according to Herzberg 
Infrared and Raman Spectra, Chapter V,1, Van Nostrand Reinhold, 1945 
Point Group:  Ci, Symmetry Number:   1  
Rotational constants in cm-1:     0.086171     0.086164     0.086155 

Vibrational entropy computed according to the QRRHO of S. Grimme
Chem.Eur.J. 2012 18 9955


-------
ENTROPY
-------

The entropy contributions are T*S = T*(S(el)+S(vib)+S(rot)+S(trans))
     S(el)   - electronic entropy
     S(vib)  - vibrational entropy
     S(rot)  - rotational entropy
     S(trans)- translational entropy
The entropies will be listed as mutliplied by the temperature to get
units of energy

Electronic entropy                ...      0.00000000 Eh      0.00 kcal/mol
Vibrational entropy               ...      0.00437734 Eh      2.75 kcal/mol
Rotational entropy                ...      0.01298281 Eh      8.15 kcal/mol
Translational entropy             ...      0.01940768 Eh     12.18 kcal/mol
-----------------------------------------------------------------------
Final entropy term                ...      0.03676782 Eh     23.07 kcal/mol

In case the symmetry of your molecule has not been determined correctly
or in case you have a reason to use a different symmetry number we print 
out the resulting rotational entropy values for sn=1,12 :
 --------------------------------------------------------
|  sn= 1 | S(rot)=       0.01298281 Eh      8.15 kcal/mol|
|  sn= 2 | S(rot)=       0.01232836 Eh      7.74 kcal/mol|
|  sn= 3 | S(rot)=       0.01194552 Eh      7.50 kcal/mol|
|  sn= 4 | S(rot)=       0.01167390 Eh      7.33 kcal/mol|
|  sn= 5 | S(rot)=       0.01146321 Eh      7.19 kcal/mol|
|  sn= 6 | S(rot)=       0.01129107 Eh      7.09 kcal/mol|
|  sn= 7 | S(rot)=       0.01114552 Eh      6.99 kcal/mol|
|  sn= 8 | S(rot)=       0.01101944 Eh      6.91 kcal/mol|
|  sn= 9 | S(rot)=       0.01090823 Eh      6.85 kcal/mol|
|  sn=10 | S(rot)=       0.01080876 Eh      6.78 kcal/mol|
|  sn=11 | S(rot)=       0.01071877 Eh      6.73 kcal/mol|
|  sn=12 | S(rot)=       0.01063661 Eh      6.67 kcal/mol|
 --------------------------------------------------------


-------------------
GIBBS FREE ENERGY
-------------------

The Gibbs free energy is G = H - T*S

Total enthalpy                    ...   -996.73313608 Eh 
Total entropy correction          ...     -0.03676782 Eh    -23.07 kcal/mol
-----------------------------------------------------------------------
Final Gibbs free energy         ...   -996.76990390 Eh

For completeness - the Gibbs free energy minus the electronic energy
G-E(el)                           ...     -0.00968813 Eh     -6.08 kcal/mol


Timings for individual modules:

Sum of individual times         ...       99.219 sec (=   1.654 min)
GTO integral calculation        ...        4.542 sec (=   0.076 min)   4.6 %
SCF iterations                  ...       42.685 sec (=   0.711 min)  43.0 %
SCF Gradient evaluation         ...       11.802 sec (=   0.197 min)  11.9 %
Geometry relaxation             ...        0.121 sec (=   0.002 min)   0.1 %
Analytical frequency calculation...       40.069 sec (=   0.668 min)  40.4 %
                             ****ORCA TERMINATED NORMALLY****
TOTAL RUN TIME: 0 days 0 hours 1 minutes 40 seconds 9 msec
