
                                 *****************
                                 * O   R   C   A *
                                 *****************

           --- An Ab Initio, DFT and Semiempirical electronic structure package ---

                  #######################################################
                  #                        -***-                        #
                  #          Department of theory and spectroscopy      #
                  #               Directorship: Frank Neese             #
                  #        Max Planck Institute fuer Kohlenforschung    #
                  #                Kaiser Wilhelm Platz 1               #
                  #                 D-45470 Muelheim/Ruhr               #
                  #                      Germany                        #
                  #                                                     #
                  #                  All rights reserved                #
                  #                        -***-                        #
                  #######################################################


                         Program Version 4.2.1 -  RELEASE  -


 With contributions from (in alphabetic order):
   Daniel Aravena         : Magnetic Suceptibility
   Michael Atanasov       : Ab Initio Ligand Field Theory (pilot matlab implementation)
   Alexander A. Auer      : GIAO ZORA, VPT2
   Ute Becker             : Parallelization
   Giovanni Bistoni       : ED, misc. LED, open-shell LED, HFLD
   Martin Brehm           : Molecular dynamics
   Dmytro Bykov           : SCF Hessian
   Vijay G. Chilkuri      : MRCI spin determinant printing, contributions to CSF-ICE
   Dipayan Datta          : RHF DLPNO-CCSD density
   Achintya Kumar Dutta   : EOM-CC, STEOM-CC
   Dmitry Ganyushin       : Spin-Orbit,Spin-Spin,Magnetic field MRCI
   Miquel Garcia          : C-PCM Hessian, Gaussian charge scheme
   Yang Guo               : DLPNO-NEVPT2, CIM, IAO-localization
   Andreas Hansen         : Spin unrestricted coupled pair/coupled cluster methods
   Benjamin Helmich-Paris : CASSCF linear response (MC-RPA)
   Lee Huntington         : MR-EOM, pCC
   Robert Izsak           : Overlap fitted RIJCOSX, COSX-SCS-MP3, EOM
   Christian Kollmar      : KDIIS, OOCD, Brueckner-CCSD(T), CCSD density
   Simone Kossmann        : Meta GGA functionals, TD-DFT gradient, OOMP2, MP2 Hessian
   Martin Krupicka        : AUTO-CI
   Lucas Lang             : DCDCAS
   Dagmar Lenk            : GEPOL surface, SMD
   Dimitrios Liakos       : Extrapolation schemes; Compound Job, initial MDCI parallelization
   Dimitrios Manganas     : Further ROCIS development; embedding schemes
   Dimitrios Pantazis     : SARC Basis sets
   Taras Petrenko         : DFT Hessian,TD-DFT gradient, ASA, ECA, R-Raman, ABS, FL, XAS/XES, NRVS
   Peter Pinski           : DLPNO-MP2, DLPNO-MP2 Gradient
   Christoph Reimann      : Effective Core Potentials
   Marius Retegan         : Local ZFS, SOC
   Christoph Riplinger    : Optimizer, TS searches, QM/MM, DLPNO-CCSD(T), (RO)-DLPNO pert. Triples
   Tobias Risthaus        : Range-separated hybrids, TD-DFT gradient, RPA, STAB
   Michael Roemelt        : Original ROCIS implementation
   Masaaki Saitow         : Open-shell DLPNO-CCSD energy and density
   Barbara Sandhoefer     : DKH picture change effects
   Avijit Sen             : IP-ROCIS
   Kantharuban Sivalingam : CASSCF convergence, NEVPT2, FIC-MRCI
   Bernardo de Souza      : ESD, SOC TD-DFT
   Georgi Stoychev        : AutoAux, RI-MP2 NMR
   Willem Van den Heuvel  : Paramagnetic NMR
   Boris Wezisla          : Elementary symmetry handling
   Frank Wennmohs         : Technical directorship


 We gratefully acknowledge several colleagues who have allowed us to
 interface, adapt or use parts of their codes:
   Stefan Grimme, W. Hujo, H. Kruse,             : VdW corrections, initial TS optimization,
                  C. Bannwarth                     DFT functionals, gCP, sTDA/sTD-DF
   Ed Valeev, F. Pavosevic, A. Kumar             : LibInt (2-el integral package), F12 methods
   Garnet Chan, S. Sharma, J. Yang, R. Olivares  : DMRG
   Ulf Ekstrom                                   : XCFun DFT Library
   Mihaly Kallay                                 : mrcc  (arbitrary order and MRCC methods)
   Andreas Klamt, Michael Diedenhofen            : otool_cosmo (COSMO solvation model)
   Jiri Pittner, Ondrej Demel                    : Mk-CCSD
   Frank Weinhold                                : gennbo (NPA and NBO analysis)
   Christopher J. Cramer and Donald G. Truhlar   : smd solvation model
   Lars Goerigk                                  : TD-DFT with DH, B97 family of functionals
   V. Asgeirsson, H. Jonsson                     : NEB implementation
   FAccTs GmbH                                   : IRC, NEB, NEB-TS, Multilevel, MM, QM/MM, CI optimization
   S Lehtola, MJT Oliveira, MAL Marques          : LibXC Library


 Your calculation uses the libint2 library for the computation of 2-el integrals
 For citations please refer to: http://libint.valeyev.net

 Your ORCA version has been built with support for libXC version: 4.2.3
 For citations please refer to: https://tddft.org/programs/libxc/

 This ORCA versions uses:
   CBLAS   interface :  Fast vector & matrix operations
   LAPACKE interface :  Fast linear algebra routines
   SCALAPACK package :  Parallel linear algebra routines


Your calculation utilizes the atom-pairwise dispersion correction
with the Becke-Johnson damping scheme (D3BJ)
Cite in your paper:
S.Grimme, S.Ehrlich, L.Goerigk, J Comput Chem, (2011), 32, 1456–1465 
S.Grimme, J.Antony, S.Ehrlich and H.Krieg, J.Chem.Phys., 132, (2010), 154104 
   

Your calculation employs the composite approach B97-3c by Grimme and coworkers.
For the correct reference, please check the publication list of the Grimme group:
http://www.thch.uni-bonn.de/tc/index.php?section=publikationen&subsection=grimme#2017
   

XCFun DFT library Copyright 2009-2010 Ulf Ekstrom and contributors.
See http://admol.org/xcfun for more information. This is free soft-
ware; see the source code for copying conditions. There is ABSOLUTELY
NO WARRANTY; not even for MERCHANTABILITY or FITNESS FOR A PARTICULAR
PURPOSE. For details see the documentation. Scientific users of this 
library should cite U. Ekstrom, L. Visscher, R. Bast, A. J. Thorvald-
sen and K. Ruud; J.Chem.Theor.Comp. 2010, DOI: 10.1021/ct100117s
XCFun Version 0.99 
----- Orbital basis set information -----
Your calculation utilizes the basis: def2-mTZVP
----- AuxJ basis set information -----
Your calculation utilizes the basis: def2-mTZVP/J
================================================================================
                                        WARNINGS
                       Please study these warnings very carefully!
================================================================================


WARNING: your system is open-shell and RHF/RKS was chosen
  ===> : WILL SWITCH to UHF/UKS


WARNING: Geometry Optimization
  ===> : Switching off AutoStart
         For restart on a previous wavefunction, please use MOREAD

INFO   : the flag for use of LIBINT has been found!

================================================================================
                                       INPUT FILE
================================================================================
NAME = tetracarbonylnickel.inp
|  1> ! B97-3c Opt Freq TightOpt TightSCF
|  2> 
|  3> %pal
|  4>  nprocs 4
|  5> end
|  6> 
|  7> *xyz 0 3
|  8> Ni      -5.6394453488      1.1817557412     -0.0317938756                 
|  9> C       -3.8300768901      1.6413163793     -0.0339913855                 
| 10> C       -5.1800492612     -0.6275308760     -0.0304378607                 
| 11> C       -7.4485535499      0.7223078772     -0.0291760209                 
| 12> C       -6.0995144693      2.9908310182     -0.0335604054                 
| 13> O       -2.7365798480      1.9188319145     -0.0352121661                 
| 14> O       -8.5420656338      0.4449203452     -0.0274870360                 
| 15> O       -6.3784743615      4.0839646519     -0.0347290057                 
| 16> O       -4.9028040736     -1.7210759855     -0.0297199858                 
| 17> *
| 18> 
| 19>                          ****END OF INPUT****
================================================================================

                       *****************************
                       * Geometry Optimization Run *
                       *****************************

Geometry optimization settings:
Update method            Update   .... BFGS
Choice of coordinates    CoordSys .... Z-matrix Internals
Initial Hessian          InHess   .... Almoef's Model

Convergence Tolerances:
Energy Change            TolE     ....  1.0000e-06 Eh
Max. Gradient            TolMAXG  ....  1.0000e-04 Eh/bohr
RMS Gradient             TolRMSG  ....  3.0000e-05 Eh/bohr
Max. Displacement        TolMAXD  ....  1.0000e-03 bohr
RMS Displacement         TolRMSD  ....  6.0000e-04 bohr
Strict Convergence                ....  False
------------------------------------------------------------------------------
                        ORCA OPTIMIZATION COORDINATE SETUP
------------------------------------------------------------------------------

The optimization will be done in new redundant internal coordinates
Making redundant internal coordinates   ...  (new redundants) done
Evaluating the initial hessian          ...  (Almloef) done
Evaluating the coordinates              ...  done
Calculating the B-matrix                .... done
Calculating the G-matrix                .... done
Diagonalizing the G-matrix              .... done
Small eigenvalue found = 1.118e-09
The first mode is                       ....    1
The number of degrees of freedom        ....   19

    -----------------------------------------------------------------
                    Redundant Internal Coordinates


    -----------------------------------------------------------------
         Definition                    Initial Value    Approx d2E/dq
    -----------------------------------------------------------------
      1. B(C   1,Ni  0)                  1.8668         1.096802   
      2. B(C   2,Ni  0)                  1.8667         1.097288   
      3. B(C   3,Ni  0)                  1.8665         1.097929   
      4. B(C   4,Ni  0)                  1.8667         1.097444   
      5. B(O   5,C   1)                  1.1282         1.464264   
      6. B(O   6,C   3)                  1.1281         1.464352   
      7. B(O   7,C   4)                  1.1282         1.464243   
      8. B(O   8,C   2)                  1.1281         1.464373   
      9. A(C   1,Ni  0,C   2)           90.0043         0.684935   
     10. A(C   2,Ni  0,C   3)           89.9971         0.685073   
     11. A(C   3,Ni  0,C   4)           89.9813         0.685092   
     12. A(C   1,Ni  0,C   4)           90.0173         0.684954   
     13. L(Ni  0,C   1,O   5,C   2, 1) 179.9891         0.635280   
     14. L(Ni  0,C   1,O   5,C   2, 2) 180.0077         0.635280   
     15. L(Ni  0,C   2,O   8,C   3, 2) 179.9927         0.635344   
     16. L(Ni  0,C   2,O   8,C   3, 1) 179.9795         0.635344   
     17. L(Ni  0,C   3,O   6,C   4, 1) 179.9840         0.635415   
     18. L(Ni  0,C   3,O   6,C   4, 2) 180.0077         0.635415   
     19. L(Ni  0,C   4,O   7,C   3, 2) 180.0073         0.635351   
     20. L(Ni  0,C   4,O   7,C   3, 1) 179.9526         0.635351   
    -----------------------------------------------------------------

Number of atoms                         .... 9
Number of degrees of freedom            .... 20

         *************************************************************
         *                GEOMETRY OPTIMIZATION CYCLE   1            *
         *************************************************************
---------------------------------
CARTESIAN COORDINATES (ANGSTROEM)
---------------------------------
  Ni    -5.639445    1.181756   -0.031794
  C     -3.830077    1.641316   -0.033991
  C     -5.180049   -0.627531   -0.030438
  C     -7.448554    0.722308   -0.029176
  C     -6.099514    2.990831   -0.033560
  O     -2.736580    1.918832   -0.035212
  O     -8.542066    0.444920   -0.027487
  O     -6.378474    4.083965   -0.034729
  O     -4.902804   -1.721076   -0.029720

----------------------------
CARTESIAN COORDINATES (A.U.)
----------------------------
  NO LB      ZA    FRAG     MASS         X           Y           Z
   0 Ni   28.0000    0    58.700  -10.657007    2.233195   -0.060082
   1 C     6.0000    0    12.011   -7.237796    3.101638   -0.064234
   2 C     6.0000    0    12.011   -9.788874   -1.185861   -0.057519
   3 C     6.0000    0    12.011  -14.075726    1.364964   -0.055135
   4 C     6.0000    0    12.011  -11.526412    5.651852   -0.063420
   5 O     8.0000    0    15.999   -5.171386    3.626067   -0.066541
   6 O     8.0000    0    15.999  -16.142165    0.840778   -0.051943
   7 O     8.0000    0    15.999  -12.053570    7.717575   -0.065628
   8 O     8.0000    0    15.999   -9.264957   -3.252362   -0.056163

--------------------------------
INTERNAL COORDINATES (ANGSTROEM)
--------------------------------
 Ni     0   0   0     0.000000000000     0.00000000     0.00000000
 C      1   0   0     1.866819495420     0.00000000     0.00000000
 C      1   2   0     1.866698868928    90.00432582     0.00000000
 C      1   2   3     1.866540028016   179.98701244    96.09582127
 C      1   2   3     1.866660138889    90.01727866   180.01262677
 O      2   1   3     1.128163172446   179.98782313   333.47638828
 O      4   1   5     1.128146875728   179.98311427   341.21977105
 O      5   1   2     1.128167154374   179.95231731   173.76008085
 O      3   1   2     1.128142861478   179.97883740   194.18499717

---------------------------
INTERNAL COORDINATES (A.U.)
---------------------------
 Ni     0   0   0     0.000000000000     0.00000000     0.00000000
 C      1   0   0     3.527777587808     0.00000000     0.00000000
 C      1   2   0     3.527549636775    90.00432582     0.00000000
 C      1   2   3     3.527249470951   179.98701244    96.09582127
 C      1   2   3     3.527476447608    90.01727866   180.01262677
 O      2   1   3     2.131919430299   179.98782313   333.47638828
 O      4   1   5     2.131888633964   179.98311427   341.21977105
 O      5   1   2     2.131926955053   179.95231731   173.76008085
 O      3   1   2     2.131881048131   179.97883740   194.18499717

---------------------
BASIS SET INFORMATION
---------------------
There are 3 groups of distinct atoms

 Group   1 Type Ni  : 17s11p6d contracted to 6s4p3d pattern {842111/6311/411}
 Group   2 Type C   : 11s6p1d contracted to 5s3p1d pattern {62111/411/1}
 Group   3 Type O   : 11s6p2d contracted to 5s3p2d pattern {62111/411/11}

Atom   0Ni   basis set group =>   1
Atom   1C    basis set group =>   2
Atom   2C    basis set group =>   2
Atom   3C    basis set group =>   2
Atom   4C    basis set group =>   2
Atom   5O    basis set group =>   3
Atom   6O    basis set group =>   3
Atom   7O    basis set group =>   3
Atom   8O    basis set group =>   3
---------------------------------
AUXILIARY/J BASIS SET INFORMATION
---------------------------------
There are 3 groups of distinct atoms

 Group   1 Type Ni  : 19s5p5d3f3g contracted to 8s5p5d2f3g pattern {121111111/11111/11111/21/111}
 Group   2 Type C   : 8s3p3d contracted to 6s3p3d pattern {311111/111/111}
 Group   3 Type O   : 8s3p3d contracted to 6s3p3d pattern {311111/111/111}

Atom   0Ni   basis set group =>   1
Atom   1C    basis set group =>   2
Atom   2C    basis set group =>   2
Atom   3C    basis set group =>   2
Atom   4C    basis set group =>   2
Atom   5O    basis set group =>   3
Atom   6O    basis set group =>   3
Atom   7O    basis set group =>   3
Atom   8O    basis set group =>   3


           ************************************************************
           *        Program running with 4 parallel MPI-processes     *
           *              working on a common directory               *
           ************************************************************
------------------------------------------------------------------------------
                           ORCA GTO INTEGRAL CALCULATION
                           -- RI-GTO INTEGRALS CHOSEN --
------------------------------------------------------------------------------

                         BASIS SET STATISTICS AND STARTUP INFO

Gaussian basis set:
 # of primitive gaussian shells          ...  182
 # of primitive gaussian functions       ...  372
 # of contracted shells                  ...   89
 # of contracted basis functions         ...  205
 Highest angular momentum                ...    2
 Maximum contraction depth               ...    8
Auxiliary gaussian basis set:
 # of primitive gaussian shells          ...  147
 # of primitive gaussian functions       ...  363
 # of contracted shells                  ...  119
 # of contracted aux-basis functions     ...  329
 Highest angular momentum                ...    4
 Maximum contraction depth               ...   12
Ratio of auxiliary to basis functions    ...  1.60
Integral package used                  ... LIBINT
 One Electron integrals                  ... done
 Ordering auxiliary basis shells         ... done
 Integral threshhold             Thresh  ...  2.500e-11
 Primitive cut-off               TCut    ...  2.500e-12
 Pre-screening matrix                    ... done
 Shell pair data                         ... 
 Ordering of the shell pairs             ... done (   0.001 sec) 3419 of 4005 pairs
 Determination of significant pairs      ... done (   0.000 sec)
 Creation of shell pair data             ... done (   0.000 sec)
 Storage of shell pair data              ... done (   0.012 sec)
 Shell pair data done in (   0.013 sec)
 Computing two index integrals           ... done
 Cholesky decomposition of the V-matrix  ... done


Timings:
 Total evaluation time                   ...   0.175 sec (  0.003 min)
 One electron matrix time                ...   0.021 sec (  0.000 min) = 11.8%
 Schwartz matrix evaluation time         ...   0.113 sec (  0.002 min) = 64.4%
 Two index repulsion integral time       ...   0.003 sec (  0.000 min) =  1.4%
 Cholesky decomposition of V             ...   0.004 sec (  0.000 min) =  2.3%
 Three index repulsion integral time     ...   0.000 sec (  0.000 min) =  0.0%



           ************************************************************
           *        Program running with 4 parallel MPI-processes     *
           *              working on a common directory               *
           ************************************************************
-------------------------------------------------------------------------------
                                 ORCA SCF
-------------------------------------------------------------------------------

------------
SCF SETTINGS
------------
Hamiltonian:
 Density Functional     Method          .... DFT(GTOs)
 Exchange Functional    Exchange        .... B973C
 Correlation Functional Correlation     .... B973C
 Gradients option       PostSCFGGA      .... off
   Density functional embedding theory  .... OFF
 RI-approximation to the Coulomb term is turned on
   Number of auxiliary basis functions  .... 329


General Settings:
 Integral files         IntName         .... tetracarbonylnickel
 Hartree-Fock type      HFTyp           .... UHF
 Total Charge           Charge          ....    0
 Multiplicity           Mult            ....    3
 Number of Electrons    NEL             ....   84
 Basis Dimension        Dim             ....  205
 Nuclear Repulsion      ENuc            ....    599.7292554852 Eh

Convergence Acceleration:
 DIIS                   CNVDIIS         .... on
   Start iteration      DIISMaxIt       ....    12
   Startup error        DIISStart       ....  0.200000
   # of expansion vecs  DIISMaxEq       ....     5
   Bias factor          DIISBfac        ....   1.050
   Max. coefficient     DIISMaxC        ....  10.000
 Newton-Raphson         CNVNR           .... off
 SOSCF                  CNVSOSCF        .... off
 Level Shifting         CNVShift        .... on
   Level shift para.    LevelShift      ....    0.2500
   Turn off err/grad.   ShiftErr        ....    0.0010
 Zerner damping         CNVZerner       .... off
 Static damping         CNVDamp         .... on
   Fraction old density DampFac         ....    0.7000
   Max. Damping (<1)    DampMax         ....    0.9800
   Min. Damping (>=0)   DampMin         ....    0.0000
   Turn off err/grad.   DampErr         ....    0.1000
 Fernandez-Rico         CNVRico         .... off

SCF Procedure:
 Maximum # iterations   MaxIter         ....   125
 SCF integral mode      SCFMode         .... Direct
   Integral package                     .... LIBINT
 Reset frequency        DirectResetFreq ....    20
 Integral Threshold     Thresh          ....  2.500e-11 Eh
 Primitive CutOff       TCut            ....  2.500e-12 Eh

Convergence Tolerance:
 Convergence Check Mode ConvCheckMode   .... Total+1el-Energy
 Convergence forced     ConvForced      .... 0
 Energy Change          TolE            ....  1.000e-08 Eh
 1-El. energy change                    ....  1.000e-05 Eh
 DIIS Error             TolErr          ....  5.000e-07


Diagonalization of the overlap matrix:
Smallest eigenvalue                        ... 1.278e-03
Time for diagonalization                   ...    0.010 sec
Threshold for overlap eigenvalues          ... 1.000e-08
Number of eigenvalues below threshold      ... 0
Time for construction of square roots      ...    0.010 sec
Total time needed                          ...    0.020 sec

--------------------------------
INITIAL GUESS: MINIMAL BASIS EHT
--------------------------------
The minimal basis has 58 functions
EHT matrix was diagonalized
Basis set overlap was calculated now projecting the orbitals
Using GuessMode=FMatrix for the initial guess
C*T matrix was formed
Effective Fockian was calculated
Effective Fockian was diagonalized
Initial density was built
                      ------------------
                      INITIAL GUESS DONE
                      ------------------
-------------------
DFT GRID GENERATION
-------------------

General Integration Accuracy     IntAcc      ...  4.340
Radial Grid Type                 RadialGrid  ... Gauss-Chebyshev
Angular Grid (max. acc.)         AngularGrid ... Lebedev-194
Angular grid pruning method      GridPruning ... 3 (G Style)
Weight generation scheme         WeightScheme... Becke
Basis function cutoff            BFCut       ...    1.0000e-11
Integration weight cutoff        WCut        ...    1.0000e-14
Grids for H and He will be reduced by one unit

# of grid points (after initial pruning)     ...  31934 (   0.0 sec)
# of grid points (after weights+screening)   ...  30692 (   0.0 sec)
nearest neighbour list constructed           ...    0.0 sec
Grid point re-assignment to atoms done       ...    0.0 sec
Grid point division into batches done        ...    0.1 sec
Reduced shell lists constructed in    0.1 sec

Total number of grid points                  ...    30692
Total number of batches                      ...      485
Average number of points per batch           ...       63
Average number of grid points per atom       ...     3410
Average number of shells per batch           ...    60.96 (68.49%)
Average number of basis functions per batch  ...   154.65 (75.44%)
Average number of large shells per batch     ...    50.53 (82.89%)
Average number of large basis fcns per batch ...   129.26 (83.58%)
Maximum spatial batch extension              ...   6.90,  6.90, 17.96 au
Average spatial batch extension              ...   0.45,  0.45,  0.64 au

Time for grid setup =    0.181 sec

--------------
SCF ITERATIONS
--------------
ITER       Energy         Delta-E        Max-DP      RMS-DP      [F,P]     Damp
               ***  Starting incremental Fock matrix formation  ***
  0  -1958.1654693435   0.000000000000 4.84919301  0.02984070  0.9505443 0.7000
  1  -1958.3856899869  -0.220220643423 1.43974815  0.00919863  0.6202932 0.7000
  2  -1959.5431392267  -1.157449239759 1.00942267  0.00635012  0.4171044 0.7000
  3  -1960.2111099308  -0.667970704157 0.66148288  0.00432969  0.3604408 0.7000
                               ***Turning on DIIS***
  4  -1960.7040367201  -0.492926789257 0.49015921  0.00311890  0.1867178 0.7000
  5  -1961.0433784593  -0.339341739211 0.34607953  0.00220977  0.1272986 0.7000
  6  -1961.2795582071  -0.236179747821 0.82656926  0.00523436  0.0958402 0.0000
  7  -1961.8337284311  -0.554170223996 0.02248321  0.00030298  0.0546504 0.0000
  8  -1961.8252480289   0.008480402249 0.00272887  0.00004792  0.1140501 0.7000
  9  -1961.8289741458  -0.003726116921 0.01172070  0.00018343  0.0922005 0.0000
 10  -1961.8359376533  -0.006963507495 0.00278694  0.00004665  0.0139183 0.0000
 11  -1961.8364517630  -0.000514109749 0.00132792  0.00001983  0.0024720 0.0000
 12  -1961.8364740415  -0.000022278472 0.00156193  0.00001864  0.0004823 0.0000
 13  -1961.8364801209  -0.000006079383 0.00018630  0.00000293  0.0013782 0.0000
 14  -1961.8364823421  -0.000002221237 0.00030286  0.00000360  0.0005553 0.0000
 15  -1961.8364829516  -0.000000609426 0.00008028  0.00000142  0.0002959 0.0000
 16  -1961.8364831907  -0.000000239112 0.00004131  0.00000095  0.0000652 0.0000
 17  -1961.8364832144  -0.000000023701 0.00002687  0.00000055  0.0000286 0.0000
 18  -1961.8364832269  -0.000000012486 0.00000817  0.00000021  0.0000150 0.0000
 19  -1961.8364832599  -0.000000033033 0.00000610  0.00000014  0.0000113 0.0000
               *** Restarting incremental Fock matrix formation ***
                                   *** Resetting DIIS ***
 20  -1961.8364819238   0.000001336049 0.00016613  0.00000369  0.0000083 0.0000
 21  -1961.8364818939   0.000000029920 0.00001050  0.00000012  0.0000371 0.0000
 22  -1961.8364818935   0.000000000455 0.00000252  0.00000005  0.0000106 0.0000
 23  -1961.8364819195  -0.000000026083 0.00000140  0.00000003  0.0000052 0.0000
                            ***DIIS convergence achieved***

               *****************************************************
               *                     SUCCESS                       *
               *           SCF CONVERGED AFTER  24 CYCLES          *
               *****************************************************

Setting up the final grid:

General Integration Accuracy     IntAcc      ...  4.670
Radial Grid Type                 RadialGrid  ... Gauss-Chebyshev
Angular Grid (max. acc.)         AngularGrid ... Lebedev-302
Angular grid pruning method      GridPruning ... 3 (G Style)
Weight generation scheme         WeightScheme... Becke
Basis function cutoff            BFCut       ...    1.0000e-11
Integration weight cutoff        WCut        ...    1.0000e-14
Grids for H and He will be reduced by one unit

# of grid points (after initial pruning)     ...  59360 (   0.0 sec)
# of grid points (after weights+screening)   ...  56801 (   0.0 sec)
nearest neighbour list constructed           ...    0.0 sec
Grid point re-assignment to atoms done       ...    0.0 sec
Grid point division into batches done        ...    0.3 sec
Reduced shell lists constructed in    0.4 sec

Total number of grid points                  ...    56801
Total number of batches                      ...      890
Average number of points per batch           ...       63
Average number of grid points per atom       ...     6311
Average number of shells per batch           ...    59.60 (66.97%)
Average number of basis functions per batch  ...   151.50 (73.90%)
Average number of large shells per batch     ...    48.46 (81.30%)
Average number of large basis fcns per batch ...   123.66 (81.62%)
Maximum spatial batch extension              ...   7.16,  7.16, 16.40 au
Average spatial batch extension              ...   0.38,  0.39,  0.50 au

Final grid set up in    0.4 sec
Final integration                            ... done (   0.4 sec)
Change in XC energy                          ...    -0.000486960
Integrated number of electrons               ...    83.999982612
Previous integrated no of electrons          ...    84.000058197

----------------
TOTAL SCF ENERGY
----------------

Total Energy       :        -1961.83696888 Eh          -53384.29793 eV

Components:
Nuclear Repulsion  :          599.72925549 Eh           16319.46271 eV
Electronic Energy  :        -2561.56622437 Eh          -69703.76064 eV
One Electron Energy:        -3908.81328554 Eh         -106364.21695 eV
Two Electron Energy:         1347.24706117 Eh           36660.45632 eV

Virial components:
Potential Energy   :        -3921.01830396 Eh         -106696.33239 eV
Kinetic Energy     :         1959.18133508 Eh           53312.03446 eV
Virial Ratio       :            2.00135548


DFT components:
N(Alpha)           :       42.999991775158 electrons
N(Beta)            :       40.999990836795 electrons
N(Total)           :       83.999982611953 electrons
E(XC)              :     -119.143604700526 Eh       
DFET-embed. en.    :        0.000000000000 Eh       

---------------
SCF CONVERGENCE
---------------

  Last Energy change         ...   -2.6332e-09  Tolerance :   1.0000e-08
  Last MAX-Density change    ...    7.9685e-07  Tolerance :   1.0000e-07
  Last RMS-Density change    ...    1.3977e-08  Tolerance :   5.0000e-09
  Last DIIS Error            ...    6.2569e-07  Tolerance :   5.0000e-07

             **** THE GBW FILE WAS UPDATED (tetracarbonylnickel.gbw) ****
             **** DENSITY FILE WAS UPDATED (tetracarbonylnickel.scfp) ****
             **** ENERGY FILE WAS UPDATED (tetracarbonylnickel.en.tmp) ****
----------------------
UHF SPIN CONTAMINATION
----------------------

Warning: in a DFT calculation there is little theoretical justification to 
         calculate <S**2> as in Hartree-Fock theory. We will do it anyways
         but you should keep in mind that the values have only limited relevance

Expectation value of <S**2>     :     2.005430
Ideal value S*(S+1) for S=1.0   :     2.000000
Deviation                       :     0.005430

             **** THE GBW FILE WAS UPDATED (tetracarbonylnickel.gbw) ****
             **** DENSITY FILE WAS UPDATED (tetracarbonylnickel.scfp) ****
----------------
ORBITAL ENERGIES
----------------
                 SPIN UP ORBITALS
  NO   OCC          E(Eh)            E(eV) 
   0   1.0000    -298.281358     -8116.6484 
   1   1.0000     -35.351629      -961.9667 
   2   1.0000     -30.894502      -840.6821 
   3   1.0000     -30.894498      -840.6820 
   4   1.0000     -30.874521      -840.1384 
   5   1.0000     -18.840942      -512.6881 
   6   1.0000     -18.840936      -512.6879 
   7   1.0000     -18.840932      -512.6878 
   8   1.0000     -18.840930      -512.6878 
   9   1.0000     -10.015238      -272.5285 
  10   1.0000     -10.015228      -272.5282 
  11   1.0000     -10.015227      -272.5282 
  12   1.0000     -10.015214      -272.5278 
  13   1.0000      -3.887370      -105.7807 
  14   1.0000      -2.537726       -69.0550 
  15   1.0000      -2.537717       -69.0548 
  16   1.0000      -2.485866       -67.6438 
  17   1.0000      -1.082723       -29.4624 
  18   1.0000      -1.082117       -29.4459 
  19   1.0000      -1.082115       -29.4459 
  20   1.0000      -1.081748       -29.4359 
  21   1.0000      -0.559552       -15.2262 
  22   1.0000      -0.525244       -14.2926 
  23   1.0000      -0.525234       -14.2924 
  24   1.0000      -0.520872       -14.1736 
  25   1.0000      -0.464744       -12.6463 
  26   1.0000      -0.451612       -12.2890 
  27   1.0000      -0.442278       -12.0350 
  28   1.0000      -0.442257       -12.0344 
  29   1.0000      -0.439202       -11.9513 
  30   1.0000      -0.436968       -11.8905 
  31   1.0000      -0.436963       -11.8904 
  32   1.0000      -0.434006       -11.8099 
  33   1.0000      -0.431681       -11.7466 
  34   1.0000      -0.425293       -11.5728 
  35   1.0000      -0.392845       -10.6899 
  36   1.0000      -0.392839       -10.6897 
  37   1.0000      -0.300612        -8.1801 
  38   1.0000      -0.269728        -7.3397 
  39   1.0000      -0.269720        -7.3394 
  40   1.0000      -0.243397        -6.6232 
  41   1.0000      -0.158494        -4.3128 
  42   1.0000      -0.151096        -4.1115 
  43   0.0000      -0.101152        -2.7525 
  44   0.0000      -0.069828        -1.9001 
  45   0.0000      -0.069782        -1.8989 
  46   0.0000      -0.068964        -1.8766 
  47   0.0000      -0.068958        -1.8765 
  48   0.0000      -0.060630        -1.6498 
  49   0.0000      -0.014879        -0.4049 
  50   0.0000       0.029354         0.7988 
  51   0.0000       0.077769         2.1162 
  52   0.0000       0.093372         2.5408 
  53   0.0000       0.093388         2.5412 
  54   0.0000       0.123165         3.3515 
  55   0.0000       0.151664         4.1270 
  56   0.0000       0.178182         4.8486 
  57   0.0000       0.178183         4.8486 
  58   0.0000       0.192473         5.2375 
  59   0.0000       0.216236         5.8841 
  60   0.0000       0.216246         5.8843 
  61   0.0000       0.219181         5.9642 
  62   0.0000       0.236981         6.4486 
  63   0.0000       0.243381         6.6227 
  64   0.0000       0.243414         6.6236 
  65   0.0000       0.256043         6.9673 
  66   0.0000       0.262473         7.1423 
  67   0.0000       0.264282         7.1915 
  68   0.0000       0.279876         7.6158 
  69   0.0000       0.287648         7.8273 
  70   0.0000       0.333274         9.0689 
  71   0.0000       0.333363         9.0713 
  72   0.0000       0.337000         9.1702 
  73   0.0000       0.337096         9.1729 
  74   0.0000       0.345668         9.4061 
  75   0.0000       0.363217         9.8836 
  76   0.0000       0.379754        10.3336 
  77   0.0000       0.388260        10.5651 
  78   0.0000       0.390711        10.6318 
  79   0.0000       0.390712        10.6318 
  80   0.0000       0.404674        11.0117 
  81   0.0000       0.405959        11.0467 
  82   0.0000       0.406058        11.0494 
  83   0.0000       0.413460        11.2508 
  84   0.0000       0.426837        11.6148 
  85   0.0000       0.426846        11.6151 
  86   0.0000       0.464297        12.6342 
  87   0.0000       0.494613        13.4591 
  88   0.0000       0.500909        13.6304 
  89   0.0000       0.500978        13.6323 
  90   0.0000       0.570497        15.5240 
  91   0.0000       0.583213        15.8700 
  92   0.0000       0.583255        15.8712 
  93   0.0000       0.625513        17.0211 
  94   0.0000       0.635628        17.2963 
  95   0.0000       0.648208        17.6386 
  96   0.0000       0.676194        18.4002 
  97   0.0000       0.708271        19.2730 
  98   0.0000       0.708292        19.2736 
  99   0.0000       0.731538        19.9062 
 100   0.0000       0.740855        20.1597 
 101   0.0000       0.740990        20.1634 
 102   0.0000       0.758143        20.6301 
 103   0.0000       0.772437        21.0191 
 104   0.0000       0.784276        21.3412 
 105   0.0000       0.784290        21.3416 
 106   0.0000       0.804476        21.8909 
 107   0.0000       0.833840        22.6900 
 108   0.0000       0.848876        23.0991 
 109   0.0000       0.848883        23.0993 
 110   0.0000       0.863538        23.4981 
 111   0.0000       0.924121        25.1466 
 112   0.0000       0.924128        25.1468 
 113   0.0000       0.950249        25.8576 
 114   0.0000       1.140102        31.0238 
 115   0.0000       1.329134        36.1676 
 116   0.0000       1.342260        36.5247 
 117   0.0000       1.371890        37.3310 
 118   0.0000       1.371960        37.3329 
 119   0.0000       1.440718        39.2039 
 120   0.0000       1.447641        39.3923 
 121   0.0000       1.500977        40.8437 
 122   0.0000       1.515015        41.2257 
 123   0.0000       1.515109        41.2282 
 124   0.0000       1.518556        41.3220 
 125   0.0000       1.526434        41.5364 
 126   0.0000       1.526583        41.5404 
 127   0.0000       1.547175        42.1008 
 128   0.0000       1.547322        42.1048 
 129   0.0000       1.559927        42.4478 
 130   0.0000       1.583846        43.0986 
 131   0.0000       1.585594        43.1462 
 132   0.0000       1.592329        43.3295 
 133   0.0000       1.592372        43.3306 
 134   0.0000       1.608724        43.7756 
 135   0.0000       1.630341        44.3638 
 136   0.0000       1.630369        44.3646 
 137   0.0000       1.632423        44.4205 
 138   0.0000       1.654747        45.0280 
 139   0.0000       1.664727        45.2995 
 140   0.0000       1.685190        45.8564 
 141   0.0000       1.697855        46.2010 
 142   0.0000       1.697894        46.2020 
 143   0.0000       1.763305        47.9820 
 144   0.0000       1.763344        47.9830 
 145   0.0000       1.806211        49.1495 
 146   0.0000       1.948093        53.0103 
 147   0.0000       2.024378        55.0861 
 148   0.0000       2.034023        55.3486 
 149   0.0000       2.050651        55.8010 
 150   0.0000       2.060573        56.0710 
 151   0.0000       2.060606        56.0719 
 152   0.0000       2.064516        56.1783 
 153   0.0000       2.088714        56.8368 
 154   0.0000       2.088831        56.8400 
 155   0.0000       2.090249        56.8786 
 156   0.0000       2.160867        58.8002 
 157   0.0000       2.287105        62.2353 
 158   0.0000       2.290597        62.3303 
 159   0.0000       2.322908        63.2095 
 160   0.0000       2.322923        63.2099 
 161   0.0000       2.415532        65.7300 
 162   0.0000       2.415566        65.7309 
 163   0.0000       2.444288        66.5125 
 164   0.0000       2.472631        67.2837 
 165   0.0000       2.472821        67.2889 
 166   0.0000       2.483995        67.5929 
 167   0.0000       2.522622        68.6440 
 168   0.0000       2.563124        69.7461 
 169   0.0000       2.563141        69.7466 
 170   0.0000       2.571565        69.9758 
 171   0.0000       2.784102        75.7593 
 172   0.0000       2.797717        76.1298 
 173   0.0000       2.797754        76.1308 
 174   0.0000       2.832988        77.0895 
 175   0.0000       2.837976        77.2252 
 176   0.0000       2.870537        78.1113 
 177   0.0000       2.870562        78.1120 
 178   0.0000       2.906177        79.0811 
 179   0.0000       2.914403        79.3049 
 180   0.0000       2.914506        79.3077 
 181   0.0000       2.955564        80.4250 
 182   0.0000       2.996608        81.5418 
 183   0.0000       3.008845        81.8748 
 184   0.0000       3.008854        81.8751 
 185   0.0000       3.011578        81.9492 
 186   0.0000       3.320243        90.3484 
 187   0.0000       3.695758       100.5667 
 188   0.0000       3.860293       105.0439 
 189   0.0000       3.913554       106.4932 
 190   0.0000       4.037508       109.8662 
 191   0.0000       4.037551       109.8673 
 192   0.0000       4.042193       109.9937 
 193   0.0000       4.042225       109.9945 
 194   0.0000       4.235060       115.2418 
 195   0.0000       4.664655       126.9317 
 196   0.0000       4.858331       132.2019 
 197   0.0000      21.737681       591.5124 
 198   0.0000      22.013217       599.0101 
 199   0.0000      22.013368       599.0142 
 200   0.0000      22.040499       599.7525 
 201   0.0000      43.131543      1173.6689 
 202   0.0000      43.157890      1174.3859 
 203   0.0000      43.157924      1174.3868 
 204   0.0000      43.290227      1177.9870 

                 SPIN DOWN ORBITALS
  NO   OCC          E(Eh)            E(eV) 
   0   1.0000    -298.280694     -8116.6303 
   1   1.0000     -35.332421      -961.4440 
   2   1.0000     -30.876774      -840.1997 
   3   1.0000     -30.876770      -840.1996 
   4   1.0000     -30.867068      -839.9356 
   5   1.0000     -18.839597      -512.6515 
   6   1.0000     -18.839591      -512.6513 
   7   1.0000     -18.839587      -512.6512 
   8   1.0000     -18.839585      -512.6512 
   9   1.0000     -10.013816      -272.4898 
  10   1.0000     -10.013807      -272.4895 
  11   1.0000     -10.013806      -272.4895 
  12   1.0000     -10.013793      -272.4892 
  13   1.0000      -3.850838      -104.7866 
  14   1.0000      -2.492879       -67.8347 
  15   1.0000      -2.492870       -67.8344 
  16   1.0000      -2.468522       -67.1719 
  17   1.0000      -1.077840       -29.3295 
  18   1.0000      -1.077254       -29.3136 
  19   1.0000      -1.077252       -29.3135 
  20   1.0000      -1.076892       -29.3037 
  21   1.0000      -0.548009       -14.9121 
  22   1.0000      -0.517484       -14.0815 
  23   1.0000      -0.517474       -14.0812 
  24   1.0000      -0.511958       -13.9311 
  25   1.0000      -0.457844       -12.4586 
  26   1.0000      -0.446862       -12.1597 
  27   1.0000      -0.437432       -11.9031 
  28   1.0000      -0.437410       -11.9025 
  29   1.0000      -0.428580       -11.6623 
  30   1.0000      -0.426227       -11.5982 
  31   1.0000      -0.426222       -11.5981 
  32   1.0000      -0.421883       -11.4800 
  33   1.0000      -0.421345       -11.4654 
  34   1.0000      -0.404839       -11.0162 
  35   1.0000      -0.381122       -10.3709 
  36   1.0000      -0.381116       -10.3707 
  37   1.0000      -0.282245        -7.6803 
  38   1.0000      -0.247275        -6.7287 
  39   1.0000      -0.247267        -6.7285 
  40   1.0000      -0.219423        -5.9708 
  41   0.0000      -0.138020        -3.7557 
  42   0.0000      -0.107809        -2.9336 
  43   0.0000      -0.090175        -2.4538 
  44   0.0000      -0.060278        -1.6403 
  45   0.0000      -0.060240        -1.6392 
  46   0.0000      -0.051206        -1.3934 
  47   0.0000      -0.051201        -1.3932 
  48   0.0000      -0.040800        -1.1102 
  49   0.0000      -0.004093        -0.1114 
  50   0.0000       0.016680         0.4539 
  51   0.0000       0.073769         2.0073 
  52   0.0000       0.090608         2.4656 
  53   0.0000       0.090627         2.4661 
  54   0.0000       0.120450         3.2776 
  55   0.0000       0.151110         4.1119 
  56   0.0000       0.166169         4.5217 
  57   0.0000       0.166171         4.5217 
  58   0.0000       0.188633         5.1330 
  59   0.0000       0.211999         5.7688 
  60   0.0000       0.212003         5.7689 
  61   0.0000       0.223927         6.0934 
  62   0.0000       0.229756         6.2520 
  63   0.0000       0.232074         6.3150 
  64   0.0000       0.232111         6.3161 
  65   0.0000       0.258732         7.0405 
  66   0.0000       0.261396         7.1130 
  67   0.0000       0.268087         7.2950 
  68   0.0000       0.277036         7.5385 
  69   0.0000       0.283005         7.7010 
  70   0.0000       0.331848         9.0300 
  71   0.0000       0.331938         9.0325 
  72   0.0000       0.337526         9.1846 
  73   0.0000       0.337629         9.1874 
  74   0.0000       0.343718         9.3530 
  75   0.0000       0.361747         9.8436 
  76   0.0000       0.378832        10.3085 
  77   0.0000       0.388818        10.5803 
  78   0.0000       0.388834        10.5807 
  79   0.0000       0.393050        10.6954 
  80   0.0000       0.400727        10.9043 
  81   0.0000       0.412887        11.2352 
  82   0.0000       0.416150        11.3240 
  83   0.0000       0.416238        11.3264 
  84   0.0000       0.422350        11.4927 
  85   0.0000       0.422359        11.4930 
  86   0.0000       0.457715        12.4551 
  87   0.0000       0.497793        13.5456 
  88   0.0000       0.499949        13.6043 
  89   0.0000       0.500015        13.6061 
  90   0.0000       0.568593        15.4722 
  91   0.0000       0.587375        15.9833 
  92   0.0000       0.587419        15.9845 
  93   0.0000       0.626957        17.0604 
  94   0.0000       0.638933        17.3863 
  95   0.0000       0.647249        17.6125 
  96   0.0000       0.673980        18.3399 
  97   0.0000       0.706904        19.2358 
  98   0.0000       0.706924        19.2364 
  99   0.0000       0.729655        19.8549 
 100   0.0000       0.740731        20.1563 
 101   0.0000       0.740865        20.1600 
 102   0.0000       0.757318        20.6077 
 103   0.0000       0.774481        21.0747 
 104   0.0000       0.783113        21.3096 
 105   0.0000       0.783128        21.3100 
 106   0.0000       0.804350        21.8875 
 107   0.0000       0.834792        22.7159 
 108   0.0000       0.848483        23.0884 
 109   0.0000       0.848484        23.0884 
 110   0.0000       0.860596        23.4180 
 111   0.0000       0.931461        25.3463 
 112   0.0000       0.931465        25.3464 
 113   0.0000       0.949680        25.8421 
 114   0.0000       1.157368        31.4936 
 115   0.0000       1.344057        36.5736 
 116   0.0000       1.357270        36.9332 
 117   0.0000       1.378160        37.5016 
 118   0.0000       1.378231        37.5036 
 119   0.0000       1.448132        39.4057 
 120   0.0000       1.452588        39.5269 
 121   0.0000       1.513540        41.1855 
 122   0.0000       1.524695        41.4891 
 123   0.0000       1.533966        41.7413 
 124   0.0000       1.534038        41.7433 
 125   0.0000       1.534060        41.7439 
 126   0.0000       1.534186        41.7473 
 127   0.0000       1.558973        42.4218 
 128   0.0000       1.559114        42.4256 
 129   0.0000       1.572103        42.7791 
 130   0.0000       1.601049        43.5668 
 131   0.0000       1.603267        43.6271 
 132   0.0000       1.608736        43.7759 
 133   0.0000       1.608779        43.7771 
 134   0.0000       1.625165        44.2230 
 135   0.0000       1.644584        44.7514 
 136   0.0000       1.644611        44.7521 
 137   0.0000       1.650507        44.9126 
 138   0.0000       1.666559        45.3494 
 139   0.0000       1.677305        45.6418 
 140   0.0000       1.693727        46.0887 
 141   0.0000       1.709955        46.5302 
 142   0.0000       1.709993        46.5313 
 143   0.0000       1.774565        48.2884 
 144   0.0000       1.774607        48.2895 
 145   0.0000       1.811707        49.2991 
 146   0.0000       1.953156        53.1481 
 147   0.0000       2.035509        55.3890 
 148   0.0000       2.039985        55.5108 
 149   0.0000       2.056794        55.9682 
 150   0.0000       2.066638        56.2361 
 151   0.0000       2.066670        56.2369 
 152   0.0000       2.070280        56.3352 
 153   0.0000       2.094752        57.0011 
 154   0.0000       2.094866        57.0042 
 155   0.0000       2.095542        57.0226 
 156   0.0000       2.171475        59.0888 
 157   0.0000       2.292293        62.3765 
 158   0.0000       2.295583        62.4660 
 159   0.0000       2.331619        63.4466 
 160   0.0000       2.331633        63.4470 
 161   0.0000       2.424181        65.9653 
 162   0.0000       2.424215        65.9663 
 163   0.0000       2.453189        66.7547 
 164   0.0000       2.485636        67.6376 
 165   0.0000       2.485835        67.6430 
 166   0.0000       2.492783        67.8321 
 167   0.0000       2.525162        68.7132 
 168   0.0000       2.569731        69.9259 
 169   0.0000       2.569742        69.9262 
 170   0.0000       2.574909        70.0668 
 171   0.0000       2.791510        75.9609 
 172   0.0000       2.806970        76.3815 
 173   0.0000       2.807008        76.3826 
 174   0.0000       2.842450        77.3470 
 175   0.0000       2.846937        77.4691 
 176   0.0000       2.880323        78.3776 
 177   0.0000       2.880348        78.3782 
 178   0.0000       2.908258        79.1377 
 179   0.0000       2.917853        79.3988 
 180   0.0000       2.917951        79.4015 
 181   0.0000       2.959615        80.5352 
 182   0.0000       3.001408        81.6725 
 183   0.0000       3.015993        82.0693 
 184   0.0000       3.015999        82.0695 
 185   0.0000       3.020502        82.1920 
 186   0.0000       3.335792        90.7715 
 187   0.0000       3.705946       100.8439 
 188   0.0000       3.866723       105.2189 
 189   0.0000       3.921472       106.7087 
 190   0.0000       4.041797       109.9829 
 191   0.0000       4.041840       109.9841 
 192   0.0000       4.064684       110.6057 
 193   0.0000       4.064716       110.6065 
 194   0.0000       4.254341       115.7665 
 195   0.0000       4.694021       127.7308 
 196   0.0000       4.906802       133.5209 
 197   0.0000      21.739698       591.5673 
 198   0.0000      22.015420       599.0700 
 199   0.0000      22.015570       599.0741 
 200   0.0000      22.042687       599.8120 
 201   0.0000      43.134744      1173.7561 
 202   0.0000      43.161116      1174.4737 
 203   0.0000      43.161149      1174.4746 
 204   0.0000      43.293487      1178.0757 

                    ********************************
                    * MULLIKEN POPULATION ANALYSIS *
                    ********************************

--------------------------------------------
MULLIKEN ATOMIC CHARGES AND SPIN POPULATIONS
--------------------------------------------
   0 Ni:   -0.315936    0.770652
   1 C :    0.288766    0.279713
   2 C :    0.288814    0.279688
   3 C :    0.288872    0.279676
   4 C :    0.288824    0.279702
   5 O :   -0.209825    0.027633
   6 O :   -0.209845    0.027652
   7 O :   -0.209844    0.027646
   8 O :   -0.209825    0.027638
Sum of atomic charges         :   -0.0000000
Sum of atomic spin populations:    2.0000000

-----------------------------------------------------
MULLIKEN REDUCED ORBITAL CHARGES AND SPIN POPULATIONS
-----------------------------------------------------
CHARGE
  0 Nis       :     6.767921  s :     6.767921
      pz      :     4.198356  p :    12.873891
      px      :     4.337783
      py      :     4.337752
      dz2     :     1.903080  d :     8.674124
      dxz     :     1.803916
      dyz     :     1.803926
      dx2y2   :     1.517433
      dxy     :     1.645769
  1 C s       :     3.430519  s :     3.430519
      pz      :     0.776527  p :     2.211512
      px      :     0.792203
      py      :     0.642782
      dz2     :     0.006358  d :     0.069202
      dxz     :     0.022056
      dyz     :     0.001589
      dx2y2   :     0.017944
      dxy     :     0.021256
  2 C s       :     3.430388  s :     3.430388
      pz      :     0.776588  p :     2.211588
      px      :     0.642787
      py      :     0.792212
      dz2     :     0.006358  d :     0.069211
      dxz     :     0.001587
      dyz     :     0.022061
      dx2y2   :     0.017943
      dxy     :     0.021262
  3 C s       :     3.430237  s :     3.430237
      pz      :     0.776673  p :     2.211674
      px      :     0.792149
      py      :     0.642852
      dz2     :     0.006358  d :     0.069217
      dxz     :     0.022062
      dyz     :     0.001589
      dx2y2   :     0.017946
      dxy     :     0.021261
  4 C s       :     3.430369  s :     3.430369
      pz      :     0.776612  p :     2.211599
      px      :     0.642990
      py      :     0.791997
      dz2     :     0.006358  d :     0.069209
      dxz     :     0.001603
      dyz     :     0.022044
      dx2y2   :     0.017959
      dxy     :     0.021245
  5 O s       :     3.825215  s :     3.825215
      pz      :     1.489334  p :     4.342810
      px      :     1.410364
      py      :     1.443111
      dz2     :     0.005440  d :     0.041800
      dxz     :     0.008149
      dyz     :     0.000712
      dx2y2   :     0.014661
      dxy     :     0.012838
  6 O s       :     3.825233  s :     3.825233
      pz      :     1.489350  p :     4.342814
      px      :     1.410369
      py      :     1.443095
      dz2     :     0.005441  d :     0.041798
      dxz     :     0.008147
      dyz     :     0.000712
      dx2y2   :     0.014662
      dxy     :     0.012836
  7 O s       :     3.825228  s :     3.825228
      pz      :     1.489350  p :     4.342818
      px      :     1.443085
      py      :     1.410383
      dz2     :     0.005441  d :     0.041798
      dxz     :     0.000716
      dyz     :     0.008144
      dx2y2   :     0.014659
      dxy     :     0.012839
  8 O s       :     3.825219  s :     3.825219
      pz      :     1.489335  p :     4.342806
      px      :     1.443100
      py      :     1.410370
      dz2     :     0.005441  d :     0.041800
      dxz     :     0.000712
      dyz     :     0.008149
      dx2y2   :     0.014661
      dxy     :     0.012838

SPIN
  0 Nis       :    -0.042183  s :    -0.042183
      pz      :     0.188635  p :     0.194763
      px      :     0.003065
      py      :     0.003062
      dz2     :     0.008783  d :     0.618071
      dxz     :     0.008621
      dyz     :     0.008620
      dx2y2   :     0.443948
      dxy     :     0.148098
  1 C s       :     0.097556  s :     0.097556
      pz      :     0.150738  p :     0.177362
      px      :     0.021709
      py      :     0.004915
      dz2     :     0.000962  d :     0.004795
      dxz     :     0.002016
      dyz     :     0.000125
      dx2y2   :     0.001573
      dxy     :     0.000120
  2 C s       :     0.097550  s :     0.097550
      pz      :     0.150731  p :     0.177342
      px      :     0.004892
      py      :     0.021720
      dz2     :     0.000962  d :     0.004796
      dxz     :     0.000125
      dyz     :     0.002017
      dx2y2   :     0.001573
      dxy     :     0.000120
  3 C s       :     0.097545  s :     0.097545
      pz      :     0.150734  p :     0.177332
      px      :     0.021696
      py      :     0.004902
      dz2     :     0.000962  d :     0.004798
      dxz     :     0.002017
      dyz     :     0.000125
      dx2y2   :     0.001574
      dxy     :     0.000120
  4 C s       :     0.097553  s :     0.097553
      pz      :     0.150741  p :     0.177352
      px      :     0.004971
      py      :     0.021640
      dz2     :     0.000962  d :     0.004797
      dxz     :     0.000125
      dyz     :     0.002016
      dx2y2   :     0.001571
      dxy     :     0.000123
  5 O s       :    -0.006815  s :    -0.006815
      pz      :     0.048132  p :     0.037218
      px      :     0.000793
      py      :    -0.011707
      dz2     :    -0.000252  d :    -0.002770
      dxz     :    -0.002326
      dyz     :    -0.000167
      dx2y2   :    -0.000186
      dxy     :     0.000160
  6 O s       :    -0.006818  s :    -0.006818
      pz      :     0.048159  p :     0.037241
      px      :     0.000788
      py      :    -0.011706
      dz2     :    -0.000252  d :    -0.002771
      dxz     :    -0.002325
      dyz     :    -0.000167
      dx2y2   :    -0.000187
      dxy     :     0.000160
  7 O s       :    -0.006817  s :    -0.006817
      pz      :     0.048150  p :     0.037234
      px      :    -0.011682
      py      :     0.000766
      dz2     :    -0.000252  d :    -0.002771
      dxz     :    -0.000169
      dyz     :    -0.002324
      dx2y2   :    -0.000187
      dxy     :     0.000160
  8 O s       :    -0.006817  s :    -0.006817
      pz      :     0.048142  p :     0.037226
      px      :    -0.011712
      py      :     0.000796
      dz2     :    -0.000252  d :    -0.002771
      dxz     :    -0.000167
      dyz     :    -0.002326
      dx2y2   :    -0.000187
      dxy     :     0.000161


                     *******************************
                     * LOEWDIN POPULATION ANALYSIS *
                     *******************************

-------------------------------------------
LOEWDIN ATOMIC CHARGES AND SPIN POPULATIONS
-------------------------------------------
   0 Ni:   -0.120845    0.839642
   1 C :    0.253264    0.206546
   2 C :    0.253268    0.206498
   3 C :    0.253281    0.206455
   4 C :    0.253277    0.206503
   5 O :   -0.223068    0.083578
   6 O :   -0.223055    0.083600
   7 O :   -0.223075    0.083594
   8 O :   -0.223047    0.083585

----------------------------------------------------
LOEWDIN REDUCED ORBITAL CHARGES AND SPIN POPULATIONS
----------------------------------------------------
CHARGE
  0 Nis       :     6.394525  s :     6.394525
      pz      :     4.205142  p :    12.912272
      px      :     4.353567
      py      :     4.353563
      dz2     :     1.922422  d :     8.814048
      dxz     :     1.807501
      dyz     :     1.807513
      dx2y2   :     1.607848
      dxy     :     1.668763
  1 C s       :     3.106047  s :     3.106047
      pz      :     0.731366  p :     2.491430
      px      :     1.093654
      py      :     0.666410
      dz2     :     0.016420  d :     0.149258
      dxz     :     0.043179
      dyz     :     0.003012
      dx2y2   :     0.044164
      dxy     :     0.042483
  2 C s       :     3.105954  s :     3.105954
      pz      :     0.731406  p :     2.491501
      px      :     0.666382
      py      :     1.093713
      dz2     :     0.016421  d :     0.149277
      dxz     :     0.003008
      dyz     :     0.043191
      dx2y2   :     0.044166
      dxy     :     0.042491
  3 C s       :     3.105850  s :     3.105850
      pz      :     0.731465  p :     2.491578
      px      :     1.093656
      py      :     0.666457
      dz2     :     0.016421  d :     0.149291
      dxz     :     0.043194
      dyz     :     0.003011
      dx2y2   :     0.044170
      dxy     :     0.042494
  4 C s       :     3.105943  s :     3.105943
      pz      :     0.731424  p :     2.491507
      px      :     0.666755
      py      :     1.093328
      dz2     :     0.016420  d :     0.149272
      dxz     :     0.003039
      dyz     :     0.043159
      dx2y2   :     0.044162
      dxy     :     0.042493
  5 O s       :     3.542614  s :     3.542614
      pz      :     1.464376  p :     4.487802
      px      :     1.596234
      py      :     1.427193
      dz2     :     0.025505  d :     0.192651
      dxz     :     0.049417
      dyz     :     0.003533
      dx2y2   :     0.069433
      dxy     :     0.044763
  6 O s       :     3.542585  s :     3.542585
      pz      :     1.464401  p :     4.487796
      px      :     1.596222
      py      :     1.427173
      dz2     :     0.025504  d :     0.192674
      dxz     :     0.049437
      dyz     :     0.003532
      dx2y2   :     0.069441
      dxy     :     0.044760
  7 O s       :     3.542607  s :     3.542607
      pz      :     1.464397  p :     4.487805
      px      :     1.427322
      py      :     1.596085
      dz2     :     0.025505  d :     0.192663
      dxz     :     0.003562
      dyz     :     0.049399
      dx2y2   :     0.069316
      dxy     :     0.044882
  8 O s       :     3.542592  s :     3.542592
      pz      :     1.464380  p :     4.487794
      px      :     1.427156
      py      :     1.596258
      dz2     :     0.025505  d :     0.192662
      dxz     :     0.003529
      dyz     :     0.049430
      dx2y2   :     0.069455
      dxy     :     0.044744

SPIN
  0 Nis       :    -0.012839  s :    -0.012839
      pz      :     0.194285  p :     0.191626
      px      :    -0.001329
      py      :    -0.001330
      dz2     :     0.009834  d :     0.660855
      dxz     :     0.008263
      dyz     :     0.008262
      dx2y2   :     0.476587
      dxy     :     0.157910
  1 C s       :     0.046898  s :     0.046898
      pz      :     0.115219  p :     0.145454
      px      :     0.024496
      py      :     0.005740
      dz2     :     0.002706  d :     0.014194
      dxz     :     0.005660
      dyz     :     0.000355
      dx2y2   :     0.004759
      dxy     :     0.000714
  2 C s       :     0.046878  s :     0.046878
      pz      :     0.115210  p :     0.145425
      px      :     0.005718
      py      :     0.024496
      dz2     :     0.002705  d :     0.014196
      dxz     :     0.000354
      dyz     :     0.005661
      dx2y2   :     0.004759
      dxy     :     0.000716
  3 C s       :     0.046857  s :     0.046857
      pz      :     0.115211  p :     0.145401
      px      :     0.024462
      py      :     0.005727
      dz2     :     0.002705  d :     0.014198
      dxz     :     0.005661
      dyz     :     0.000355
      dx2y2   :     0.004762
      dxy     :     0.000715
  4 C s       :     0.046876  s :     0.046876
      pz      :     0.115220  p :     0.145430
      px      :     0.005792
      py      :     0.024419
      dz2     :     0.002705  d :     0.014196
      dxz     :     0.000357
      dyz     :     0.005658
      dx2y2   :     0.004757
      dxy     :     0.000719
  5 O s       :     0.005401  s :     0.005401
      pz      :     0.056199  p :     0.055032
      px      :     0.009011
      py      :    -0.010177
      dz2     :     0.000235  d :     0.023145
      dxz     :     0.018686
      dyz     :     0.001166
      dx2y2   :     0.002514
      dxy     :     0.000543
  6 O s       :     0.005400  s :     0.005400
      pz      :     0.056226  p :     0.055056
      px      :     0.009008
      py      :    -0.010177
      dz2     :     0.000235  d :     0.023144
      dxz     :     0.018690
      dyz     :     0.001166
      dx2y2   :     0.002513
      dxy     :     0.000540
  7 O s       :     0.005400  s :     0.005400
      pz      :     0.056217  p :     0.055048
      px      :    -0.010146
      py      :     0.008978
      dz2     :     0.000235  d :     0.023145
      dxz     :     0.001177
      dyz     :     0.018678
      dx2y2   :     0.002491
      dxy     :     0.000564
  8 O s       :     0.005400  s :     0.005400
      pz      :     0.056208  p :     0.055040
      px      :    -0.010185
      py      :     0.009017
      dz2     :     0.000235  d :     0.023144
      dxz     :     0.001165
      dyz     :     0.018689
      dx2y2   :     0.002519
      dxy     :     0.000535


                      *****************************
                      * MAYER POPULATION ANALYSIS *
                      *****************************

  NA   - Mulliken gross atomic population
  ZA   - Total nuclear charge
  QA   - Mulliken gross atomic charge
  VA   - Mayer's total valence
  BVA  - Mayer's bonded valence
  FA   - Mayer's free valence

  ATOM       NA         ZA         QA         VA         BVA        FA
  0 Ni    28.3159    28.0000    -0.3159     4.4716     4.0872     0.3844
  1 C      5.7112     6.0000     0.2888     3.3784     3.3409     0.0375
  2 C      5.7112     6.0000     0.2888     3.3786     3.3411     0.0375
  3 C      5.7111     6.0000     0.2889     3.3789     3.3414     0.0375
  4 C      5.7112     6.0000     0.2888     3.3786     3.3412     0.0375
  5 O      8.2098     8.0000    -0.2098     2.3375     2.3345     0.0030
  6 O      8.2098     8.0000    -0.2098     2.3375     2.3345     0.0030
  7 O      8.2098     8.0000    -0.2098     2.3375     2.3345     0.0030
  8 O      8.2098     8.0000    -0.2098     2.3375     2.3345     0.0030

  Mayer bond orders larger than 0.100000
B(  0-Ni,  1-C ) :   0.9444 B(  0-Ni,  2-C ) :   0.9446 B(  0-Ni,  3-C ) :   0.9448 
B(  0-Ni,  4-C ) :   0.9447 B(  1-C ,  5-O ) :   2.1971 B(  2-C ,  8-O ) :   2.1971 
B(  3-C ,  6-O ) :   2.1971 B(  4-C ,  7-O ) :   2.1971 

-------
TIMINGS
-------

Total SCF time: 0 days 0 hours 0 min 9 sec 

Total time                  ....       9.815 sec
Sum of individual times     ....       9.605 sec  ( 97.9%)

Fock matrix formation       ....       7.893 sec  ( 80.4%)
  Split-RI-J                ....       2.906 sec  ( 36.8% of F)
  XC integration            ....       4.902 sec  ( 62.1% of F)
    Basis function eval.    ....       0.634 sec  ( 12.9% of XC)
    Density eval.           ....       1.728 sec  ( 35.2% of XC)
    XC-Functional eval.     ....       0.543 sec  ( 11.1% of XC)
    XC-Potential eval.      ....       1.545 sec  ( 31.5% of XC)
Diagonalization             ....       0.750 sec  (  7.6%)
Density matrix formation    ....       0.023 sec  (  0.2%)
Population analysis         ....       0.033 sec  (  0.3%)
Initial guess               ....       0.027 sec  (  0.3%)
Orbital Transformation      ....       0.000 sec  (  0.0%)
Orbital Orthonormalization  ....       0.000 sec  (  0.0%)
DIIS solution               ....       0.271 sec  (  2.8%)
Grid generation             ....       0.608 sec  (  6.2%)


-------------------------------------------------------------------------------
                          DFT DISPERSION CORRECTION                            
                                                                               
                              DFTD3 V3.1  Rev 1                                
                          USING Becke-Johnson damping                          
-------------------------------------------------------------------------------
The B97-3c composite method is recognized
Using three-body term ABC
Active option DFTDOPT                   ...         4   

molecular C6(AA) [au] = 2371.924298 


            DFT-D V3
 parameters
 s6 scaling factor         :     1.0000 
 a1 scaling factor         :     0.3700 
 s8 scaling factor         :     1.5000 
 a2 scaling factor         :     4.1000 
 Damping factor alpha9(ATM):    16.0000 
 ad hoc parameters k1-k3   :    16.0000     1.3333    -4.0000 

 Edisp/kcal,au: -14.625640984917  -0.023307440014 
 E6   /kcal   :  -6.297068959 
 E8   /kcal   :  -8.331856756 
 E6(ABC)      :   0.003284730 
 % E8         :  56.967463956 
 % E6(ABC)    :  -0.022458709 

-------------------------   ----------------
Dispersion correction           -0.023307440
-------------------------   ----------------

------------------   -----------------
SRB correction            -0.038544150
------------------   -----------------

-------------------------   --------------------
FINAL SINGLE POINT ENERGY     -1961.898820471658
-------------------------   --------------------



           ************************************************************
           *        Program running with 4 parallel MPI-processes     *
           *              working on a common directory               *
           ************************************************************
------------------------------------------------------------------------------
                         ORCA SCF GRADIENT CALCULATION
------------------------------------------------------------------------------

Gradient of the Kohn-Sham DFT energy:
Kohn-Sham wavefunction type      ... UKS
Hartree-Fock exchange scaling    ...    0.000
Number of operators              ...    2
Number of atoms                  ...    9
Basis set dimensions             ...  205
Integral neglect threshold       ... 2.5e-11
Integral primitive cutoff        ... 2.5e-12

Nuclear repulsion gradient       ... done
One Electron Gradient            ... done
Pre-screening matrix             ... done
RI-J gradient                    ... done
Exchange-correlation gradient    ... done
Dispersion correction            ... done
SRB correction                   ... done

------------------
CARTESIAN GRADIENT
------------------

   1   Ni  :    0.000003997    0.000001623   -0.000000140
   2   C   :    0.032307059    0.008170952   -0.000036351
   3   C   :    0.008147867   -0.032363371    0.000021841
   4   C   :   -0.032351189   -0.008172689    0.000049786
   5   C   :   -0.008245506    0.032281915   -0.000034167
   6   O   :   -0.043578561   -0.011062450    0.000048261
   7   O   :    0.043641482    0.011071075   -0.000067254
   8   O   :    0.011129188   -0.043567100    0.000046485
   9   O   :   -0.011054336    0.043640045   -0.000028460

Difference to translation invariance:
           :   -0.0000000000    0.0000000002   -0.0000000000

Norm of the cartesian gradient     ...    0.1120045681
RMS gradient                       ...    0.0215552892
MAX gradient                       ...    0.0436414823

-------
TIMINGS
-------

Total SCF gradient time            ...        2.607 sec

One electron gradient       ....       0.040 sec  (  1.5%)
Prescreening matrices       ....       0.166 sec  (  6.4%)
RI-J Coulomb gradient       ....       0.324 sec  ( 12.4%)
XC gradient                 ....       1.880 sec  ( 72.1%)
------------------------------------------------------------------------------
                         ORCA GEOMETRY RELAXATION STEP
------------------------------------------------------------------------------

Reading the OPT-File                    .... done
Getting information on internals        .... done
Copying old internal coords+grads       .... done
Making the new internal coordinates     .... (new redundants).... done
Validating the new internal coordinates .... (new redundants).... done
Calculating the B-matrix                .... done
Calculating the G,G- and P matrices     .... done
Transforming gradient to internals      .... done
Projecting the internal gradient        .... done
Number of atoms                         ....   9
Number of internal coordinates          ....  20
Current Energy                          .... -1961.898820472 Eh
Current gradient norm                   ....     0.112004568 Eh/bohr
Maximum allowed component of the step   ....  0.300
Current trust radius                    ....  0.300
Evaluating the initial hessian          ....  (Almloef) done
Projecting the Hessian                  .... done
Forming the augmented Hessian           .... done
Diagonalizing the augmented Hessian     .... done
Last element of RFO vector              ....  0.997910932
Lowest eigenvalues of augmented Hessian:
 -0.005998906  0.635280460  0.635280461  0.635344481  0.635344484
Length of the computed step             ....  0.064739985
The final length of the internal step   ....  0.064739985
Converting the step to cartesian space:
 Initial RMS(Int)=    0.0144763008
Transforming coordinates:
 Iter   0:  RMS(Cart)=    0.0163536646 RMS(Int)=    0.0144763009
 Iter   1:  RMS(Cart)=    0.0000002149 RMS(Int)=    0.0000002252
 Iter   2:  RMS(Cart)=    0.0000000285 RMS(Int)=    0.0000000410
done
Storing new coordinates                 .... done

                                .--------------------.
          ----------------------|Geometry convergence|-------------------------
          Item                value                   Tolerance       Converged
          ---------------------------------------------------------------------
          RMS gradient        0.0207843585            0.0000300000      NO
          MAX gradient        0.0450239093            0.0001000000      NO
          RMS step            0.0144763008            0.0006000000      NO
          MAX step            0.0306212048            0.0010000000      NO
          ........................................................
          Max(Bonds)      0.0162      Max(Angles)    0.00
          Max(Dihed)        0.00      Max(Improp)    0.00
          ---------------------------------------------------------------------

The optimization has not yet converged - more geometry cycles are needed


    ---------------------------------------------------------------------------
                         Redundant Internal Coordinates
                            (Angstroem and degrees)

        Definition                    Value    dE/dq     Step     New-Value
    ----------------------------------------------------------------------------
     1. B(C   1,Ni  0)                1.8668 -0.011636  0.0056    1.8724   
     2. B(C   2,Ni  0)                1.8667 -0.011645  0.0056    1.8723   
     3. B(C   3,Ni  0)                1.8665 -0.011656  0.0056    1.8721   
     4. B(C   4,Ni  0)                1.8667 -0.011648  0.0056    1.8722   
     5. B(O   5,C   1)                1.1282 -0.044961  0.0162    1.1443   
     6. B(O   6,C   3)                1.1281 -0.045024  0.0162    1.1444   
     7. B(O   7,C   4)                1.1282 -0.044966  0.0162    1.1444   
     8. B(O   8,C   2)                1.1281 -0.045018  0.0162    1.1443   
     9. A(C   1,Ni  0,C   2)           90.00  0.000014   -0.00     90.00   
    10. A(C   2,Ni  0,C   3)           90.00 -0.000012    0.00     90.00   
    11. A(C   3,Ni  0,C   4)           89.98 -0.000017    0.00     89.98   
    12. A(C   1,Ni  0,C   4)           90.02  0.000015   -0.00     90.02   
    13. L(Ni  0,C   1,O   5,C   2, 1) 179.99  0.000022   -0.00    179.99   
    14. L(Ni  0,C   1,O   5,C   2, 2) 180.01  0.000000   -0.00    180.01   
    15. L(Ni  0,C   2,O   8,C   3, 2) 179.99 -0.000001    0.00    179.99   
    16. L(Ni  0,C   2,O   8,C   3, 1) 179.98  0.000048   -0.00    179.98   
    17. L(Ni  0,C   3,O   6,C   4, 1) 179.98  0.000026   -0.00    179.98   
    18. L(Ni  0,C   3,O   6,C   4, 2) 180.01  0.000000   -0.00    180.01   
    19. L(Ni  0,C   4,O   7,C   3, 2) 180.01  0.000000   -0.00    180.01   
    20. L(Ni  0,C   4,O   7,C   3, 1) 179.95 -0.000005    0.00    179.95   
    ----------------------------------------------------------------------------

         *************************************************************
         *                GEOMETRY OPTIMIZATION CYCLE   2            *
         *************************************************************
---------------------------------
CARTESIAN COORDINATES (ANGSTROEM)
---------------------------------
  Ni    -5.639453    1.181756   -0.031794
  C     -3.824678    1.642710   -0.033998
  C     -5.178627   -0.632930   -0.030434
  C     -7.453971    0.720909   -0.029168
  C     -6.100879    2.996250   -0.033566
  O     -2.715489    1.924180   -0.035237
  O     -8.563197    0.439567   -0.027456
  O     -6.383820    4.105071   -0.034750
  O     -4.897449   -1.742193   -0.029705

----------------------------
CARTESIAN COORDINATES (A.U.)
----------------------------
  NO LB      ZA    FRAG     MASS         X           Y           Z
   0 Ni   28.0000    0    58.700  -10.657022    2.233195   -0.060082
   1 C     6.0000    0    12.011   -7.227594    3.104273   -0.064247
   2 C     6.0000    0    12.011   -9.786188   -1.196065   -0.057512
   3 C     6.0000    0    12.011  -14.085964    1.362320   -0.055120
   4 C     6.0000    0    12.011  -11.528990    5.662092   -0.063430
   5 O     8.0000    0    15.999   -5.131531    3.636174   -0.066588
   6 O     8.0000    0    15.999  -16.182098    0.830662   -0.051884
   7 O     8.0000    0    15.999  -12.063671    7.757460   -0.065669
   8 O     8.0000    0    15.999   -9.254838   -3.292267   -0.056134

--------------------------------
INTERNAL COORDINATES (ANGSTROEM)
--------------------------------
 Ni     0   0   0     0.000000000000     0.00000000     0.00000000
 C      1   0   0     1.872403224447     0.00000000     0.00000000
 C      1   2   0     1.872284306603    90.00318707     0.00000000
 C      1   2   3     1.872127604855   179.98703174    95.37511920
 C      1   2   3     1.872246058408    90.01602344   180.01261704
 O      2   1   3     1.144345458891   179.98604288   337.16423386
 O      4   1   5     1.144350919407   179.98088024   343.55794257
 O      5   1   2     1.144351601935   179.95273408   173.73808014
 O      3   1   2     1.144344670807   179.97468742   191.75694685

---------------------------
INTERNAL COORDINATES (A.U.)
---------------------------
 Ni     0   0   0     0.000000000000     0.00000000     0.00000000
 C      1   0   0     3.538329306476     0.00000000     0.00000000
 C      1   2   0     3.538104584319    90.00318707     0.00000000
 C      1   2   3     3.537808460929   179.98703174    95.37511920
 C      1   2   3     3.538032305704    90.01602344   180.01261704
 O      2   1   3     2.162499519901   179.98604288   337.16423386
 O      4   1   5     2.162509838781   179.98088024   343.55794257
 O      5   1   2     2.162511128570   179.95273408   173.73808014
 O      3   1   2     2.162498030637   179.97468742   191.75694685



           ************************************************************
           *        Program running with 4 parallel MPI-processes     *
           *              working on a common directory               *
           ************************************************************
 One Electron integrals                  ... done
 Pre-screening matrix                    ... done


           ************************************************************
           *        Program running with 4 parallel MPI-processes     *
           *              working on a common directory               *
           ************************************************************

Diagonalization of the overlap matrix:
Smallest eigenvalue                        ... 1.391e-03
Time for diagonalization                   ...    0.011 sec
Threshold for overlap eigenvalues          ... 1.000e-08
Number of eigenvalues below threshold      ... 0
Time for construction of square roots      ...    0.010 sec
Total time needed                          ...    0.021 sec

-------------------
DFT GRID GENERATION
-------------------

General Integration Accuracy     IntAcc      ...  4.340
Radial Grid Type                 RadialGrid  ... Gauss-Chebyshev
Angular Grid (max. acc.)         AngularGrid ... Lebedev-194
Angular grid pruning method      GridPruning ... 3 (G Style)
Weight generation scheme         WeightScheme... Becke
Basis function cutoff            BFCut       ...    1.0000e-11
Integration weight cutoff        WCut        ...    1.0000e-14
Grids for H and He will be reduced by one unit

# of grid points (after initial pruning)     ...  31934 (   0.0 sec)
# of grid points (after weights+screening)   ...  30701 (   0.0 sec)
nearest neighbour list constructed           ...    0.0 sec
Grid point re-assignment to atoms done       ...    0.0 sec
Grid point division into batches done        ...    0.1 sec
Reduced shell lists constructed in    0.1 sec

Total number of grid points                  ...    30701
Total number of batches                      ...      485
Average number of points per batch           ...       63
Average number of grid points per atom       ...     3411
Average number of shells per batch           ...    60.63 (68.12%)
Average number of basis functions per batch  ...   153.72 (74.98%)
Average number of large shells per batch     ...    50.25 (82.89%)
Average number of large basis fcns per batch ...   128.46 (83.57%)
Maximum spatial batch extension              ...   6.94,  6.94, 17.96 au
Average spatial batch extension              ...   0.45,  0.46,  0.63 au

Time for grid setup =    0.193 sec

--------------
SCF ITERATIONS
--------------
ITER       Energy         Delta-E        Max-DP      RMS-DP      [F,P]     Damp
               ***  Starting incremental Fock matrix formation  ***
  0  -1961.8413466462   0.000000000000 0.00107690  0.00003797  0.0096943 0.7000
  1  -1961.8416110161  -0.000264369912 0.00074317  0.00002771  0.0052026 0.7000
                               ***Turning on DIIS***
  2  -1961.8417842829  -0.000173266740 0.00163805  0.00006798  0.0035497 0.0000
  3  -1961.8421332647  -0.000348981820 0.00329193  0.00004070  0.0048817 0.0000
  4  -1961.8420650911   0.000068173589 0.00062705  0.00001215  0.0111241 0.0000
  5  -1961.8421501880  -0.000085096869 0.00039026  0.00000792  0.0038211 0.0000
  6  -1961.8421657657  -0.000015577704 0.00021127  0.00000323  0.0011085 0.0000
  7  -1961.8421669239  -0.000001158183 0.00010436  0.00000215  0.0002068 0.0000
  8  -1961.8421670089  -0.000000085048 0.00009248  0.00000098  0.0002341 0.0000
  9  -1961.8421671408  -0.000000131947 0.00001158  0.00000020  0.0000314 0.0000
 10  -1961.8421671345   0.000000006386 0.00000559  0.00000008  0.0000241 0.0000
 11  -1961.8421671125   0.000000022001 0.00000135  0.00000003  0.0000012 0.0000
 12  -1961.8421670778   0.000000034691 0.00000053  0.00000002  0.0000013 0.0000
                            ***DIIS convergence achieved***
[...]
Forming perturbed density Hessian contributions  ... done   (      0.0 sec)
Making the perturbed densities                   ... done   (      0.1 sec)
2nd integral derivative contribs (RI)            ... done   (      3.0 sec)
Exchange-correlation Hessian                     ... done   (     16.7 sec)
Dispersion correction in the Hessian             ... done   (      0.7 sec)
SRB correction in the Hessian                    ... done   (      0.0 sec)
Dipol derivatives                                ... done   (      0.4 sec)

Total SCF Hessian time: 0 days 0 hours 3 min 20 sec 

Writing the Hessian file to the disk             ... done


Maximum memory used throughout the entire calculation: 164.6 MB

-----------------------
VIBRATIONAL FREQUENCIES
-----------------------

Scaling factor for frequencies =  1.000000000  (already applied!)

   0:         0.00 cm**-1
   1:         0.00 cm**-1
   2:         0.00 cm**-1
   3:         0.00 cm**-1
   4:         0.00 cm**-1
   5:         0.00 cm**-1
   6:      -163.38 cm**-1 ***imaginary mode***
   7:       -63.55 cm**-1 ***imaginary mode***
   8:       -44.67 cm**-1 ***imaginary mode***
   9:       -44.50 cm**-1 ***imaginary mode***
  10:       -26.18 cm**-1 ***imaginary mode***
  11:        37.47 cm**-1
  12:       105.05 cm**-1
  13:       105.07 cm**-1
  14:       245.73 cm**-1
  15:       254.05 cm**-1
  16:       254.13 cm**-1
  17:       254.97 cm**-1
  18:       352.96 cm**-1
  19:       413.73 cm**-1
  20:       413.82 cm**-1
  21:       461.01 cm**-1
  22:       485.91 cm**-1
  23:      1985.93 cm**-1
  24:      2002.87 cm**-1
  25:      2002.87 cm**-1
  26:      2099.70 cm**-1


------------
NORMAL MODES
------------

These modes are the Cartesian displacements weighted by the diagonal matrix
M(i,i)=1/sqrt(m[i]) where m[i] is the mass of the displaced atom
Thus, these vectors are normalized but *not* orthogonal

                  0          1          2          3          4          5    
      0       0.000000   0.000000   0.000000   0.000000   0.000000   0.000000
      1       0.000000   0.000000   0.000000   0.000000   0.000000   0.000000
      2       0.000000   0.000000   0.000000   0.000000   0.000000   0.000000
      3       0.000000   0.000000   0.000000   0.000000   0.000000   0.000000
      4       0.000000   0.000000   0.000000   0.000000   0.000000   0.000000
      5       0.000000   0.000000   0.000000   0.000000   0.000000   0.000000
      6       0.000000   0.000000   0.000000   0.000000   0.000000   0.000000
      7       0.000000   0.000000   0.000000   0.000000   0.000000   0.000000
      8       0.000000   0.000000   0.000000   0.000000   0.000000   0.000000
      9       0.000000   0.000000   0.000000   0.000000   0.000000   0.000000
     10       0.000000   0.000000   0.000000   0.000000   0.000000   0.000000
     11       0.000000   0.000000   0.000000   0.000000   0.000000   0.000000
     12       0.000000   0.000000   0.000000   0.000000   0.000000   0.000000
     13       0.000000   0.000000   0.000000   0.000000   0.000000   0.000000
     14       0.000000   0.000000   0.000000   0.000000   0.000000   0.000000
     15       0.000000   0.000000   0.000000   0.000000   0.000000   0.000000
     16       0.000000   0.000000   0.000000   0.000000   0.000000   0.000000
     17       0.000000   0.000000   0.000000   0.000000   0.000000   0.000000
     18       0.000000   0.000000   0.000000   0.000000   0.000000   0.000000
     19       0.000000   0.000000   0.000000   0.000000   0.000000   0.000000
     20       0.000000   0.000000   0.000000   0.000000   0.000000   0.000000
     21       0.000000   0.000000   0.000000   0.000000   0.000000   0.000000
     22       0.000000   0.000000   0.000000   0.000000   0.000000   0.000000
     23       0.000000   0.000000   0.000000   0.000000   0.000000   0.000000
     24       0.000000   0.000000   0.000000   0.000000   0.000000   0.000000
     25       0.000000   0.000000   0.000000   0.000000   0.000000   0.000000
     26       0.000000   0.000000   0.000000   0.000000   0.000000   0.000000
                  6          7          8          9         10         11    
      0       0.000012  -0.000119  -0.034685  -0.115165   0.000369  -0.000522
      1      -0.000311  -0.000718  -0.115085   0.034740   0.000287   0.000468
      2       0.000002  -0.286768   0.000894  -0.000545   0.000092  -0.000056
      3       0.112168  -0.000057  -0.108691  -0.187515   0.000939  -0.032382
      4      -0.438036  -0.000367  -0.046813  -0.034727   0.000448   0.123266
      5       0.000160  -0.218699   0.001618   0.000376   0.218499  -0.000462
      6      -0.438670   0.000009   0.034060  -0.046017  -0.000260  -0.123677
      7      -0.112151  -0.001029  -0.188034   0.108884   0.000174  -0.031127
      8       0.000720  -0.218310   0.000082  -0.001082  -0.218525  -0.000082
      9      -0.112555  -0.000171  -0.108888  -0.188174   0.000996   0.031220
     10       0.439165  -0.000337  -0.047330  -0.034296   0.000495  -0.124043
     11      -0.000158  -0.216841   0.001380   0.000278   0.219320   0.000407
     12       0.438389   0.000000   0.034559  -0.047707  -0.000229   0.123353
     13       0.113213  -0.001142  -0.187929   0.108504   0.000116   0.032505
     14      -0.000717  -0.217559  -0.000018  -0.000880  -0.219037  -0.000009
     15      -0.050920  -0.000111  -0.243721  -0.101934   0.001392  -0.119084
     16       0.205814   0.002713   0.491190  -0.365462  -0.000337   0.465931
     17      -0.000089   0.427378   0.000013   0.002274   0.449353  -0.000154
     18       0.050803  -0.000013  -0.243511  -0.103701   0.001543   0.118984
     19      -0.206188   0.002939   0.489443  -0.360875  -0.000281  -0.471107
     20       0.000064   0.426146   0.000269   0.002545   0.449494   0.000348
     21      -0.205602   0.000246   0.364042   0.487971  -0.002687   0.470086
     22      -0.050899  -0.000387  -0.102156   0.243773  -0.000762   0.120776
     23       0.000342   0.426221  -0.002793  -0.001033  -0.449591  -0.000658
     24       0.206176   0.000478   0.362279   0.492606  -0.002688  -0.466957
     25       0.050768  -0.000471  -0.103306   0.243721  -0.000598  -0.117766
     26      -0.000327   0.426599  -0.003067  -0.000803  -0.449788   0.000779
                 12         13         14         15         16         17    
      0       0.000059  -0.000018   0.000410  -0.237194  -0.412119   0.017603
      1       0.000022   0.000055  -0.000475  -0.412250   0.237814   0.006407
      2      -0.000452  -0.000236  -0.345956   0.000349  -0.000553  -0.001167
      3       0.000581   0.000048  -0.001469   0.124752   0.292902   0.329198
      4       0.000584   0.000221   0.000395   0.381767  -0.269477   0.080797
      5       0.630650   0.110873   0.467442  -0.000011   0.001049   0.001110
      6      -0.000378   0.000692   0.000165   0.267988   0.372678  -0.103789
      7      -0.000163   0.000620  -0.000990   0.296371  -0.094311   0.333506
      8      -0.110964   0.630666   0.467789  -0.000151   0.000630   0.001275
      9      -0.000737  -0.000097   0.001482   0.092021   0.265122  -0.349591
     10      -0.000638  -0.000270   0.001148   0.372369  -0.275253  -0.089770
     11      -0.630599  -0.111093   0.468350  -0.000133   0.000962   0.001961
     12       0.000316  -0.000643  -0.000596   0.275903   0.380663   0.067246
     13       0.000216  -0.000770   0.001967   0.261633  -0.123433  -0.345056
     14       0.110959  -0.630588   0.467982  -0.000229   0.000800   0.001817
     15      -0.000280  -0.000058  -0.001826   0.203133   0.213280   0.334989
     16      -0.000103  -0.000074  -0.000503   0.068670   0.040374   0.085437
     17      -0.294815  -0.051932  -0.033720  -0.000319  -0.000337  -0.000553
     18       0.000499   0.000130   0.000985   0.169462   0.185374  -0.356083
     19       0.000088  -0.000184   0.000222   0.060239   0.033206  -0.091094
     20       0.296061   0.052207  -0.034145  -0.000237  -0.000284   0.000394
     21      -0.000102   0.000478  -0.000540  -0.031865   0.068040   0.087864
     22      -0.000064   0.000495   0.001482   0.181455  -0.202141  -0.346688
     23      -0.051916   0.295780  -0.033983  -0.000144   0.000031   0.000216
     24      -0.000170  -0.000484   0.000189  -0.041527   0.060877  -0.088611
     25      -0.000000  -0.000291  -0.001348   0.217103  -0.171557   0.344246
     26       0.052294  -0.295082  -0.033891  -0.000187   0.000034  -0.000401
                 18         19         20         21         22         23    
      0      -0.000776  -0.038933  -0.073308   0.000038   0.000001  -0.000011
      1      -0.000141  -0.073403   0.038881  -0.000073  -0.000002  -0.000003
      2       0.000002   0.000094   0.000041  -0.000001  -0.000000  -0.000001
      3       0.332826   0.273869   0.085967  -0.119722  -0.000419  -0.390194
      4       0.086282  -0.372445   0.431000   0.474632  -0.000428  -0.098871
      5      -0.000343   0.000108  -0.000566  -0.000443  -0.469745   0.000437
      6       0.085049  -0.430196  -0.372548  -0.475461   0.000590   0.098658
      7      -0.331784   0.087981  -0.273759  -0.119560   0.000423  -0.390403
      8       0.000185   0.000497   0.000637   0.000619   0.469619   0.000260
      9      -0.330110   0.275140   0.088347   0.120004  -0.000641   0.390287
     10      -0.085334  -0.370882   0.429929  -0.476530  -0.000472   0.098829
     11       0.000509   0.000060  -0.000634   0.000448  -0.469489  -0.000595
     12      -0.087584  -0.430588  -0.370889   0.475507   0.000537  -0.099425
     13       0.330908   0.086319  -0.275384   0.121057   0.000636   0.389966
     14      -0.000365   0.000431   0.000686  -0.000606   0.469630  -0.000409
     15       0.354798   0.157535   0.215214   0.024326   0.000145   0.287485
     16       0.089222   0.131730  -0.030509  -0.093882   0.000156   0.072766
     17      -0.000428  -0.000248  -0.000133   0.000096   0.171641  -0.000321
     18      -0.351918   0.159391   0.217233  -0.024527   0.000180  -0.287505
     19      -0.088476   0.131941  -0.029759   0.094264   0.000160  -0.072719
     20       0.000526  -0.000320  -0.000204  -0.000098   0.171608   0.000441
     21      -0.089026   0.029962   0.132097  -0.094218  -0.000187   0.073169
     22       0.353203   0.216104  -0.158696  -0.024157  -0.000229  -0.287291
     23      -0.000356  -0.000332   0.000082   0.000114  -0.171635   0.000304
     24       0.088857   0.030016   0.131682   0.094032  -0.000193  -0.072605
     25      -0.353484   0.216727  -0.157759   0.024345  -0.000200   0.287616
     26       0.000263  -0.000268   0.000015  -0.000120  -0.171623  -0.000191
                  24         25         26    
      0      -0.001072  -0.000333  -0.000009
      1       0.000332  -0.001073  -0.000001
      2      -0.000000  -0.000001   0.000000
      3       0.456139   0.309302   0.396223
      4       0.121620   0.069388   0.100430
      5      -0.000515  -0.000335  -0.000442
      6       0.069205  -0.121347   0.100173
      7      -0.309314   0.456281  -0.396092
      8       0.000214  -0.000295   0.000261
      9       0.456263   0.309577  -0.395862
     10       0.121547   0.069435  -0.100275
     11      -0.000703  -0.000462   0.000608
     12       0.069931  -0.122286  -0.100921
     13      -0.309487   0.456001   0.395908
     14       0.000335  -0.000475  -0.000421
     15      -0.337673  -0.227597  -0.279528
     16      -0.087303  -0.054911  -0.070815
     17       0.000381   0.000252   0.000312
     18      -0.337746  -0.227789   0.279286
     19      -0.087255  -0.054927   0.070706
     20       0.000523   0.000347  -0.000430
     21      -0.055307   0.087799   0.071184
     22       0.227739  -0.337556  -0.279309
     23      -0.000246   0.000357   0.000298
     24      -0.054765   0.087100  -0.070619
     25       0.227601  -0.337769   0.279444
     26      -0.000155   0.000222  -0.000184


-----------
IR SPECTRUM
-----------

 Mode    freq (cm**-1)   T**2         TX         TY         TZ
-------------------------------------------------------------------
  11:        37.47    0.000039  ( -0.004732   0.004045  -0.000221)
  12:       105.05    0.000001  (  0.000832   0.000132  -0.000311)
  13:       105.07    0.000001  ( -0.000093   0.000808  -0.000432)
  14:       245.73    1.388195  ( -0.005190   0.001977   1.178204)
  15:       254.05   12.603847  (  1.762027   3.082059  -0.004337)
  16:       254.13   12.635841  (  3.083705  -1.768220   0.000967)
  17:       254.97    0.032081  ( -0.168063  -0.061710   0.005281)
  18:       352.96    0.000139  (  0.011578   0.002149  -0.000033)
  19:       413.73    1.217923  (  0.520676   0.973046  -0.001560)
  20:       413.82    1.217031  (  0.972607  -0.520641  -0.000532)
  21:       461.01    0.000009  ( -0.001042   0.002886   0.000014)
  22:       485.91    0.000000  ( -0.000378   0.000175   0.000019)
  23:      1985.93    0.000234  ( -0.005646  -0.011202  -0.008738)
  24:      2002.87  1725.307659  ( 39.125491 -13.946433  -0.025103)
  25:      2002.87  1724.616850  ( 13.940401  39.118776  -0.058664)
  26:      2099.70    0.000112  (  0.010110   0.003072   0.000047)

The first frequency considered to be a vibration is 11
The total number of vibrations considered is 16


--------------------------
THERMOCHEMISTRY AT 298.15K
--------------------------

Temperature         ... 298.15 K
Pressure            ... 1.00 atm
Total Mass          ... 170.74 AMU

Throughout the following assumptions are being made:
  (1) The electronic state is orbitally nondegenerate
      but the spin degeneracy is treated
  (2) There are no thermally accessible electronically excited states
  (3) Hindered rotations indicated by low frequency modes are not
      treated as such but are treated as vibrations and this may
      cause some error
  (4) All equations used are the standard statistical mechanics
      equations for an ideal gas
  (5) All vibrations are strictly harmonic

freq.      37.47  E(vib)   ...       0.54 
freq.     105.05  E(vib)   ...       0.45 
freq.     105.07  E(vib)   ...       0.45 
freq.     245.73  E(vib)   ...       0.31 
freq.     254.05  E(vib)   ...       0.30 
freq.     254.13  E(vib)   ...       0.30 
freq.     254.97  E(vib)   ...       0.30 
freq.     352.96  E(vib)   ...       0.22 
freq.     413.73  E(vib)   ...       0.19 
freq.     413.82  E(vib)   ...       0.19 
freq.     461.01  E(vib)   ...       0.16 
freq.     485.91  E(vib)   ...       0.15 
freq.    1985.93  E(vib)   ...       0.00 
freq.    2002.87  E(vib)   ...       0.00 
freq.    2002.87  E(vib)   ...       0.00 
freq.    2099.70  E(vib)   ...       0.00 

------------
INNER ENERGY
------------

The inner energy is: U= E(el) + E(ZPE) + E(vib) + E(rot) + E(trans)
    E(el)   - is the total energy from the electronic structure calculation
              = E(kin-el) + E(nuc-el) + E(el-el) + E(nuc-nuc)
    E(ZPE)  - the the zero temperature vibrational energy from the frequency calculation
    E(vib)  - the the finite temperature correction to E(ZPE) due to population
              of excited vibrational states
    E(rot)  - is the rotational thermal energy
    E(trans)- is the translational thermal energy

Summary of contributions to the inner energy U:
Electronic energy                ...  -1961.90368214 Eh
Zero point energy                ...      0.02614257 Eh      16.40 kcal/mol
Thermal vibrational correction   ...      0.00568707 Eh       3.57 kcal/mol
Thermal rotational correction    ...      0.00141627 Eh       0.89 kcal/mol
Thermal translational correction ...      0.00141627 Eh       0.89 kcal/mol
-----------------------------------------------------------------------
Total thermal energy                  -1961.86901996 Eh


Summary of corrections to the electronic energy:
(perhaps to be used in another calculation)
Total thermal correction                  0.00851961 Eh       5.35 kcal/mol
Non-thermal (ZPE) correction              0.02614257 Eh      16.40 kcal/mol
-----------------------------------------------------------------------
Total correction                          0.03466218 Eh      21.75 kcal/mol


--------
ENTHALPY
--------

The enthalpy is H = U + kB*T
                kB is Boltzmann's constant
Total free energy                 ...  -1961.86901996 Eh 
Thermal Enthalpy correction       ...      0.00094421 Eh       0.59 kcal/mol
-----------------------------------------------------------------------
Total Enthalpy                    ...  -1961.86807576 Eh


Note: Only C1 symmetry has been detected, increase convergence thresholds 
      if your molecule has a higher symmetry. Symmetry factor of 1.0 is   
      used for the rotational entropy correction. 
 

Note: Rotational entropy computed according to Herzberg 
Infrared and Raman Spectra, Chapter V,1, Van Nostrand Reinhold, 1945 
Point Group:  C1, Symmetry Number:   1  
Rotational constants in cm-1:     0.043752     0.043733     0.021871 

Vibrational entropy computed according to the QRRHO of S. Grimme
Chem.Eur.J. 2012 18 9955


-------
ENTROPY
-------

The entropy contributions are T*S = T*(S(el)+S(vib)+S(rot)+S(trans))
     S(el)   - electronic entropy
     S(vib)  - vibrational entropy
     S(rot)  - rotational entropy
     S(trans)- translational entropy
The entropies will be listed as mutliplied by the temperature to get
units of energy

Electronic entropy                ...      0.00103729 Eh      0.65 kcal/mol
Vibrational entropy               ...      0.01017404 Eh      6.38 kcal/mol
Rotational entropy                ...      0.01427017 Eh      8.95 kcal/mol
Translational entropy             ...      0.01962891 Eh     12.32 kcal/mol
-----------------------------------------------------------------------
Final entropy term                ...      0.04511041 Eh     28.31 kcal/mol

In case the symmetry of your molecule has not been determined correctly
or in case you have a reason to use a different symmetry number we print 
out the resulting rotational entropy values for sn=1,12 :
 --------------------------------------------------------
|  sn= 1 | S(rot)=       0.01427017 Eh      8.95 kcal/mol|
|  sn= 2 | S(rot)=       0.01361572 Eh      8.54 kcal/mol|
|  sn= 3 | S(rot)=       0.01323289 Eh      8.30 kcal/mol|
|  sn= 4 | S(rot)=       0.01296126 Eh      8.13 kcal/mol|
|  sn= 5 | S(rot)=       0.01275057 Eh      8.00 kcal/mol|
|  sn= 6 | S(rot)=       0.01257843 Eh      7.89 kcal/mol|
|  sn= 7 | S(rot)=       0.01243288 Eh      7.80 kcal/mol|
|  sn= 8 | S(rot)=       0.01230680 Eh      7.72 kcal/mol|
|  sn= 9 | S(rot)=       0.01219560 Eh      7.65 kcal/mol|
|  sn=10 | S(rot)=       0.01209612 Eh      7.59 kcal/mol|
|  sn=11 | S(rot)=       0.01200613 Eh      7.53 kcal/mol|
|  sn=12 | S(rot)=       0.01192397 Eh      7.48 kcal/mol|
 --------------------------------------------------------


-------------------
GIBBS FREE ENERGY
-------------------

The Gibbs free energy is G = H - T*S

Total enthalpy                    ...  -1961.86807576 Eh 
Total entropy correction          ...     -0.04511041 Eh    -28.31 kcal/mol
-----------------------------------------------------------------------
Final Gibbs free energy         ...  -1961.91318616 Eh

For completeness - the Gibbs free energy minus the electronic energy
G-E(el)                           ...     -0.00950402 Eh     -5.96 kcal/mol


Timings for individual modules:

Sum of individual times         ...      290.765 sec (=   4.846 min)
GTO integral calculation        ...        3.836 sec (=   0.064 min)   1.3 %
SCF iterations                  ...       59.735 sec (=   0.996 min)  20.5 %
SCF Gradient evaluation         ...       26.282 sec (=   0.438 min)   9.0 %
Geometry relaxation             ...        0.354 sec (=   0.006 min)   0.1 %
Analytical frequency calculation...      200.557 sec (=   3.343 min)  69.0 %
                             ****ORCA TERMINATED NORMALLY****
TOTAL RUN TIME: 0 days 0 hours 4 minutes 52 seconds 94 msec
