
                                 *****************
                                 * O   R   C   A *
                                 *****************

           --- An Ab Initio, DFT and Semiempirical electronic structure package ---

                  #######################################################
                  #                        -***-                        #
                  #          Department of theory and spectroscopy      #
                  #               Directorship: Frank Neese             #
                  #        Max Planck Institute fuer Kohlenforschung    #
                  #                Kaiser Wilhelm Platz 1               #
                  #                 D-45470 Muelheim/Ruhr               #
                  #                      Germany                        #
                  #                                                     #
                  #                  All rights reserved                #
                  #                        -***-                        #
                  #######################################################


                         Program Version 4.2.1 -  RELEASE  -


 With contributions from (in alphabetic order):
   Daniel Aravena         : Magnetic Suceptibility
   Michael Atanasov       : Ab Initio Ligand Field Theory (pilot matlab implementation)
   Alexander A. Auer      : GIAO ZORA, VPT2
   Ute Becker             : Parallelization
   Giovanni Bistoni       : ED, misc. LED, open-shell LED, HFLD
   Martin Brehm           : Molecular dynamics
   Dmytro Bykov           : SCF Hessian
   Vijay G. Chilkuri      : MRCI spin determinant printing, contributions to CSF-ICE
   Dipayan Datta          : RHF DLPNO-CCSD density
   Achintya Kumar Dutta   : EOM-CC, STEOM-CC
   Dmitry Ganyushin       : Spin-Orbit,Spin-Spin,Magnetic field MRCI
   Miquel Garcia          : C-PCM Hessian, Gaussian charge scheme
   Yang Guo               : DLPNO-NEVPT2, CIM, IAO-localization
   Andreas Hansen         : Spin unrestricted coupled pair/coupled cluster methods
   Benjamin Helmich-Paris : CASSCF linear response (MC-RPA)
   Lee Huntington         : MR-EOM, pCC
   Robert Izsak           : Overlap fitted RIJCOSX, COSX-SCS-MP3, EOM
   Christian Kollmar      : KDIIS, OOCD, Brueckner-CCSD(T), CCSD density
   Simone Kossmann        : Meta GGA functionals, TD-DFT gradient, OOMP2, MP2 Hessian
   Martin Krupicka        : AUTO-CI
   Lucas Lang             : DCDCAS
   Dagmar Lenk            : GEPOL surface, SMD
   Dimitrios Liakos       : Extrapolation schemes; Compound Job, initial MDCI parallelization
   Dimitrios Manganas     : Further ROCIS development; embedding schemes
   Dimitrios Pantazis     : SARC Basis sets
   Taras Petrenko         : DFT Hessian,TD-DFT gradient, ASA, ECA, R-Raman, ABS, FL, XAS/XES, NRVS
   Peter Pinski           : DLPNO-MP2, DLPNO-MP2 Gradient
   Christoph Reimann      : Effective Core Potentials
   Marius Retegan         : Local ZFS, SOC
   Christoph Riplinger    : Optimizer, TS searches, QM/MM, DLPNO-CCSD(T), (RO)-DLPNO pert. Triples
   Tobias Risthaus        : Range-separated hybrids, TD-DFT gradient, RPA, STAB
   Michael Roemelt        : Original ROCIS implementation
   Masaaki Saitow         : Open-shell DLPNO-CCSD energy and density
   Barbara Sandhoefer     : DKH picture change effects
   Avijit Sen             : IP-ROCIS
   Kantharuban Sivalingam : CASSCF convergence, NEVPT2, FIC-MRCI
   Bernardo de Souza      : ESD, SOC TD-DFT
   Georgi Stoychev        : AutoAux, RI-MP2 NMR
   Willem Van den Heuvel  : Paramagnetic NMR
   Boris Wezisla          : Elementary symmetry handling
   Frank Wennmohs         : Technical directorship


 We gratefully acknowledge several colleagues who have allowed us to
 interface, adapt or use parts of their codes:
   Stefan Grimme, W. Hujo, H. Kruse,             : VdW corrections, initial TS optimization,
                  C. Bannwarth                     DFT functionals, gCP, sTDA/sTD-DF
   Ed Valeev, F. Pavosevic, A. Kumar             : LibInt (2-el integral package), F12 methods
   Garnet Chan, S. Sharma, J. Yang, R. Olivares  : DMRG
   Ulf Ekstrom                                   : XCFun DFT Library
   Mihaly Kallay                                 : mrcc  (arbitrary order and MRCC methods)
   Andreas Klamt, Michael Diedenhofen            : otool_cosmo (COSMO solvation model)
   Jiri Pittner, Ondrej Demel                    : Mk-CCSD
   Frank Weinhold                                : gennbo (NPA and NBO analysis)
   Christopher J. Cramer and Donald G. Truhlar   : smd solvation model
   Lars Goerigk                                  : TD-DFT with DH, B97 family of functionals
   V. Asgeirsson, H. Jonsson                     : NEB implementation
   FAccTs GmbH                                   : IRC, NEB, NEB-TS, Multilevel, MM, QM/MM, CI optimization
   S Lehtola, MJT Oliveira, MAL Marques          : LibXC Library


 Your calculation uses the libint2 library for the computation of 2-el integrals
 For citations please refer to: http://libint.valeyev.net

 Your ORCA version has been built with support for libXC version: 4.2.3
 For citations please refer to: https://tddft.org/programs/libxc/

 This ORCA versions uses:
   CBLAS   interface :  Fast vector & matrix operations
   LAPACKE interface :  Fast linear algebra routines
   SCALAPACK package :  Parallel linear algebra routines


Your calculation utilizes the geometrical counterpoise correction gCP
Please cite in your paper:
H.Kruse, S. Grimme J.Chem.Phys., 136, (2012), 154101 
   

Your calculation utilizes the atom-pairwise dispersion correction
based on tight binding partial charges (D4)
Cite in your paper:
E.Caldeweyher, C.Bannwarth, S.Grimme, J.Chem.Phys., (2017), 147, 034112.
E.Caldeweyher, S.Ehlert, A.Hansen, H.Neugebauer, S.Grimme, J.Chem.Phys., (2018), in progress.
   

----- Orbital basis set information -----
Your calculation utilizes the basis: def2-SVP
   F. Weigend and R. Ahlrichs, Phys. Chem. Chem. Phys. 7, 3297 (2005).

----- AuxJ basis set information -----
Your calculation utilizes the auxiliary basis: def2/J
   F. Weigend, Phys. Chem. Chem. Phys. 8, 1057 (2006).

================================================================================
                                        WARNINGS
                       Please study these warnings very carefully!
================================================================================


WARNING: Geometry Optimization
  ===> : Switching off AutoStart
         For restart on a previous wavefunction, please use MOREAD

INFO   : the flag for use of LIBINT has been found!

================================================================================
                                       INPUT FILE
================================================================================
NAME = trans-1,2-dichloroethylene.inp
|  1> ! revPBE D4 gCP(DFT/SVP) def2-SVP Opt Freq TightOpt TightSCF Grid4 FinalGrid5 LargePrint
|  2> 
|  3> %pal
|  4>  nprocs 6
|  5> end
|  6> 
|  7> *xyz 0 1
|  8> C       -0.5292078122      2.7984383330     -0.3818772364                 
|  9> C       -1.3742209995      2.1286603607     -1.1657097810                 
| 10> Cl       1.1323113706      2.2590166295     -0.2027965128                 
| 11> H       -0.8608936642      3.6830634447      0.1524628644                 
| 12> Cl      -3.0357273697      2.6681322781     -1.3447485886                 
| 13> H       -1.0425626957      1.2440289353     -1.7000640372                 
| 14> *
| 15> 
| 16>                          ****END OF INPUT****
================================================================================

                       *****************************
                       * Geometry Optimization Run *
                       *****************************

Geometry optimization settings:
Update method            Update   .... BFGS
Choice of coordinates    CoordSys .... Z-matrix Internals
Initial Hessian          InHess   .... Almoef's Model

Convergence Tolerances:
Energy Change            TolE     ....  1.0000e-06 Eh
Max. Gradient            TolMAXG  ....  1.0000e-04 Eh/bohr
RMS Gradient             TolRMSG  ....  3.0000e-05 Eh/bohr
Max. Displacement        TolMAXD  ....  1.0000e-03 bohr
RMS Displacement         TolRMSD  ....  6.0000e-04 bohr
Strict Convergence                ....  False
------------------------------------------------------------------------------
                        ORCA OPTIMIZATION COORDINATE SETUP
------------------------------------------------------------------------------

The optimization will be done in new redundant internal coordinates
Making redundant internal coordinates   ...  (new redundants) done
Evaluating the initial hessian          ...  (Almloef) done
Evaluating the coordinates              ...  done
Calculating the B-matrix                .... done
Calculating the G-matrix                .... done
Diagonalizing the G-matrix              .... done
The first mode is                       ....    3
The number of degrees of freedom        ....   12

    -----------------------------------------------------------------
                    Redundant Internal Coordinates


    -----------------------------------------------------------------
         Definition                    Initial Value    Approx d2E/dq
    -----------------------------------------------------------------
      1. B(C   1,C   0)                  1.3331         0.770169   
      2. B(Cl  2,C   0)                  1.7560         0.365371   
      3. B(H   3,C   0)                  1.0854         0.366235   
      4. B(Cl  4,C   1)                  1.7560         0.365372   
      5. B(H   5,C   1)                  1.0854         0.366230   
      6. A(Cl  2,C   0,H   3)          119.2941         0.337594   
      7. A(C   1,C   0,Cl  2)          120.3575         0.429094   
      8. A(C   1,C   0,H   3)          120.3484         0.367249   
      9. A(Cl  4,C   1,H   5)          119.2946         0.337594   
     10. A(C   0,C   1,H   5)          120.3500         0.367249   
     11. A(C   0,C   1,Cl  4)          120.3554         0.429094   
     12. D(Cl  4,C   1,C   0,H   3)     -0.0000         0.042524   
     13. D(H   5,C   1,C   0,Cl  2)     -0.0000         0.042524   
     14. D(H   5,C   1,C   0,H   3)   -180.0000         0.042524   
     15. D(Cl  4,C   1,C   0,Cl  2)    180.0000         0.042524   
    -----------------------------------------------------------------

Number of atoms                         .... 6
Number of degrees of freedom            .... 15

         *************************************************************
         *                GEOMETRY OPTIMIZATION CYCLE   1            *
         *************************************************************
---------------------------------
CARTESIAN COORDINATES (ANGSTROEM)
---------------------------------
  C     -0.529208    2.798438   -0.381877
  C     -1.374221    2.128660   -1.165710
  Cl     1.132311    2.259017   -0.202797
  H     -0.860894    3.683063    0.152463
  Cl    -3.035727    2.668132   -1.344749
  H     -1.042563    1.244029   -1.700064

----------------------------
CARTESIAN COORDINATES (A.U.)
----------------------------
  NO LB      ZA    FRAG     MASS         X           Y           Z
   0 C     6.0000    0    12.011   -1.000058    5.288282   -0.721643
   1 C     6.0000    0    12.011   -2.596901    4.022585   -2.202872
   2 Cl   17.0000    0    35.453    2.139758    4.268923   -0.383230
   3 H     1.0000    0     1.008   -1.626853    6.959981    0.288113
   4 Cl   17.0000    0    35.453   -5.736693    5.042039   -2.541207
   5 H     1.0000    0     1.008   -1.970158    2.350874   -3.212655

--------------------------------
INTERNAL COORDINATES (ANGSTROEM)
--------------------------------
 C      0   0   0     0.000000000000     0.00000000     0.00000000
 C      1   0   0     1.333057867035     0.00000000     0.00000000
 Cl     1   2   0     1.756044325917   120.35753688     0.00000000
 H      1   2   3     1.085401509115   120.34835791   180.00000958
 Cl     2   1   3     1.756043354392   120.35536245   179.99998128
 H      2   1   3     1.085405205628   120.35001504     0.00000000

---------------------------
INTERNAL COORDINATES (A.U.)
---------------------------
 C      0   0   0     0.000000000000     0.00000000     0.00000000
 C      1   0   0     2.519114289365     0.00000000     0.00000000
 Cl     1   2   0     3.318442855009   120.35753688     0.00000000
 H      1   2   3     2.051111597573   120.34835791   180.00000958
 Cl     2   1   3     3.318441019094   120.35536245   179.99998128
 H      2   1   3     2.051118582969   120.35001504     0.00000000

---------------------
BASIS SET INFORMATION
---------------------
There are 3 groups of distinct atoms

 Group   1 Type C   : 7s4p1d contracted to 3s2p1d pattern {511/31/1}
 Group   2 Type Cl  : 10s7p1d contracted to 4s3p1d pattern {5311/511/1}
 Group   3 Type H   : 4s1p contracted to 2s1p pattern {31/1}

Atom   0C    basis set group =>   1
Atom   1C    basis set group =>   1
Atom   2Cl   basis set group =>   2
Atom   3H    basis set group =>   3
Atom   4Cl   basis set group =>   2
Atom   5H    basis set group =>   3

-------------------------
BASIS SET IN INPUT FORMAT
-------------------------

 # Basis set for element : H 
 NewGTO H 
 S 3 
   1      13.0107010000      0.0334854848
   2       1.9622572000      0.2347218709
   3       0.4445379600      0.8137702853
 S 1 
   1       0.1219496200      1.0000000000
 P 1 
   1       0.8000000000      1.0000000000
  end;

 # Basis set for element : C 
 NewGTO C 
 S 5 
   1    1238.4016938000      0.0055173650
   2     186.2900499200      0.0410888285
   3      42.2511763460      0.1822538213
   4      11.6765579320      0.4682845944
   5       3.5930506482      0.4457581734
 S 1 
   1       0.4024514736      1.0000000000
 S 1 
   1       0.1309018267      1.0000000000
 P 3 
   1       9.4680970621      0.0568883320
   2       2.0103545142      0.3129405934
   3       0.5477100471      0.7606501651
 P 1 
   1       0.1526861379      1.0000000000
 D 1 
   1       0.8000000000      1.0000000000
  end;

 # Basis set for element : Cl
 NewGTO Cl
 S 5 
   1   10449.8275660000      0.0054265952
   2    1571.7365221000      0.0406263782
   3     357.1206552300      0.1835974786
   4     100.2518593500      0.4743894876
   5      30.8127275540      0.4373518111
 S 3 
   1      51.9237894340     -0.0927541549
   2       5.7045760975      0.5638082555
   3       2.3508376809      0.5036704463
 S 1 
   1       0.4460512467      1.0000000000
 S 1 
   1       0.1684885619      1.0000000000
 P 5 
   1     307.6679056900     -0.0088797025
   2      72.1020155150     -0.0642840717
   3      22.5326802620     -0.2428873974
   4       7.8991765444     -0.4834083637
   5       2.8767268321     -0.3895256388
 P 1 
   1       0.7745936396      1.0000000000
 P 1 
   1       0.2103769970      1.0000000000
 D 1 
   1       0.6500000000      1.0000000000
  end;

---------------------------------
AUXILIARY/J BASIS SET INFORMATION
---------------------------------
There are 3 groups of distinct atoms

 Group   1 Type C   : 12s5p4d2f1g contracted to 6s4p3d1f1g pattern {711111/2111/211/2/1}
 Group   2 Type Cl  : 14s5p5d2f1g contracted to 8s4p3d1f1g pattern {71111111/2111/311/2/1}
 Group   3 Type H   : 5s2p1d contracted to 3s1p1d pattern {311/2/1}

Atom   0C    basis set group =>   1
Atom   1C    basis set group =>   1
Atom   2Cl   basis set group =>   2
Atom   3H    basis set group =>   3
Atom   4Cl   basis set group =>   2
Atom   5H    basis set group =>   3

-------------------------------------
AUXILIARY/J BASIS SET IN INPUT FORMAT
-------------------------------------

 # Auxiliary/J basis set for element : H 
 NewAuxJGTO H 
 S 3 
   1      15.6752927000      0.1007184237
   2       3.6063578000      0.3404257499
   3       1.2080016000      0.6491996172
 S 1 
   1       0.4726794000      1.0000000000
 S 1 
   1       0.2018100000      1.0000000000
 P 2 
   1       2.0281365000      0.5596620919
   2       0.5358730000      0.5596620919
 D 1 
   1       2.2165124000      1.0000000000
  end;

 # Auxiliary/J basis set for element : C 
 NewAuxJGTO C 
 S 7 
   1    1861.0916331000      0.0134602335
   2     642.9939764000      0.0299160374
   3     235.1105725000      0.1008649584
   4      90.7028894000      0.2370970548
   5      36.7794552000      0.3924037254
   6      15.6046273000      0.3195862154
   7       6.8907294000      0.0530104441
 S 1 
   1       3.1478850000     -1.0000000000
 S 1 
   1       1.4777287000      1.0000000000
 S 1 
   1       0.7076466000      1.0000000000
 S 1 
   1       0.3430122000      1.0000000000
 S 1 
   1       0.1669453000      1.0000000000
 P 2 
   1      13.5472892000     -0.6769313712
   2       5.4669419000     -0.3779500978
 P 1 
   1       2.1751721000      1.0000000000
 P 1 
   1       0.8582194000      1.0000000000
 P 1 
   1       0.3376720000      1.0000000000
 D 2 
   1       5.9287253000     -0.3533329857
   2       1.9809209000     -0.7456525731
 D 1 
   1       0.8055417000     -1.0000000000
 D 1 
   1       0.3531244000     -1.0000000000
 F 2 
   1       1.6755626000      0.6311076882
   2       0.5997536000      0.4968166032
 G 1 
   1       1.0024600000     -1.0000000000
  end;

 # Auxiliary/J basis set for element : Cl
 NewAuxJGTO Cl
 S 7 
   1    8044.2766240000      0.0309054740
   2    2924.5123954000      0.0600734063
   3    1110.8168739000      0.1862207460
   4     439.9050761000      0.3715503251
   5     181.1987287000      0.4220785347
   6      77.4148302000      0.0994388367
   7      34.1977273000     -0.0596902748
 S 1 
   1      15.5648397000      1.0000000000
 S 1 
   1       7.2707873000      1.0000000000
 S 1 
   1       3.4711900000     -1.0000000000
 S 1 
   1       1.6860808000     -1.0000000000
 S 1 
   1       0.8293125000      1.0000000000
 S 1 
   1       0.4110124000      1.0000000000
 S 1 
   1       0.2042190000      1.0000000000
 P 2 
   1      12.2564993000      1.4910316311
   2       4.8922575000     -1.4908224419
 P 1 
   1       1.9265460000      1.0000000000
 P 1 
   1       0.7525989000     -1.0000000000
 P 1 
   1       0.2932189000     -1.0000000000
 D 3 
   1      28.4370504000     -1.0829567244
   2       7.2772298000      0.5502349187
   3       2.3111621000     -0.5567798939
 D 1 
   1       0.8580943000     -1.0000000000
 D 1 
   1       0.3376227000     -1.0000000000
 F 2 
   1       1.2035685000      0.5557691438
   2       0.4700000000      0.5557691438
 G 1 
   1       0.7521100000     -1.0000000000
  end;



           ************************************************************
           *        Program running with 6 parallel MPI-processes     *
           *              working on a common directory               *
           ************************************************************
------------------------------------------------------------------------------
                           ORCA GTO INTEGRAL CALCULATION
                           -- RI-GTO INTEGRALS CHOSEN --
------------------------------------------------------------------------------

                         BASIS SET STATISTICS AND STARTUP INFO

Gaussian basis set:
 # of primitive gaussian shells          ...   70
 # of primitive gaussian functions       ...  134
 # of contracted shells                  ...   34
 # of contracted basis functions         ...   74
 Highest angular momentum                ...    2
 Maximum contraction depth               ...    5
Auxiliary gaussian basis set:
 # of primitive gaussian shells          ...  118
 # of primitive gaussian functions       ...  326
 # of contracted shells                  ...   74
 # of contracted aux-basis functions     ...  222
 Highest angular momentum                ...    4
 Maximum contraction depth               ...    7
Ratio of auxiliary to basis functions    ...  3.00
Integral package used                  ... LIBINT
 One Electron integrals                  ... done
 Ordering auxiliary basis shells         ... done
 Integral threshhold             Thresh  ...  2.500e-11
 Primitive cut-off               TCut    ...  2.500e-12
 Pre-screening matrix                    ... done
 Shell pair data                         ... 
 Ordering of the shell pairs             ... done (   0.000 sec) 564 of 595 pairs
 Determination of significant pairs      ... done (   0.000 sec)
 Creation of shell pair data             ... done (   0.000 sec)
 Storage of shell pair data              ... done (   0.010 sec)
 Shell pair data done in (   0.010 sec)
 Computing two index integrals           ... done
 Cholesky decomposition of the V-matrix  ... done


Timings:
 Total evaluation time                   ...   0.232 sec (  0.004 min)
 One electron matrix time                ...   0.029 sec (  0.000 min) = 12.7%
 Schwartz matrix evaluation time         ...   0.149 sec (  0.002 min) = 64.3%
 Two index repulsion integral time       ...   0.006 sec (  0.000 min) =  2.6%
 Cholesky decomposition of V             ...   0.005 sec (  0.000 min) =  2.0%
 Three index repulsion integral time     ...   0.000 sec (  0.000 min) =  0.0%



           ************************************************************
           *        Program running with 6 parallel MPI-processes     *
           *              working on a common directory               *
           ************************************************************
-------------------------------------------------------------------------------
                                 ORCA SCF
-------------------------------------------------------------------------------

------------
SCF SETTINGS
------------
Hamiltonian:
 Density Functional     Method          .... DFT(GTOs)
 Exchange Functional    Exchange        .... PBE
   PBE kappa parameter   XKappa         ....  1.245000
   PBE mue parameter    XMuePBE         ....  0.219520
 Correlation Functional Correlation     .... PBE
   PBE beta parameter  CBetaPBE         ....  0.066725
 LDA part of GGA corr.  LDAOpt          .... PW91-LDA
 Gradients option       PostSCFGGA      .... off
   Density functional embedding theory  .... OFF
   NL short-range parameter             ....  3.700000
 RI-approximation to the Coulomb term is turned on
   Number of auxiliary basis functions  .... 222


General Settings:
 Integral files         IntName         .... trans-1,2-dichloroethylene
 Hartree-Fock type      HFTyp           .... RHF
 Total Charge           Charge          ....    0
 Multiplicity           Mult            ....    1
 Number of Electrons    NEL             ....   48
 Basis Dimension        Dim             ....   74
 Nuclear Repulsion      ENuc            ....    173.8254516488 Eh

Convergence Acceleration:
 DIIS                   CNVDIIS         .... on
   Start iteration      DIISMaxIt       ....    12
   Startup error        DIISStart       ....  0.200000
   # of expansion vecs  DIISMaxEq       ....     5
   Bias factor          DIISBfac        ....   1.050
   Max. coefficient     DIISMaxC        ....  10.000
 Newton-Raphson         CNVNR           .... off
 SOSCF                  CNVSOSCF        .... on
   Start iteration      SOSCFMaxIt      ....   150
   Startup grad/error   SOSCFStart      ....  0.003300
 Level Shifting         CNVShift        .... on
   Level shift para.    LevelShift      ....    0.2500
   Turn off err/grad.   ShiftErr        ....    0.0010
 Zerner damping         CNVZerner       .... off
 Static damping         CNVDamp         .... on
   Fraction old density DampFac         ....    0.7000
   Max. Damping (<1)    DampMax         ....    0.9800
   Min. Damping (>=0)   DampMin         ....    0.0000
   Turn off err/grad.   DampErr         ....    0.1000
 Fernandez-Rico         CNVRico         .... off

SCF Procedure:
 Maximum # iterations   MaxIter         ....   125
 SCF integral mode      SCFMode         .... Direct
   Integral package                     .... LIBINT
 Reset frequency        DirectResetFreq ....    20
 Integral Threshold     Thresh          ....  2.500e-11 Eh
 Primitive CutOff       TCut            ....  2.500e-12 Eh

Convergence Tolerance:
 Convergence Check Mode ConvCheckMode   .... Total+1el-Energy
 Convergence forced     ConvForced      .... 0
 Energy Change          TolE            ....  1.000e-08 Eh
 1-El. energy change                    ....  1.000e-05 Eh
 Orbital Gradient       TolG            ....  1.000e-05
 Orbital Rotation angle TolX            ....  1.000e-05
 DIIS Error             TolErr          ....  5.000e-07


Diagonalization of the overlap matrix:
Smallest eigenvalue                        ... 3.193e-03
Time for diagonalization                   ...    0.001 sec
Threshold for overlap eigenvalues          ... 1.000e-08
Number of eigenvalues below threshold      ... 0
Time for construction of square roots      ...    0.012 sec
Total time needed                          ...    0.013 sec

-------------------
DFT GRID GENERATION
-------------------

General Integration Accuracy     IntAcc      ...  4.670
Radial Grid Type                 RadialGrid  ... Gauss-Chebyshev
Angular Grid (max. acc.)         AngularGrid ... Lebedev-302
Angular grid pruning method      GridPruning ... 3 (G Style)
Weight generation scheme         WeightScheme... Becke
Basis function cutoff            BFCut       ...    1.0000e-11
Integration weight cutoff        WCut        ...    1.0000e-14
Grids for H and He will be reduced by one unit

# of grid points (after initial pruning)     ...  32688 (   0.0 sec)
# of grid points (after weights+screening)   ...  31804 (   0.0 sec)
nearest neighbour list constructed           ...    0.0 sec
Grid point re-assignment to atoms done       ...    0.0 sec
Grid point division into batches done        ...    0.2 sec
Reduced shell lists constructed in    0.2 sec

Total number of grid points                  ...    31804
Total number of batches                      ...      500
Average number of points per batch           ...       63
Average number of grid points per atom       ...     5301
Average number of shells per batch           ...    28.31 (83.25%)
Average number of basis functions per batch  ...    64.61 (87.31%)
Average number of large shells per batch     ...    25.20 (89.03%)
Average number of large basis fcns per batch ...    57.01 (88.24%)
Maximum spatial batch extension              ...   7.25, 11.59, 14.78 au
Average spatial batch extension              ...   0.25,  0.30,  0.33 au

Time for grid setup =    0.528 sec

------------------------------
INITIAL GUESS: MODEL POTENTIAL
------------------------------
Loading Hartree-Fock densities                     ... done
Calculating cut-offs                               ... done
Setting up the integral package                    ... done
Initializing the effective Hamiltonian             ... done
Starting the Coulomb interaction                   ... done (   0.0 sec)
Reading the grid                                   ... done
Mapping shells                                     ... done
Starting the XC term evaluation                    ... done (   0.1 sec)
  promolecular density results
     # of electrons  =     47.999024937
     EX              =    -65.837097757
     EC              =     -1.784530791
     EX+EC           =    -67.621628548
Transforming the Hamiltonian                       ... done (   0.0 sec)
Diagonalizing the Hamiltonian                      ... done (   0.0 sec)
Back transforming the eigenvectors                 ... done (   0.0 sec)
Now organizing SCF variables                       ... done
                      ------------------
                      INITIAL GUESS DONE (   0.8 sec)
                      ------------------
----------------------
INITIAL GUESS ORBITALS
----------------------
                      0         1         2         3         4         5   
                 -100.68725 -100.68722 -10.07213 -10.07162  -9.23140  -9.23138
                   2.00000   2.00000   2.00000   2.00000   2.00000   2.00000
                  --------  --------  --------  --------  --------  --------
  0C   1s        -0.000025 -0.000033  0.699454  0.698238 -0.000181 -0.000175
  0C   2s         0.000216  0.000241  0.029297  0.036274  0.000756  0.000815
  0C   3s        -0.001827 -0.001237 -0.012892 -0.030328 -0.004498 -0.003359
  0C   1pz        0.000021 -0.000028  0.001016 -0.001690  0.000078 -0.000020
  0C   1px        0.000142 -0.000039 -0.000041 -0.003536  0.000578  0.000119
  0C   1py       -0.000039 -0.000020  0.001405 -0.000635 -0.000166 -0.000084
  0C   2pz       -0.000484  0.000009  0.000460  0.002468 -0.001434 -0.000086
  0C   2px       -0.001656 -0.000864  0.000695  0.003955 -0.004427 -0.001738
  0C   2py        0.000121  0.000420  0.000299  0.001499  0.000134  0.000702
  0C   1dz2      -0.000040 -0.000063 -0.000216 -0.000442 -0.000228 -0.000265
  0C   1dxz      -0.000015  0.000019 -0.000146  0.001328  0.000035  0.000083
  0C   1dyz      -0.000014 -0.000125  0.001011  0.002452 -0.000009 -0.000282
  0C   1dx2y2     0.000041  0.000165 -0.000527 -0.000112  0.000283  0.000537
  0C   1dxy      -0.000065 -0.000063 -0.000453  0.000436 -0.000274 -0.000273
  1C   1s         0.000025 -0.000033  0.698971 -0.698722  0.000181 -0.000174
  1C   2s        -0.000216  0.000241  0.029272 -0.036294 -0.000759  0.000812
  1C   3s         0.001829 -0.001233 -0.012871  0.030337  0.004510 -0.003342
  1C   1pz        0.000021  0.000028 -0.001018 -0.001689  0.000078  0.000020
  1C   1px        0.000142  0.000039  0.000038 -0.003536  0.000578 -0.000117
  1C   1py       -0.000039  0.000020 -0.001405 -0.000635 -0.000166  0.000083
  1C   2pz       -0.000484 -0.000010 -0.000458  0.002468 -0.001434  0.000081
  1C   2px       -0.001657  0.000861 -0.000692  0.003956 -0.004433  0.001723
  1C   2py        0.000122 -0.000419 -0.000298  0.001499  0.000136 -0.000702
  1C   1dz2       0.000040 -0.000063 -0.000215  0.000442  0.000228 -0.000264
  1C   1dxz       0.000015  0.000019 -0.000147 -0.001328 -0.000036  0.000083
  1C   1dyz       0.000014 -0.000125  0.001010 -0.002453  0.000010 -0.000282
  1C   1dx2y2    -0.000042  0.000165 -0.000527  0.000112 -0.000285  0.000536
  1C   1dxy       0.000065 -0.000063 -0.000453 -0.000436  0.000275 -0.000272
  2Cl  1s         0.702299  0.703481 -0.000022 -0.000022  0.219823  0.220603
  2Cl  2s         0.015788  0.015771  0.000221  0.000219 -0.719720 -0.722342
  2Cl  3s        -0.007508 -0.007120 -0.000497 -0.000186 -0.038669 -0.037821
  2Cl  4s         0.005907  0.004816  0.001570  0.001509  0.019081  0.016130
  2Cl  1pz        0.000013  0.000006  0.000029  0.000005 -0.000106 -0.000117
  2Cl  1px        0.000080  0.000059  0.000120  0.000110 -0.001007 -0.001054
  2Cl  1py       -0.000020 -0.000020 -0.000017 -0.000046  0.000331  0.000337
  2Cl  2pz        0.000067  0.000030  0.000148 -0.000043  0.000191  0.000118
  2Cl  2px        0.000424  0.000288  0.000277  0.000109  0.001324  0.001009
  2Cl  2py       -0.000109 -0.000095  0.000072 -0.000110 -0.000364 -0.000314
  2Cl  3pz       -0.000210 -0.000104 -0.000462  0.000197 -0.000510 -0.000267
  2Cl  3px       -0.001628 -0.000966  0.000138  0.000784 -0.004116 -0.002346
  2Cl  3py        0.000482  0.000313 -0.000694 -0.000102  0.001246  0.000743
  2Cl  1dz2      -0.000109 -0.000052  0.000664  0.000785 -0.000159 -0.000017
  2Cl  1dxz       0.000046  0.000018 -0.000032 -0.000401  0.000066  0.000008
  2Cl  1dyz       0.000005 -0.000007 -0.000010 -0.000054  0.000025  0.000003
  2Cl  1dx2y2     0.000151  0.000075 -0.000749 -0.001129  0.000208  0.000023
  2Cl  1dxy      -0.000107 -0.000054  0.000860  0.000712 -0.000158 -0.000017
  3H   1s         0.000011  0.000200 -0.003384 -0.003540  0.000021  0.000617
  3H   2s         0.000376 -0.000340  0.004451  0.005488  0.001081 -0.000823
  3H   1pz        0.000051  0.000031  0.000622  0.001265  0.000114  0.000084
  3H   1px        0.000179  0.000082 -0.001018 -0.000694  0.000382  0.000148
  3H   1py       -0.000015  0.000004  0.001327  0.002052 -0.000025  0.000045
  4Cl  1s        -0.703476  0.702303 -0.000022  0.000022 -0.220592  0.219834
  4Cl  2s        -0.015815  0.015744  0.000221 -0.000219  0.722241 -0.719822
  4Cl  3s         0.007519 -0.007107 -0.000497  0.000186  0.038801 -0.037685
  4Cl  4s        -0.005915  0.004806  0.001570 -0.001510 -0.019137  0.016063
  4Cl  1pz        0.000013 -0.000006 -0.000029  0.000005 -0.000106  0.000117
  4Cl  1px        0.000080 -0.000059 -0.000120  0.000110 -0.001011  0.001050
  4Cl  1py       -0.000021  0.000020  0.000017 -0.000046  0.000332 -0.000336
  4Cl  2pz        0.000067 -0.000030 -0.000148 -0.000043  0.000192 -0.000118
  4Cl  2px        0.000425 -0.000287 -0.000276  0.000109  0.001328 -0.001004
  4Cl  2py       -0.000110  0.000095 -0.000072 -0.000110 -0.000365  0.000313
  4Cl  3pz       -0.000210  0.000104  0.000462  0.000196 -0.000510  0.000265
  4Cl  3px       -0.001630  0.000963 -0.000137  0.000784 -0.004124  0.002332
  4Cl  3py        0.000482 -0.000313  0.000694 -0.000102  0.001249 -0.000738
  4Cl  1dz2       0.000109 -0.000052  0.000663 -0.000786  0.000159 -0.000017
  4Cl  1dxz      -0.000046  0.000018 -0.000032  0.000401 -0.000066  0.000007
  4Cl  1dyz      -0.000005 -0.000007 -0.000010  0.000054 -0.000025  0.000003
  4Cl  1dx2y2    -0.000152  0.000075 -0.000748  0.001130 -0.000208  0.000022
  4Cl  1dxy       0.000107 -0.000054  0.000860 -0.000712  0.000158 -0.000016
  5H   1s        -0.000012  0.000200 -0.003382  0.003543 -0.000023  0.000617
  5H   2s        -0.000376 -0.000340  0.004447 -0.005491 -0.001078 -0.000827
  5H   1pz        0.000051 -0.000031 -0.000621  0.001266  0.000115 -0.000084
  5H   1px        0.000180 -0.000081  0.001017 -0.000695  0.000383 -0.000147
  5H   1py       -0.000015 -0.000004 -0.001325  0.002053 -0.000024 -0.000045
                      6         7         8         9        10        11   
                  -7.04853  -7.04852  -7.04675  -7.04675  -7.04673  -7.04673
                   2.00000   2.00000   2.00000   2.00000   2.00000   2.00000
                  --------  --------  --------  --------  --------  --------
  0C   1s         0.000070  0.000085  0.000030 -0.000019 -0.000000  0.000000
  0C   2s         0.000074 -0.000185 -0.000373  0.000166  0.000004 -0.000006
  0C   3s         0.003275  0.003225 -0.001755  0.003245  0.000069 -0.000026
  0C   1pz       -0.000075  0.000066  0.000140  0.000016  0.000115  0.000060
  0C   1px       -0.000378  0.000026  0.000313 -0.000096 -0.000042 -0.000015
  0C   1py        0.000076  0.000078  0.000046  0.000073 -0.000083 -0.000042
  0C   2pz        0.000941  0.000195 -0.000967 -0.001478 -0.000645 -0.001116
  0C   2px        0.003391  0.001623 -0.002715 -0.000565  0.000202  0.000337
  0C   2py       -0.000317 -0.000500 -0.000077 -0.001778  0.000414  0.000805
  0C   1dz2       0.000334  0.000342  0.000003  0.000004 -0.000049  0.000059
  0C   1dxz      -0.000010 -0.000150  0.000095  0.000058 -0.000024 -0.000020
  0C   1dyz       0.000048  0.000340 -0.000032 -0.000021 -0.000002  0.000025
  0C   1dx2y2    -0.000406 -0.000709  0.000086  0.000053 -0.000003  0.000042
  0C   1dxy       0.000436  0.000316  0.000087  0.000053  0.000035 -0.000009
  1C   1s        -0.000071  0.000085  0.000029  0.000020  0.000000  0.000000
  1C   2s        -0.000073 -0.000185 -0.000370 -0.000174 -0.000003 -0.000006
  1C   3s        -0.003297  0.003202 -0.001687 -0.003280 -0.000068 -0.000028
  1C   1pz       -0.000075 -0.000067 -0.000141  0.000013  0.000117 -0.000058
  1C   1px       -0.000378 -0.000029 -0.000310 -0.000103 -0.000042  0.000014
  1C   1py        0.000076 -0.000078 -0.000048  0.000072 -0.000084  0.000040
  1C   2pz        0.000942 -0.000188  0.000997 -0.001457 -0.000669  0.001101
  1C   2px        0.003402 -0.001599  0.002726 -0.000509  0.000210 -0.000333
  1C   2py       -0.000321  0.000497  0.000113 -0.001776  0.000432 -0.000796
  1C   1dz2      -0.000336  0.000340  0.000003 -0.000004  0.000048  0.000060
  1C   1dxz       0.000011 -0.000150  0.000096 -0.000056  0.000025 -0.000019
  1C   1dyz      -0.000051  0.000339 -0.000032  0.000020  0.000001  0.000025
  1C   1dx2y2     0.000411 -0.000706  0.000088 -0.000051  0.000002  0.000042
  1C   1dxy      -0.000438  0.000313  0.000088 -0.000052 -0.000034 -0.000010
  2Cl  1s         0.000494  0.000488  0.000000  0.000004  0.000000  0.000000
  2Cl  2s        -0.001947 -0.001875  0.000004 -0.000031 -0.000001 -0.000000
  2Cl  3s         0.002712  0.001987 -0.000250  0.000270  0.000006 -0.000004
  2Cl  4s        -0.005661 -0.003614  0.001800 -0.000803 -0.000018  0.000028
  2Cl  1pz        0.073902  0.073329  0.417563  0.423383  0.541203  0.550987
  2Cl  1px        0.654355  0.658618  0.123020  0.124825 -0.181667 -0.186264
  2Cl  1py       -0.207777 -0.210567  0.530080  0.543690 -0.379632 -0.390722
  2Cl  2pz       -0.004084 -0.003985 -0.022330 -0.022629 -0.028851 -0.029351
  2Cl  2px       -0.035908 -0.035896 -0.006513 -0.006746  0.009682  0.009922
  2Cl  2py        0.011364  0.011492 -0.028375 -0.029021  0.020236  0.020811
  2Cl  3pz        0.000986  0.000760  0.003586  0.003744  0.004482  0.004568
  2Cl  3px        0.008381  0.007184  0.000105  0.001519 -0.001492 -0.001558
  2Cl  3py       -0.002608 -0.002351  0.004995  0.004597 -0.003139 -0.003228
  2Cl  1dz2       0.000027 -0.000071 -0.000067  0.000023 -0.000002  0.000015
  2Cl  1dxz      -0.000020  0.000034 -0.000033 -0.000040  0.000022  0.000007
  2Cl  1dyz      -0.000028 -0.000004 -0.000032  0.000015 -0.000011  0.000000
  2Cl  1dx2y2    -0.000026  0.000106  0.000070 -0.000064 -0.000018  0.000003
  2Cl  1dxy       0.000020 -0.000066 -0.000115 -0.000003 -0.000012 -0.000013
  3H   1s        -0.000071 -0.000494 -0.000022  0.000617  0.000013 -0.000000
  3H   2s        -0.000422  0.000043  0.000594 -0.000390 -0.000008  0.000009
  3H   1pz       -0.000115 -0.000006  0.000021  0.000038  0.000092  0.000132
  3H   1px       -0.000352 -0.000222  0.000190 -0.000035 -0.000032 -0.000043
  3H   1py        0.000009  0.000097 -0.000056  0.000073 -0.000065 -0.000098
  4Cl  1s        -0.000498  0.000484  0.000000 -0.000004 -0.000000  0.000000
  4Cl  2s         0.001960 -0.001862  0.000004  0.000031  0.000001 -0.000000
  4Cl  3s        -0.002725  0.001968 -0.000244 -0.000276 -0.000006 -0.000004
  4Cl  4s         0.005686 -0.003575  0.001783  0.000840  0.000017  0.000028
  4Cl  1pz        0.074391 -0.072801 -0.426256  0.414604  0.553072 -0.539097
  4Cl  1px        0.658883 -0.654080 -0.125611  0.122276 -0.185676  0.182261
  4Cl  1py       -0.209245  0.209147 -0.541249  0.532579 -0.388038  0.382345
  4Cl  2pz       -0.004110  0.003956  0.022795 -0.022160 -0.029483  0.028717
  4Cl  2px       -0.036155  0.035647  0.006653 -0.006611  0.009895 -0.009709
  4Cl  2py        0.011444 -0.011414  0.028971 -0.028426  0.020684 -0.020364
  4Cl  3pz        0.000991 -0.000753 -0.003663  0.003669  0.004581 -0.004470
  4Cl  3px        0.008430 -0.007126 -0.000137  0.001517 -0.001526  0.001525
  4Cl  3py       -0.002624  0.002334 -0.005090  0.004493 -0.003208  0.003159
  4Cl  1dz2      -0.000026 -0.000071 -0.000066 -0.000024  0.000002  0.000015
  4Cl  1dxz       0.000019  0.000034 -0.000033  0.000039 -0.000022  0.000007
  4Cl  1dyz       0.000028 -0.000004 -0.000032 -0.000016  0.000011  0.000000
  4Cl  1dx2y2     0.000025  0.000106  0.000068  0.000066  0.000018  0.000003
  4Cl  1dxy      -0.000020 -0.000066 -0.000115  0.000001  0.000012 -0.000012
  5H   1s         0.000074 -0.000494 -0.000009 -0.000617 -0.000013 -0.000000
  5H   2s         0.000422  0.000045  0.000585  0.000402  0.000008  0.000009
  5H   1pz       -0.000115  0.000005 -0.000022  0.000038  0.000095 -0.000130
  5H   1px       -0.000353  0.000220 -0.000189 -0.000039 -0.000033  0.000042
  5H   1py        0.000009 -0.000097  0.000054  0.000074 -0.000067  0.000096
                     12        13        14        15        16        17   
                  -0.87310  -0.82044  -0.73902  -0.60156  -0.49556  -0.49162
                   2.00000   2.00000   2.00000   2.00000   2.00000   2.00000
                  --------  --------  --------  --------  --------  --------
  0C   1s         0.165284  0.063003  0.124511  0.134200  0.018418  0.058730
  0C   2s        -0.335387 -0.134529 -0.260195 -0.296256 -0.036355 -0.138337
  0C   3s        -0.051409 -0.009466 -0.055761 -0.076149 -0.058164 -0.061675
  0C   1pz        0.054282 -0.019425  0.092357 -0.124067 -0.245088  0.024633
  0C   1px        0.031329 -0.101137  0.165967  0.043245 -0.166419 -0.236225
  0C   1py        0.059205  0.021218  0.047607 -0.189476 -0.255543  0.144963
  0C   2pz        0.013869 -0.004481  0.019378 -0.042468 -0.061565  0.019212
  0C   2px       -0.010191 -0.019857  0.012400  0.011381 -0.082821 -0.073204
  0C   2py        0.023707  0.003257  0.020562 -0.063243 -0.044846  0.060703
  0C   1dz2       0.005056  0.004499 -0.002149  0.004469  0.002445  0.002058
  0C   1dxz      -0.009582  0.000620 -0.007276  0.001947  0.007338  0.003300
  0C   1dyz      -0.007312 -0.000629 -0.009010  0.002173 -0.001225 -0.004615
  0C   1dx2y2    -0.007979 -0.004087  0.002780 -0.004881  0.003573  0.003185
  0C   1dxy      -0.001074  0.006563 -0.008677  0.007536  0.009538  0.005736
  1C   1s         0.165285 -0.063000  0.124509 -0.134204  0.018413 -0.058729
  1C   2s        -0.335389  0.134523 -0.260192  0.296264 -0.036342  0.138334
  1C   3s        -0.051412  0.009464 -0.055763  0.076154 -0.058169  0.061677
  1C   1pz       -0.054284 -0.019423 -0.092357 -0.124067  0.245090  0.024612
  1C   1px       -0.031324 -0.101134 -0.165968  0.043242  0.166402 -0.236238
  1C   1py       -0.059210  0.021219 -0.047607 -0.189475  0.255553  0.144939
  1C   2pz       -0.013871 -0.004481 -0.019379 -0.042468  0.061562  0.019206
  1C   2px        0.010190 -0.019856 -0.012402  0.011376  0.082813 -0.073210
  1C   2py       -0.023709  0.003257 -0.020563 -0.063241  0.044847  0.060698
  1C   1dz2       0.005056 -0.004499 -0.002149 -0.004469  0.002444 -0.002059
  1C   1dxz      -0.009582 -0.000621 -0.007276 -0.001947  0.007337 -0.003302
  1C   1dyz      -0.007312  0.000629 -0.009010 -0.002173 -0.001225  0.004616
  1C   1dx2y2    -0.007979  0.004087  0.002780  0.004881  0.003573 -0.003186
  1C   1dxy      -0.001074 -0.006564 -0.008678 -0.007536  0.009538 -0.005738
  2Cl  1s        -0.037398 -0.057079  0.048611  0.013544  0.010199  0.022833
  2Cl  2s         0.232316  0.356281 -0.305580 -0.086001 -0.065217 -0.146058
  2Cl  3s        -0.312883 -0.487295  0.425281  0.121824  0.088554  0.201742
  2Cl  4s        -0.139855 -0.229765  0.220434  0.064856  0.099024  0.174388
  2Cl  1pz        0.005265  0.003205  0.004172 -0.010307 -0.018718  0.025700
  2Cl  1px        0.032410  0.030895  0.005457  0.024967  0.045605  0.133179
  2Cl  1py       -0.008108 -0.010201  0.003113 -0.025820 -0.047015 -0.027774
  2Cl  2pz        0.008233  0.005381  0.006369 -0.016571 -0.031861  0.043731
  2Cl  2px        0.051704  0.051509  0.006220  0.041651  0.078976  0.229198
  2Cl  2py       -0.013161 -0.016956  0.005747 -0.042224 -0.080662 -0.048479
  2Cl  3pz        0.006701  0.004134  0.005796 -0.018838 -0.036051  0.045424
  2Cl  3px        0.041182  0.041188  0.005770  0.043729  0.062639  0.223404
  2Cl  3py       -0.010286 -0.013789  0.005178 -0.046294 -0.078670 -0.043440
  2Cl  1dz2       0.008518  0.008609 -0.000660  0.006860  0.008015  0.015350
  2Cl  1dxz      -0.004950 -0.002793 -0.003196  0.006738  0.010007 -0.010541
  2Cl  1dyz       0.000491  0.000806 -0.000314  0.000045 -0.002853  0.001834
  2Cl  1dx2y2    -0.013396 -0.012092 -0.001453 -0.002563  0.000481 -0.025964
  2Cl  1dxy       0.007165  0.009104 -0.003579  0.014879  0.019311  0.011500
  3H   1s        -0.073287 -0.022822 -0.073232 -0.256256 -0.242148  0.074538
  3H   2s        -0.014732 -0.006084 -0.013015 -0.029968 -0.065235 -0.001711
  3H   1pz        0.006527  0.000724  0.006482  0.009962  0.003389 -0.004409
  3H   1px       -0.001831 -0.003000  0.000289 -0.006558 -0.009627 -0.004974
  3H   1py        0.009759  0.002401  0.008697  0.016669  0.009158 -0.003664
  4Cl  1s        -0.037400  0.057077  0.048612 -0.013543  0.010196 -0.022833
  4Cl  2s         0.232327 -0.356269 -0.305587  0.085999 -0.065202  0.146063
  4Cl  3s        -0.312897  0.487278  0.425292 -0.121821  0.088534 -0.201751
  4Cl  4s        -0.139862  0.229757  0.220438 -0.064858  0.099006 -0.174396
  4Cl  1pz       -0.005264  0.003204 -0.004173 -0.010308  0.018722  0.025695
  4Cl  1px       -0.032411  0.030894 -0.005458  0.024966 -0.045589  0.133182
  4Cl  1py        0.008109 -0.010201 -0.003113 -0.025821  0.047013 -0.027783
  4Cl  2pz       -0.008232  0.005379 -0.006369 -0.016573  0.031867  0.043722
  4Cl  2px       -0.051706  0.051507 -0.006220  0.041649 -0.078949  0.229204
  4Cl  2py        0.013163 -0.016957 -0.005747 -0.042226  0.080658 -0.048494
  4Cl  3pz       -0.006701  0.004133 -0.005797 -0.018841  0.036056  0.045415
  4Cl  3px       -0.041184  0.041187 -0.005771  0.043725 -0.062614  0.223410
  4Cl  3py        0.010288 -0.013790 -0.005179 -0.046296  0.078665 -0.043454
  4Cl  1dz2       0.008518 -0.008609 -0.000660 -0.006860  0.008013 -0.015351
  4Cl  1dxz      -0.004950  0.002792 -0.003197 -0.006739  0.010008  0.010538
  4Cl  1dyz       0.000491 -0.000806 -0.000314 -0.000045 -0.002854 -0.001834
  4Cl  1dx2y2    -0.013397  0.012092 -0.001454  0.002562  0.000485  0.025964
  4Cl  1dxy       0.007166 -0.009104 -0.003579 -0.014880  0.019310 -0.011504
  5H   1s        -0.073284  0.022821 -0.073229  0.256256 -0.242156 -0.074514
  5H   2s        -0.014732  0.006084 -0.013015  0.029969 -0.065235  0.001717
  5H   1pz       -0.006527  0.000724 -0.006481  0.009962 -0.003390 -0.004409
  5H   1px        0.001831 -0.003000 -0.000290 -0.006557  0.009626 -0.004975
  5H   1py       -0.009759  0.002401 -0.008696  0.016669 -0.009159 -0.003663
                     18        19        20        21        22        23   
                  -0.41533  -0.40033  -0.34262  -0.32250  -0.32138  -0.27717
                   2.00000   2.00000   2.00000   2.00000   2.00000   2.00000
                  --------  --------  --------  --------  --------  --------
  0C   1s         0.004442 -0.000000 -0.000000 -0.026476  0.020632  0.000000
  0C   2s        -0.016922 -0.000000  0.000001  0.065614 -0.060869 -0.000001
  0C   3s        -0.014784 -0.000003 -0.000001  0.127205 -0.056201  0.000016
  0C   1pz        0.032820 -0.268484 -0.092490  0.007307  0.065695  0.234848
  0C   1px       -0.228350  0.092897  0.032000 -0.044854  0.050646 -0.081258
  0C   1py        0.152406  0.197003  0.067866  0.031109  0.065649 -0.172323
  0C   2pz        0.004676 -0.135455 -0.072429 -0.027349 -0.004414  0.128712
  0C   2px       -0.055949  0.046870  0.025061 -0.037005 -0.036899 -0.044545
  0C   2py        0.032750  0.099402  0.053145 -0.019824  0.011386 -0.094460
  0C   1dz2       0.007750  0.013433 -0.004321 -0.001176 -0.003356 -0.015682
  0C   1dxz      -0.005141  0.001747 -0.010698 -0.010406 -0.011213 -0.012750
  0C   1dyz       0.010180  0.002790  0.003883  0.001382  0.002169  0.001794
  0C   1dx2y2    -0.018971  0.004690  0.005506 -0.007360 -0.006071  0.001938
  0C   1dxy       0.005586 -0.006185  0.007774 -0.010451 -0.014081  0.013333
  1C   1s         0.004442  0.000000 -0.000000  0.026472  0.020634 -0.000000
  1C   2s        -0.016921  0.000000  0.000001 -0.065605 -0.060875  0.000001
  1C   3s        -0.014781  0.000003 -0.000001 -0.127195 -0.056221 -0.000016
  1C   1pz       -0.032823 -0.268484  0.092489  0.007313 -0.065695  0.234848
  1C   1px        0.228351  0.092897 -0.032000 -0.044844 -0.050652 -0.081258
  1C   1py       -0.152409  0.197003 -0.067865  0.031112 -0.065647 -0.172322
  1C   2pz       -0.004676 -0.135455  0.072429 -0.027351  0.004407  0.128712
  1C   2px        0.055951  0.046869 -0.025061 -0.037010  0.036892 -0.044545
  1C   2py       -0.032751  0.099402 -0.053145 -0.019824 -0.011392 -0.094460
  1C   1dz2       0.007750 -0.013433 -0.004320  0.001177 -0.003356  0.015682
  1C   1dxz      -0.005140 -0.001746 -0.010698  0.010407 -0.011212  0.012750
  1C   1dyz       0.010180 -0.002790  0.003883 -0.001382  0.002170 -0.001794
  1C   1dx2y2    -0.018971 -0.004690  0.005506  0.007361 -0.006071 -0.001938
  1C   1dxy       0.005587  0.006185  0.007773  0.010453 -0.014079 -0.013333
  2Cl  1s         0.009917 -0.000000 -0.000000  0.000043 -0.000282 -0.000000
  2Cl  2s        -0.063225  0.000000  0.000000 -0.000268  0.001927  0.000000
  2Cl  3s         0.077979 -0.000000 -0.000001  0.000896 -0.008024 -0.000001
  2Cl  4s         0.094897  0.000002  0.000001 -0.005137  0.031944  0.000002
  2Cl  1pz        0.019262 -0.090791 -0.150221 -0.122975 -0.124500 -0.131686
  2Cl  1px        0.150455  0.031414  0.051977 -0.018441 -0.050693  0.045564
  2Cl  1py       -0.044695  0.066620  0.110226 -0.158898 -0.145770  0.096627
  2Cl  2pz        0.033958 -0.157029 -0.261090 -0.214754 -0.217106 -0.230799
  2Cl  2px        0.264364  0.054332  0.090338 -0.031973 -0.087629  0.079858
  2Cl  2py       -0.078382  0.115223  0.191578 -0.277596 -0.254560  0.169353
  2Cl  3pz        0.036222 -0.180667 -0.326828 -0.271900 -0.279169 -0.313770
  2Cl  3px        0.283861  0.062509  0.113084 -0.038754 -0.130731  0.108565
  2Cl  3py       -0.084489  0.132567  0.239814 -0.352279 -0.318817  0.230237
  2Cl  1dz2       0.014104  0.005352  0.002205  0.001635 -0.000202 -0.003788
  2Cl  1dxz      -0.006491  0.020368  0.013926  0.005142  0.004223 -0.010999
  2Cl  1dyz       0.004147 -0.008165 -0.005973 -0.001339  0.000068  0.004167
  2Cl  1dx2y2    -0.023070 -0.011744 -0.008668  0.002901  0.003328  0.005948
  2Cl  1dxy       0.013176 -0.013689 -0.008798  0.006600  0.003309  0.007739
  3H   1s         0.192863 -0.000002  0.000001  0.086730  0.082434  0.000001
  3H   2s         0.078965 -0.000007 -0.000001 -0.000716  0.067125  0.000006
  3H   1pz       -0.005719 -0.008031 -0.002124 -0.000815 -0.001071  0.007960
  3H   1px       -0.001321  0.002779  0.000735  0.001518 -0.002183 -0.002754
  3H   1py       -0.007170  0.005894  0.001558 -0.001825 -0.000430 -0.005841
  4Cl  1s         0.009917  0.000000 -0.000000 -0.000043 -0.000282  0.000000
  4Cl  2s        -0.063225 -0.000000  0.000000  0.000269  0.001927 -0.000000
  4Cl  3s         0.077978  0.000000 -0.000001 -0.000897 -0.008025  0.000001
  4Cl  4s         0.094898 -0.000002  0.000001  0.005134  0.031944 -0.000002
  4Cl  1pz       -0.019256 -0.090793  0.150219 -0.122992  0.124485 -0.131688
  4Cl  1px       -0.150455  0.031414 -0.051976 -0.018458  0.050697  0.045564
  4Cl  1py        0.044704  0.066621 -0.110225 -0.158914  0.145748  0.096628
  4Cl  2pz       -0.033947 -0.157032  0.261087 -0.214784  0.217080 -0.230802
  4Cl  2px       -0.264364  0.054333 -0.090337 -0.032004  0.087637  0.079858
  4Cl  2py        0.078396  0.115225 -0.191575 -0.277622  0.254521  0.169355
  4Cl  3pz       -0.036210 -0.180670  0.326824 -0.271938  0.279135 -0.313773
  4Cl  3px       -0.283860  0.062510 -0.113082 -0.038795  0.130741  0.108566
  4Cl  3py        0.084505  0.132569 -0.239811 -0.352311  0.318767  0.230239
  4Cl  1dz2       0.014104 -0.005351  0.002205 -0.001635 -0.000202  0.003788
  4Cl  1dxz      -0.006489 -0.020369  0.013926 -0.005143  0.004222  0.010999
  4Cl  1dyz       0.004147  0.008165 -0.005973  0.001340  0.000068 -0.004167
  4Cl  1dx2y2    -0.023069  0.011745 -0.008668 -0.002902  0.003328 -0.005948
  4Cl  1dxy       0.013179  0.013689 -0.008798 -0.006600  0.003308 -0.007739
  5H   1s         0.192862  0.000002  0.000001 -0.086734  0.082425 -0.000001
  5H   2s         0.078963  0.000007 -0.000001  0.000707  0.067124 -0.000006
  5H   1pz        0.005719 -0.008031  0.002124 -0.000815  0.001071  0.007960
  5H   1px        0.001322  0.002779 -0.000735  0.001517  0.002182 -0.002754
  5H   1py        0.007170  0.005894 -0.001558 -0.001825  0.000430 -0.005841
                     24        25        26        27        28        29   
                  -0.10775  -0.07025  -0.01795   0.03525   0.09701   0.19271
                   0.00000   0.00000   0.00000   0.00000   0.00000   0.00000
                  --------  --------  --------  --------  --------  --------
  0C   1s         0.000001 -0.094116 -0.108171 -0.105106 -0.020700  0.105043
  0C   2s        -0.000003  0.260283  0.305591  0.272936  0.082691 -0.311259
  0C   3s        -0.000014  0.345949  0.849208  1.121686  0.536190 -4.431216
  0C   1pz        0.380253 -0.005666  0.115423  0.096418  0.087321  0.171096
  0C   1px       -0.131569  0.299908  0.304400 -0.049029 -0.264879  0.111532
  0C   1py       -0.279016 -0.149138  0.013755  0.154508  0.243899  0.180569
  0C   2pz        0.419852 -0.015429  0.185648  0.213132  0.322607  1.725263
  0C   2px       -0.145275  0.329211  0.429550 -0.167799 -0.791865  1.872148
  0C   2py       -0.308081 -0.176268  0.050453  0.369599  0.813064  1.468472
  0C   1dz2       0.018851  0.013822  0.007671 -0.001814 -0.002943  0.011907
  0C   1dxz       0.003702 -0.011728  0.003397  0.005086  0.000072  0.026893
  0C   1dyz       0.003325  0.016734 -0.012131 -0.019311  0.009413  0.019636
  0C   1dx2y2     0.005716 -0.034824  0.001945  0.018308 -0.002803 -0.005790
  0C   1dxy      -0.009393  0.007850  0.013621  0.002669 -0.004253  0.037926
  1C   1s         0.000001  0.094118 -0.108168  0.105107 -0.020702 -0.105041
  1C   2s        -0.000003 -0.260291  0.305583 -0.272937  0.082697  0.311240
  1C   3s        -0.000014 -0.345956  0.849219 -1.121699  0.536206  4.431228
  1C   1pz       -0.380253 -0.005671 -0.115422  0.096422 -0.087314  0.171094
  1C   1px        0.131569  0.299903 -0.304401 -0.049033  0.264888  0.111524
  1C   1py        0.279017 -0.149143 -0.013752  0.154515 -0.243894  0.180570
  1C   2pz       -0.419853 -0.015431 -0.185638  0.213145 -0.322585  1.725276
  1C   2px        0.145275  0.329207 -0.429549 -0.167798  0.791882  1.872100
  1C   2py        0.308081 -0.176268 -0.050441  0.369616 -0.813041  1.468513
  1C   1dz2       0.018851 -0.013822  0.007671  0.001814 -0.002944 -0.011907
  1C   1dxz       0.003702  0.011727  0.003398 -0.005086  0.000070 -0.026894
  1C   1dyz       0.003325 -0.016734 -0.012132  0.019312  0.009412 -0.019637
  1C   1dx2y2     0.005716  0.034823  0.001946 -0.018308 -0.002804  0.005789
  1C   1dxy      -0.009393 -0.007851  0.013621 -0.002669 -0.004255 -0.037926
  2Cl  1s         0.000000 -0.019113 -0.012365 -0.004621  0.014712 -0.008646
  2Cl  2s        -0.000000  0.127442  0.081267  0.031174 -0.100102  0.062751
  2Cl  3s        -0.000000 -0.192055 -0.075716 -0.055251  0.163423 -0.206866
  2Cl  4s         0.000005 -0.345919 -0.451016 -0.039024  0.444785  0.077473
  2Cl  1pz       -0.053737  0.025165 -0.009076  0.009345 -0.010742 -0.011057
  2Cl  1px        0.018592  0.150633  0.097482  0.022878 -0.050609 -0.000008
  2Cl  1py        0.039431 -0.036733 -0.058336  0.001947  0.009224 -0.015065
  2Cl  2pz       -0.094006  0.044450 -0.018691  0.021713 -0.015490 -0.008388
  2Cl  2px        0.032524  0.263508  0.160103  0.040050 -0.075023  0.010775
  2Cl  2py        0.068979 -0.063676 -0.100967  0.010705  0.014266 -0.016510
  2Cl  3pz       -0.178277  0.090496 -0.008832 -0.002170 -0.095039 -0.171364
  2Cl  3px        0.061680  0.577176  0.502096  0.082918 -0.449588 -0.005027
  2Cl  3py        0.130817 -0.148831 -0.248795 -0.042058  0.082478 -0.231175
  2Cl  1dz2      -0.001137 -0.036386 -0.047215 -0.013152  0.025920  0.002069
  2Cl  1dxz      -0.041047  0.022868 -0.008632 -0.008278 -0.023463 -0.062437
  2Cl  1dyz       0.019050 -0.002832 -0.014748 -0.000574 -0.005088  0.075429
  2Cl  1dx2y2     0.027905  0.058985  0.055148  0.008692 -0.042764 -0.097737
  2Cl  1dxy       0.023861 -0.029117 -0.069818 -0.024572  0.014948 -0.053227
  3H   1s         0.000002  0.038106 -0.140999 -0.205924  0.017051 -0.017866
  3H   2s         0.000013  0.146163 -0.635467 -1.386750 -1.510402 -0.168881
  3H   1pz        0.019991  0.005823  0.002221 -0.011330 -0.009925  0.011058
  3H   1px       -0.006916  0.009245  0.015917  0.003369 -0.000355  0.025416
  3H   1py       -0.014669  0.003577 -0.004479 -0.017028 -0.013356  0.003083
  4Cl  1s         0.000000  0.019113 -0.012364  0.004621  0.014713  0.008646
  4Cl  2s        -0.000000 -0.127442  0.081263 -0.031175 -0.100108 -0.062748
  4Cl  3s        -0.000001  0.192054 -0.075710  0.055256  0.163435  0.206868
  4Cl  4s         0.000005  0.345921 -0.451010  0.039017  0.444798 -0.077541
  4Cl  1pz        0.053737  0.025161  0.009081  0.009345  0.010741 -0.011057
  4Cl  1px       -0.018592  0.150634 -0.097477  0.022877  0.050611 -0.000010
  4Cl  1py       -0.039430 -0.036739  0.058340  0.001947 -0.009227 -0.015063
  4Cl  2pz        0.094005  0.044443  0.018700  0.021713  0.015489 -0.008386
  4Cl  2px       -0.032524  0.263508 -0.160095  0.040049  0.075026  0.010774
  4Cl  2py       -0.068978 -0.063686  0.100974  0.010707 -0.014269 -0.016508
  4Cl  3pz        0.178275  0.090481  0.008853 -0.002170  0.095026 -0.171366
  4Cl  3px       -0.061680  0.577176 -0.502077  0.082910  0.449601 -0.005080
  4Cl  3py       -0.130816 -0.148852  0.248815 -0.042055 -0.082502 -0.231153
  4Cl  1dz2      -0.001135  0.036387 -0.047215  0.013151  0.025923 -0.002075
  4Cl  1dxz      -0.041046 -0.022865 -0.008638  0.008279 -0.023458  0.062431
  4Cl  1dyz       0.019050  0.002832 -0.014747  0.000572 -0.005090 -0.075436
  4Cl  1dx2y2     0.027906 -0.058984  0.055142 -0.008687 -0.042761  0.097743
  4Cl  1dxy       0.023860  0.029122 -0.069823  0.024571  0.014955  0.053213
  5H   1s         0.000002 -0.038103 -0.140999  0.205928  0.017058  0.017851
  5H   2s         0.000013 -0.146143 -0.635468  1.386773 -1.510359  0.168967
  5H   1pz       -0.019991  0.005823 -0.002220 -0.011330  0.009925  0.011057
  5H   1px        0.006916  0.009245 -0.015917  0.003368  0.000356  0.025416
  5H   1py        0.014669  0.003577  0.004479 -0.017028  0.013355  0.003082
                     30        31        32        33        34        35   
                   0.28488   0.31125   0.33727   0.38231   0.38436   0.46109
                   0.00000   0.00000   0.00000   0.00000   0.00000   0.00000
                  --------  --------  --------  --------  --------  --------
  0C   1s         0.106200 -0.034498 -0.035797  0.006520  0.000001  0.000004
  0C   2s        -0.912115  0.248866  0.305160 -0.398885 -0.000133 -0.000031
  0C   3s         1.116179 -1.020733 -1.407525  2.821741  0.000984  0.000068
  0C   1pz        0.160990  0.122660  0.073399 -0.087039 -0.508671  0.535537
  0C   1px        0.066938  0.393037  0.306671 -0.200584  0.175928 -0.185296
  0C   1py        0.187835 -0.018151 -0.044616 -0.024472  0.373228 -0.392959
  0C   2pz       -0.192276 -0.394075  0.347542 -0.451051  0.495695 -0.920560
  0C   2px       -0.285560 -1.161622 -0.065343 -0.497894 -0.171757  0.318564
  0C   2py       -0.127376  0.010664  0.504494 -0.379505 -0.363981  0.675441
  0C   1dz2       0.018721 -0.030114 -0.015198  0.019440  0.042629  0.000841
  0C   1dxz      -0.037373 -0.025395  0.043352  0.007799  0.020269 -0.001958
  0C   1dyz      -0.048149  0.017684 -0.026796 -0.073118  0.001881  0.001149
  0C   1dx2y2    -0.017298  0.002780  0.066447  0.031771  0.004709  0.001724
  0C   1dxy      -0.004731 -0.062491  0.017535  0.035582 -0.028007  0.000790
  1C   1s         0.106198 -0.034503  0.035805 -0.006515 -0.000001  0.000004
  1C   2s        -0.912098  0.248903 -0.305245  0.398853  0.000133 -0.000031
  1C   3s         1.116028 -1.020941  1.407601 -2.821668 -0.000984  0.000069
  1C   1pz       -0.160998 -0.122661  0.073377 -0.087027 -0.508669 -0.535541
  1C   1px       -0.066973 -0.393058  0.306643 -0.200589  0.175927  0.185297
  1C   1py       -0.187829  0.018160 -0.044633 -0.024453  0.373226  0.392962
  1C   2pz        0.192229  0.394014  0.347581 -0.451099  0.495690  0.920565
  1C   2px        0.285529  1.161597 -0.065250 -0.497800 -0.171755 -0.318565
  1C   2py        0.127327 -0.010735  0.504503 -0.379615 -0.363978 -0.675444
  1C   1dz2       0.018720 -0.030114  0.015201 -0.019438 -0.042629  0.000841
  1C   1dxz      -0.037368 -0.025395 -0.043356 -0.007800 -0.020269 -0.001958
  1C   1dyz      -0.048152  0.017686  0.026791  0.073119 -0.001881  0.001148
  1C   1dx2y2    -0.017293  0.002778 -0.066450 -0.031775 -0.004709  0.001724
  1C   1dxy      -0.004727 -0.062491 -0.017535 -0.035580  0.028007  0.000790
  2Cl  1s        -0.017352  0.007012  0.022874 -0.024174 -0.000009  0.000003
  2Cl  2s         0.125972 -0.051615 -0.169244  0.178073  0.000065 -0.000025
  2Cl  3s        -0.405594  0.118934  0.600816 -0.611684 -0.000226  0.000106
  2Cl  4s         0.209693  0.607853 -0.246473  0.281744  0.000118 -0.000149
  2Cl  1pz        0.019060  0.033729 -0.024733 -0.027639 -0.032434  0.015645
  2Cl  1px        0.012882  0.024528 -0.000133 -0.013929  0.011213 -0.005409
  2Cl  1py        0.019902  0.034401 -0.033647 -0.031129  0.023778 -0.011479
  2Cl  2pz        0.039986  0.073381 -0.056141 -0.072291 -0.078705  0.029619
  2Cl  2px        0.031653  0.052981 -0.016788 -0.035966  0.027208 -0.010238
  2Cl  2py        0.039570  0.075023 -0.068599 -0.081631  0.057696 -0.021730
  2Cl  3pz        0.073026  0.052349 -0.080257  0.039304 -0.072747  0.137824
  2Cl  3px        0.092201 -0.327308 -0.110905  0.156450  0.025226 -0.047660
  2Cl  3py        0.056044  0.225690 -0.057087 -0.020268  0.053381 -0.101138
  2Cl  1dz2       0.054055 -0.072914 -0.119195  0.052081 -0.038781 -0.059997
  2Cl  1dxz       0.041866  0.157171 -0.078816 -0.107045 -0.077614  0.115461
  2Cl  1dyz      -0.022744 -0.008219  0.002206 -0.063915  0.026118 -0.070585
  2Cl  1dx2y2    -0.013596  0.202900  0.071123 -0.095827  0.036605 -0.106234
  2Cl  1dxy       0.108654  0.036173 -0.226211 -0.018662  0.059228 -0.042710
  3H   1s        -0.194754  0.293993 -0.443453 -0.635512 -0.000256  0.000004
  3H   2s        -0.400196  0.004983  0.316998  0.208537  0.000105  0.000008
  3H   1pz       -0.020779  0.002525 -0.015280 -0.015024  0.001997  0.001440
  3H   1px       -0.018064 -0.019888 -0.016968  0.009905 -0.000688 -0.000502
  3H   1py       -0.019802  0.012824 -0.012829 -0.025150 -0.001483 -0.001055
  4Cl  1s        -0.017351  0.007013 -0.022876  0.024171  0.000009  0.000003
  4Cl  2s         0.125965 -0.051621  0.169258 -0.178051 -0.000065 -0.000025
  4Cl  3s        -0.405563  0.118957 -0.600861  0.611600  0.000226  0.000106
  4Cl  4s         0.209662  0.607845  0.246518 -0.281619 -0.000118 -0.000149
  4Cl  1pz       -0.019056 -0.033729 -0.024737 -0.027639 -0.032434 -0.015644
  4Cl  1px       -0.012883 -0.024530 -0.000136 -0.013930  0.011213  0.005408
  4Cl  1py       -0.019896 -0.034400 -0.033650 -0.031128  0.023778  0.011478
  4Cl  2pz       -0.039975 -0.073381 -0.056147 -0.072290 -0.078706 -0.029617
  4Cl  2px       -0.031652 -0.052984 -0.016793 -0.035970  0.027208  0.010237
  4Cl  2py       -0.039555 -0.075021 -0.068605 -0.081628  0.057697  0.021728
  4Cl  3pz       -0.073020 -0.052358 -0.080267  0.039302 -0.072747 -0.137823
  4Cl  3px       -0.092216  0.327300 -0.110913  0.156478  0.025226  0.047659
  4Cl  3py       -0.056028 -0.225698 -0.057097 -0.020284  0.053382  0.101138
  4Cl  1dz2       0.054043 -0.072927  0.119194 -0.052079  0.038780 -0.060010
  4Cl  1dxz       0.041860  0.157165  0.078839  0.107047  0.077616  0.115454
  4Cl  1dyz      -0.022749 -0.008223 -0.002219  0.063916 -0.026118 -0.070585
  4Cl  1dx2y2    -0.013584  0.202912 -0.071097  0.095826 -0.036606 -0.106234
  4Cl  1dxy       0.108633  0.036151  0.226229  0.018666 -0.059228 -0.042702
  5H   1s        -0.194812  0.293983  0.443439  0.635504  0.000256  0.000004
  5H   2s        -0.400127  0.004995 -0.317037 -0.208646 -0.000105  0.000008
  5H   1pz        0.020781 -0.002524 -0.015278 -0.015026  0.001997 -0.001439
  5H   1px        0.018066  0.019889 -0.016964  0.009903 -0.000688  0.000501
  5H   1py        0.019803 -0.012823 -0.012827 -0.025151 -0.001483  0.001054
                     36        37        38        39        40        41   
                   0.47237   0.52985   0.53631   0.56173   0.59461   0.62549
                   0.00000   0.00000   0.00000   0.00000   0.00000   0.00000
                  --------  --------  --------  --------  --------  --------
  0C   1s         0.061763  0.128216 -0.109701 -0.073807 -0.074679  0.008374
  0C   2s        -0.515124 -0.845142  0.637905  0.731435  0.289720 -0.086302
  0C   3s         1.107497  3.711845 -1.622888 -3.730288 -2.533497  0.235264
  0C   1pz        0.001020 -0.110038  0.293737 -0.056606 -0.445732 -0.022750
  0C   1px       -0.057000  0.337963 -0.143220  0.091577 -0.337990  0.178887
  0C   1py        0.028351 -0.309322  0.467851 -0.120335 -0.448077 -0.115354
  0C   2pz       -0.090385 -0.226710 -0.673568  0.463340  1.326762  0.380612
  0C   2px        0.956649 -1.143288  0.645293  0.040670  1.146171 -1.339795
  0C   2py       -0.574427  0.230132 -1.222245  0.612287  1.267691  1.150489
  0C   1dz2       0.006825  0.003754  0.013338 -0.030440  0.007410  0.006641
  0C   1dxz      -0.015515 -0.000797  0.015059 -0.002480 -0.074122  0.020595
  0C   1dyz      -0.028878  0.061710 -0.050856 -0.000362 -0.031801 -0.009130
  0C   1dx2y2    -0.000376 -0.044729  0.029497  0.031926 -0.042840  0.013953
  0C   1dxy      -0.002870  0.001846  0.032648 -0.042766 -0.051670  0.026704
  1C   1s         0.061763 -0.128220 -0.109708  0.073800  0.074670  0.008387
  1C   2s        -0.515100  0.845164  0.637970 -0.731400 -0.289667 -0.086383
  1C   3s         1.107434 -3.711888 -1.623228  3.730154  2.533363  0.235491
  1C   1pz       -0.001043 -0.110044 -0.293726 -0.056627 -0.445746  0.022713
  1C   1px        0.056993  0.337957  0.143200  0.091589 -0.337987 -0.178918
  1C   1py       -0.028380 -0.309328 -0.467827 -0.120369 -0.448098  0.115317
  1C   2pz        0.090430 -0.226700  0.673505  0.463435  1.326832 -0.380575
  1C   2px       -0.956667 -1.143226 -0.645305  0.040548  1.146059  1.339818
  1C   2py        0.574495  0.230116  1.222165  0.612475  1.267840 -1.150449
  1C   1dz2       0.006824 -0.003755  0.013335  0.030441 -0.007409  0.006641
  1C   1dxz      -0.015513  0.000797  0.015055  0.002479  0.074121  0.020600
  1C   1dyz      -0.028874 -0.061711 -0.050852  0.000359  0.031801 -0.009129
  1C   1dx2y2    -0.000375  0.044729  0.029495 -0.031926  0.042839  0.013956
  1C   1dxy      -0.002870 -0.001846  0.032641  0.042768  0.051670  0.026709
  2Cl  1s         0.047209 -0.004600  0.006371 -0.034908  0.009730  0.005085
  2Cl  2s        -0.354826  0.035045 -0.047499  0.264166 -0.073507 -0.037430
  2Cl  3s         1.503114 -0.150833  0.196066 -1.169756  0.302871  0.063685
  2Cl  4s        -2.273762  0.207428 -0.386582  1.915423 -0.361093  0.660461
  2Cl  1pz        0.002097  0.006576  0.006084 -0.012391  0.021125  0.040776
  2Cl  1px        0.047162 -0.012804  0.002704 -0.111806  0.047685  0.060518
  2Cl  1py       -0.019377  0.014999  0.007016  0.035833  0.006307  0.027036
  2Cl  2pz        0.002004  0.025315  0.013753 -0.032532  0.070674  0.130439
  2Cl  2px        0.104748 -0.030559  0.007340 -0.319979  0.146457  0.197680
  2Cl  2py       -0.046650  0.048907  0.015281  0.106542  0.027263  0.084560
  2Cl  3pz        0.068062 -0.045422  0.078042 -0.071802 -0.153090 -0.178609
  2Cl  3px        0.476290 -0.050066  0.113851 -0.251282 -0.086759 -0.559749
  2Cl  3py       -0.131818 -0.038289  0.052672  0.020640 -0.167730  0.020526
  2Cl  1dz2      -0.017746  0.020953 -0.001530 -0.082744 -0.048280 -0.131399
  2Cl  1dxz      -0.001084 -0.161576  0.005686  0.024722  0.024667  0.020502
  2Cl  1dyz      -0.064117 -0.144934  0.060856  0.122405  0.316049  0.520332
  2Cl  1dx2y2     0.060320 -0.049655 -0.033524  0.030284 -0.133239 -0.177178
  2Cl  1dxy      -0.022040 -0.103149  0.000316 -0.094551 -0.056337 -0.179155
  3H   1s         0.006706  0.304499 -0.458967  0.098894  0.000359 -0.300741
  3H   2s         0.186162 -1.597672  1.859162  0.368739 -0.538872 -0.728915
  3H   1pz        0.004816  0.046871 -0.072701 -0.015947  0.001798 -0.001419
  3H   1px       -0.007824 -0.042265  0.018080 -0.054497 -0.055775 -0.018709
  3H   1py        0.010252  0.083816 -0.107615  0.003964  0.028749  0.006893
  4Cl  1s         0.047210  0.004598  0.006370  0.034908 -0.009731  0.005085
  4Cl  2s        -0.354832 -0.035035 -0.047492 -0.264165  0.073515 -0.037434
  4Cl  3s         1.503138  0.150789  0.196030  1.169759 -0.302905  0.063707
  4Cl  4s        -2.273796 -0.207350 -0.386501 -1.915492  0.361066  0.660411
  4Cl  1pz       -0.002098  0.006579 -0.006087 -0.012388  0.021126 -0.040769
  4Cl  1px       -0.047163 -0.012801 -0.002702 -0.111804  0.047689 -0.060522
  4Cl  1py        0.019376  0.015001 -0.007021  0.035836  0.006307 -0.027026
  4Cl  2pz       -0.002007  0.025323 -0.013764 -0.032523  0.070676 -0.130419
  4Cl  2px       -0.104748 -0.030551 -0.007337 -0.319971  0.146467 -0.197688
  4Cl  2py        0.046647  0.048914 -0.015297  0.106550  0.027262 -0.084530
  4Cl  3pz       -0.068051 -0.045426 -0.078024 -0.071810 -0.153100  0.178571
  4Cl  3px       -0.476295 -0.050055 -0.113823 -0.251323 -0.086801  0.559733
  4Cl  3py        0.131835 -0.038299 -0.052661  0.020649 -0.167723 -0.020569
  4Cl  1dz2      -0.017749 -0.020955 -0.001534  0.082750  0.048293 -0.131384
  4Cl  1dxz      -0.001083  0.161584  0.005690 -0.024710 -0.024689  0.020536
  4Cl  1dyz      -0.064113  0.144927  0.060879 -0.122418 -0.316088  0.520323
  4Cl  1dx2y2     0.060322  0.049669 -0.033533 -0.030274  0.133234 -0.177167
  4Cl  1dxy      -0.022044  0.103155  0.000314  0.094570  0.056338 -0.179109
  5H   1s         0.006734 -0.304516 -0.458931 -0.098890 -0.000340 -0.300764
  5H   2s         0.186193  1.597674  1.859140 -0.368556  0.539022 -0.728899
  5H   1pz       -0.004814  0.046872  0.072701 -0.015943  0.001802  0.001416
  5H   1px        0.007823 -0.042266 -0.018071 -0.054501 -0.055776  0.018700
  5H   1py       -0.010249  0.083817  0.107611  0.003971  0.028755 -0.006892
                     42        43        44        45        46        47   
                   0.63360   0.64274   0.65840   0.67614   0.67633   0.69505
                   0.00000   0.00000   0.00000   0.00000   0.00000   0.00000
                  --------  --------  --------  --------  --------  --------
  0C   1s        -0.000000 -0.000001 -0.000002 -0.000001  0.021615 -0.122779
  0C   2s         0.000006  0.000008  0.000013  0.000004 -0.095427  0.802220
  0C   3s        -0.000029 -0.000016 -0.000098 -0.000020 -0.037968 -2.696671
  0C   1pz        0.077259  0.031015 -0.029580  0.122255  0.027323  0.023047
  0C   1px       -0.026728 -0.010739  0.010224 -0.042295  0.019054  0.148656
  0C   1py       -0.056676 -0.022749  0.021691 -0.089703  0.028261 -0.038694
  0C   2pz       -0.110897 -0.179227  0.039989 -0.327895 -0.037390  0.035910
  0C   2px        0.038375  0.062076 -0.013793  0.113413 -0.327601 -0.200034
  0C   2py        0.081354  0.131434 -0.029291  0.240617  0.103501  0.143270
  0C   1dz2       0.029195 -0.028834  0.026290  0.000249 -0.021624  0.054182
  0C   1dxz       0.085407  0.076930 -0.014211  0.056057  0.024988 -0.021005
  0C   1dyz      -0.032419 -0.044032  0.013772 -0.026367 -0.032854  0.004128
  0C   1dx2y2    -0.046281 -0.065899  0.021377 -0.038679  0.063759 -0.078047
  0C   1dxy      -0.060010 -0.032762 -0.002047 -0.032081 -0.006379  0.054428
  1C   1s         0.000000 -0.000001  0.000002 -0.000001  0.021616  0.122772
  1C   2s        -0.000005  0.000008 -0.000013  0.000004 -0.095434 -0.802186
  1C   3s         0.000028 -0.000016  0.000098 -0.000021 -0.037885  2.696567
  1C   1pz        0.077257 -0.031016 -0.029581 -0.122251 -0.027349  0.023036
  1C   1px       -0.026727  0.010740  0.010224  0.042293 -0.019093  0.148638
  1C   1py       -0.056675  0.022750  0.021691  0.089699 -0.028279 -0.038701
  1C   2pz       -0.110895  0.179230  0.039991  0.327890  0.037446  0.035943
  1C   2px        0.038370 -0.062078 -0.013794 -0.113411  0.327686 -0.199980
  1C   2py        0.081359 -0.131437 -0.029292 -0.240614 -0.103465  0.143289
  1C   1dz2      -0.029192 -0.028840 -0.026289  0.000248 -0.021620 -0.054179
  1C   1dxz      -0.085409  0.076929  0.014211  0.056054  0.024987  0.021002
  1C   1dyz       0.032421 -0.044033 -0.013772 -0.026366 -0.032850 -0.004129
  1C   1dx2y2     0.046284 -0.065901 -0.021376 -0.038678  0.063752  0.078042
  1C   1dxy       0.060010 -0.032759  0.002047 -0.032079 -0.006375 -0.054426
  2Cl  1s         0.000000 -0.000000  0.000000  0.000000 -0.001179 -0.004074
  2Cl  2s        -0.000001  0.000001 -0.000001 -0.000002  0.008602  0.034418
  2Cl  3s         0.000002  0.000000  0.000004  0.000003 -0.041962 -0.287150
  2Cl  4s        -0.000002 -0.000038 -0.000001  0.000021  0.193903  0.962323
  2Cl  1pz        0.041295  0.018604 -0.017967  0.043135  0.072785  0.032961
  2Cl  1px       -0.014289 -0.006440  0.006217 -0.014921 -0.032780  0.108600
  2Cl  1py       -0.030303 -0.013654  0.013183 -0.031645  0.114655 -0.006292
  2Cl  2pz        0.133143  0.059915 -0.056774  0.134404  0.230188  0.108797
  2Cl  2px       -0.046070 -0.020740  0.019647 -0.046493 -0.107261  0.375127
  2Cl  2py       -0.097705 -0.043975  0.041659 -0.098601  0.364301 -0.028626
  2Cl  3pz       -0.097887 -0.030110  0.039275 -0.062908 -0.182042 -0.140461
  2Cl  3px        0.033871  0.010448 -0.013594  0.021743  0.015904 -0.731130
  2Cl  3py        0.071835  0.022101 -0.028823  0.046148 -0.255601  0.153343
  2Cl  1dz2       0.025708 -0.436170  0.593961  0.401882 -0.086836  0.213309
  2Cl  1dxz      -0.460424 -0.352435  0.066474 -0.282195 -0.340273 -0.263820
  2Cl  1dyz       0.224024  0.048835  0.128428  0.241167 -0.244718 -0.147589
  2Cl  1dx2y2     0.329911  0.052364  0.214814  0.371740  0.000455 -0.336168
  2Cl  1dxy       0.252803  0.369583 -0.267345  0.005778 -0.394682  0.067302
  3H   1s        -0.000004  0.000012  0.000003 -0.000012 -0.039724 -0.011843
  3H   2s         0.000024  0.000044 -0.000004  0.000004 -0.004543  0.609964
  3H   1pz       -0.030995 -0.049825  0.016538 -0.048899 -0.036037 -0.013423
  3H   1px        0.010726  0.017241 -0.005723  0.016914 -0.089008  0.009685
  3H   1py        0.022742  0.036560 -0.012135  0.035879 -0.007143 -0.022861
  4Cl  1s        -0.000000 -0.000000 -0.000000  0.000000 -0.001179  0.004074
  4Cl  2s         0.000001  0.000001  0.000001 -0.000002  0.008600 -0.034420
  4Cl  3s        -0.000002  0.000000 -0.000004  0.000003 -0.041961  0.287151
  4Cl  4s        -0.000001 -0.000038  0.000001  0.000021  0.193934 -0.962285
  4Cl  1pz        0.041296 -0.018603 -0.017967 -0.043130 -0.072789  0.032953
  4Cl  1px       -0.014289  0.006440  0.006218  0.014919  0.032762  0.108592
  4Cl  1py       -0.030304  0.013654  0.013184  0.031641 -0.114652 -0.006300
  4Cl  2pz        0.133148 -0.059914 -0.056776 -0.134388 -0.230202  0.108772
  4Cl  2px       -0.046070  0.020740  0.019648  0.046487  0.107201  0.375103
  4Cl  2py       -0.097708  0.043974  0.041661  0.098589 -0.364291 -0.028650
  4Cl  3pz       -0.097891  0.030108  0.039276  0.062896  0.182049 -0.140431
  4Cl  3px        0.033870 -0.010448 -0.013595 -0.021739 -0.015836 -0.731085
  4Cl  3py        0.071837 -0.022100 -0.028824 -0.046139  0.255578  0.153362
  4Cl  1dz2      -0.025735 -0.436184 -0.593912  0.401937 -0.086819 -0.213298
  4Cl  1dxz       0.460432 -0.352446 -0.066498 -0.282166 -0.340276  0.263780
  4Cl  1dyz      -0.224037  0.048837 -0.128404  0.241168 -0.244656  0.147544
  4Cl  1dx2y2    -0.329927  0.052365 -0.214776  0.371744  0.000394  0.336156
  4Cl  1dxy      -0.252796  0.369595  0.267339  0.005741 -0.394665 -0.067319
  5H   1s         0.000005  0.000012 -0.000003 -0.000012 -0.039732  0.011830
  5H   2s        -0.000021  0.000043  0.000003  0.000004 -0.004522 -0.609907
  5H   1pz       -0.030996  0.049827  0.016538  0.048899  0.036035 -0.013423
  5H   1px        0.010726 -0.017242 -0.005723 -0.016914  0.089002  0.009681
  5H   1py        0.022743 -0.036561 -0.012135 -0.035878  0.007144 -0.022860
                     48        49        50        51        52        53   
                   0.71144   0.72775   0.79666   0.79948   0.83447   0.92720
                   0.00000   0.00000   0.00000   0.00000   0.00000   0.00000
                  --------  --------  --------  --------  --------  --------
  0C   1s        -0.056184  0.038145 -0.043367 -0.000001 -0.000000 -0.001571
  0C   2s         0.290026 -0.310909  0.372997  0.000007 -0.000000 -0.010284
  0C   3s        -0.624038  2.783202 -4.082987 -0.000004  0.000055 -0.480058
  0C   1pz        0.014980  0.172269 -0.193295  0.043198  0.082500  0.040997
  0C   1px        0.279540  0.388882 -0.066513 -0.014946 -0.028536  0.177249
  0C   1py       -0.111399  0.051402 -0.232061 -0.031694 -0.060527 -0.027712
  0C   2pz        0.075269 -0.797700  1.419087 -0.233164 -0.174547 -0.066094
  0C   2px       -0.901217 -1.309603  1.174554  0.080676  0.060362 -1.314962
  0C   2py        0.527534 -0.469608  1.380134  0.171081  0.128039  0.529992
  0C   1dz2       0.049229  0.026237 -0.012474 -0.031141  0.004006 -0.008195
  0C   1dxz      -0.003290  0.013250 -0.045208  0.060361  0.040999 -0.004035
  0C   1dyz      -0.013923  0.034582 -0.002009 -0.036839 -0.018255 -0.041970
  0C   1dx2y2    -0.047675 -0.041440 -0.018670 -0.055444 -0.026612  0.033221
  0C   1dxy       0.063560  0.044901 -0.054925 -0.022415 -0.024940 -0.012678
  1C   1s        -0.056187 -0.038157  0.043366 -0.000001  0.000000 -0.001569
  1C   2s         0.290021  0.310962 -0.373004  0.000008  0.000001 -0.010278
  1C   3s        -0.623708 -2.783352  4.082995 -0.000014 -0.000055 -0.480774
  1C   1pz       -0.015003  0.172256 -0.193294 -0.043199  0.082493 -0.040979
  1C   1px       -0.279632  0.388811 -0.066538  0.014947 -0.028534 -0.177244
  1C   1py        0.111410  0.051419 -0.232048  0.031696 -0.060521  0.027733
  1C   2pz       -0.075153 -0.797694  1.419089  0.233168 -0.174522  0.065810
  1C   2px        0.901488 -1.309358  1.174624 -0.080680  0.060355  1.314725
  1C   2py       -0.527505 -0.469715  1.380103 -0.171089  0.128020 -0.530267
  1C   1dz2       0.049240 -0.026226  0.012475 -0.031144 -0.004006 -0.008198
  1C   1dxz      -0.003288 -0.013251  0.045206  0.060360 -0.040997 -0.004037
  1C   1dyz      -0.013918 -0.034590  0.002004 -0.036840  0.018254 -0.041970
  1C   1dx2y2    -0.047689  0.041432  0.018671 -0.055445  0.026611  0.033222
  1C   1dxy       0.063576 -0.044887  0.054924 -0.022414  0.024939 -0.012685
  2Cl  1s         0.001626 -0.003091  0.000293 -0.000000 -0.000000 -0.000004
  2Cl  2s        -0.010880  0.024775 -0.001607  0.000001  0.000001  0.001004
  2Cl  3s        -0.045350 -0.148933 -0.033580 -0.000002 -0.000004 -0.094717
  2Cl  4s         0.667669  0.377546  0.268019  0.000001  0.000004  0.846624
  2Cl  1pz        0.046530 -0.058744 -0.117569 -0.205443 -0.206901 -0.139466
  2Cl  1px        0.168022  0.025660 -0.021698  0.071083  0.071588 -0.022638
  2Cl  1py       -0.015817 -0.092160 -0.149990  0.150747  0.151820 -0.179395
  2Cl  2pz        0.148752 -0.186515 -0.377041 -0.673823 -0.684558 -0.475395
  2Cl  2px        0.549483  0.093256 -0.065152  0.233141  0.236857 -0.069710
  2Cl  2py       -0.056380 -0.298170 -0.483100  0.494429  0.502313 -0.615012
  2Cl  3pz       -0.160269  0.169905  0.204223  0.623489  0.645897  0.447261
  2Cl  3px       -0.807039 -0.224198 -0.098134 -0.215725 -0.223479 -0.337587
  2Cl  3py        0.162134  0.337279  0.324577 -0.457495 -0.473942  0.768729
  2Cl  1dz2       0.232345  0.047434  0.091639  0.044786 -0.038627 -0.043546
  2Cl  1dxz      -0.185237  0.214251  0.089024 -0.054051 -0.081971 -0.177493
  2Cl  1dyz      -0.215247  0.406819 -0.293686  0.037533  0.028263 -0.060347
  2Cl  1dx2y2    -0.254691 -0.156130  0.155756  0.057070  0.039756 -0.045293
  2Cl  1dxy       0.162106  0.228622  0.209815  0.013549  0.061696 -0.206264
  3H   1s        -0.081879 -0.102865  0.035327 -0.000003 -0.000004 -0.179959
  3H   2s        -0.123544 -0.320863 -0.353715  0.000008  0.000010 -0.106954
[...]
     13       0.000000   0.000000   0.000000   0.000000   0.000000   0.000000
     14       0.000000   0.000000   0.000000   0.000000   0.000000   0.000000
     15       0.000000   0.000000   0.000000   0.000000   0.000000   0.000000
     16       0.000000   0.000000   0.000000   0.000000   0.000000   0.000000
     17       0.000000   0.000000   0.000000   0.000000   0.000000   0.000000
                 12         13         14         15         16         17    
      0      -0.000177   0.000000   0.000000   0.000000   0.000000   0.000000
      1      -0.000002   0.000000   0.000000   0.000000   0.000000   0.000000
      2      -0.000024   0.000000   0.000000   0.000000   0.000000   0.000000
      3      -0.000124   0.000000   0.000000   0.000000   0.000000   0.000000
      4       0.000025   0.000000   0.000000   0.000000   0.000000   0.000000
      5      -0.000016   0.000000   0.000000   0.000000   0.000000   0.000000
      6       0.000277   0.000000   0.000000   0.000000   0.000000   0.000000
      7      -0.000025   0.000000   0.000000   0.000000   0.000000   0.000000
      8       0.000094   0.000000   0.000000   0.000000   0.000000   0.000000
      9      -0.000003   0.000000   0.000000   0.000000   0.000000   0.000000
     10       0.000017   0.000000   0.000000   0.000000   0.000000   0.000000
     11       0.000027   0.000000   0.000000   0.000000   0.000000   0.000000
     12       0.000124   0.000000   0.000000   0.000000   0.000000   0.000000
     13       0.000000   0.000000   0.000000   0.000000   0.000000   0.000000
     14       0.000000   0.000000   0.000000   0.000000   0.000000   0.000000
     15       0.000000   0.000000   0.000000   0.000000   0.000000   0.000000
     16       0.000000   0.000000   0.000000   0.000000   0.000000   0.000000
     17       0.000000   0.000000   0.000000   0.000000   0.000000   0.000000

done   (      0.4 sec)
gCP correction in the Hessian                    ...  
-----------------
gCP hessian 
from Numerical Differentiation: 
-----------------
                  0          1          2          3          4          5    
      0       0.000702  -0.000304   0.000773  -0.000068  -0.000504  -0.000591
      1      -0.000304  -0.000071   0.001439  -0.000504   0.000174  -0.000466
      2       0.000773   0.001439  -0.000853  -0.000591  -0.000466   0.000025
      3      -0.000068  -0.000504  -0.000591   0.000702  -0.000304   0.000773
      4      -0.000504   0.000174  -0.000466  -0.000304  -0.000071   0.001439
      5      -0.000591  -0.000466   0.000025   0.000773   0.001439  -0.000853
      6      -0.001128   0.000517  -0.000203  -0.000305  -0.000026  -0.000157
      7       0.000517   0.000396   0.000062  -0.000026   0.000091  -0.000010
      8      -0.000203   0.000062   0.000531  -0.000157  -0.000010   0.000031
      9       0.000724   0.000405   0.000254   0.000075  -0.000088  -0.000076
     10       0.000405  -0.000457  -0.000818  -0.000088  -0.000134  -0.000207
     11       0.000254  -0.000818   0.000336  -0.000076  -0.000207  -0.000071
     12      -0.000305  -0.000026  -0.000157  -0.001128   0.000517  -0.000203
     13      -0.000026   0.000091  -0.000010   0.000517   0.000396   0.000062
     14      -0.000157  -0.000010   0.000031  -0.000203   0.000062   0.000531
     15       0.000075  -0.000088  -0.000076   0.000724   0.000405   0.000254
     16      -0.000088  -0.000134  -0.000207   0.000405  -0.000457  -0.000818
     17      -0.000076  -0.000207  -0.000071   0.000254  -0.000818   0.000336
                  6          7          8          9         10         11    
      0      -0.001128   0.000517  -0.000203   0.000724   0.000405   0.000254
      1       0.000517   0.000396   0.000062   0.000405  -0.000457  -0.000818
      2      -0.000203   0.000062   0.000531   0.000254  -0.000818   0.000336
      3      -0.000305  -0.000026  -0.000157   0.000075  -0.000088  -0.000076
      4      -0.000026   0.000091  -0.000010  -0.000088  -0.000134  -0.000207
      5      -0.000157  -0.000010   0.000031  -0.000076  -0.000207  -0.000071
      6       0.002070  -0.000809   0.000446  -0.000397   0.000438   0.000114
      7      -0.000809  -0.000396   0.000117   0.000438  -0.000117  -0.000083
      8       0.000446   0.000117  -0.000696   0.000114  -0.000083   0.000181
      9      -0.000397   0.000438   0.000114  -0.000221  -0.000628  -0.000109
     10       0.000438  -0.000117  -0.000083  -0.000628   0.000704   0.001208
     11       0.000114  -0.000083   0.000181  -0.000109   0.001208  -0.000390
     12      -0.000056   0.000005  -0.000019  -0.000184  -0.000125  -0.000181
     13       0.000005   0.000009   0.000002  -0.000125   0.000016  -0.000087
     14      -0.000019   0.000002   0.000004  -0.000181  -0.000087  -0.000051
     15      -0.000184  -0.000125  -0.000181   0.000003  -0.000002  -0.000001
     16      -0.000125   0.000016  -0.000087  -0.000002  -0.000012  -0.000012
     17      -0.000181  -0.000087  -0.000051  -0.000001  -0.000012  -0.000006
                 12         13         14         15         16         17    
      0      -0.000305  -0.000026  -0.000157   0.000075  -0.000088  -0.000076
      1      -0.000026   0.000091  -0.000010  -0.000088  -0.000134  -0.000207
      2      -0.000157  -0.000010   0.000031  -0.000076  -0.000207  -0.000071
      3      -0.001128   0.000517  -0.000203   0.000724   0.000405   0.000254
      4       0.000517   0.000396   0.000062   0.000405  -0.000457  -0.000818
      5      -0.000203   0.000062   0.000531   0.000254  -0.000818   0.000336
      6      -0.000056   0.000005  -0.000019  -0.000184  -0.000125  -0.000181
      7       0.000005   0.000009   0.000002  -0.000125   0.000016  -0.000087
      8      -0.000019   0.000002   0.000004  -0.000181  -0.000087  -0.000051
      9      -0.000184  -0.000125  -0.000181   0.000003  -0.000002  -0.000001
     10      -0.000125   0.000016  -0.000087  -0.000002  -0.000012  -0.000012
     11      -0.000181  -0.000087  -0.000051  -0.000001  -0.000012  -0.000006
     12       0.002070  -0.000809   0.000446  -0.000397   0.000438   0.000114
     13      -0.000809  -0.000396   0.000117   0.000438  -0.000117  -0.000083
     14       0.000446   0.000117  -0.000696   0.000114  -0.000083   0.000181
     15      -0.000397   0.000438   0.000114  -0.000221  -0.000628  -0.000109
     16       0.000438  -0.000117  -0.000083  -0.000628   0.000704   0.001208
     17       0.000114  -0.000083   0.000181  -0.000109   0.001208  -0.000390

done   (      0.0 sec)
Dipol derivatives                                ... done   (      0.2 sec)

-------
TIMINGS
-------

Total SCF Hessian time: 0 days 0 hours 0 min 15 sec 
                   F(y)            G[Q(x)]           CPSCF         Total
Table01         0.4  0.02         0.3  0.02         7.0  0.44        15.9 
Table01a        0.4  0.02,        0.3, 0.02,        7.0  0.44        15.9 
Table01b        0.4   2.3,        0.3,  2.1,        7.0  43.9        15.9 

Writing the Hessian file to the disk             ... done


Maximum memory used throughout the entire calculation: 132.5 MB

-----------------------
VIBRATIONAL FREQUENCIES
-----------------------

Scaling factor for frequencies =  1.000000000  (already applied!)

   0:         0.00 cm**-1
   1:         0.00 cm**-1
   2:         0.00 cm**-1
   3:         0.00 cm**-1
   4:         0.00 cm**-1
   5:         0.00 cm**-1
   6:       207.78 cm**-1
   7:       231.36 cm**-1
   8:       340.92 cm**-1
   9:       737.10 cm**-1
  10:       800.94 cm**-1
  11:       827.94 cm**-1
  12:       878.96 cm**-1
  13:      1163.37 cm**-1
  14:      1237.19 cm**-1
  15:      1586.10 cm**-1
  16:      3116.11 cm**-1
  17:      3119.71 cm**-1


------------
NORMAL MODES
------------

These modes are the Cartesian displacements weighted by the diagonal matrix
M(i,i)=1/sqrt(m[i]) where m[i] is the mass of the displaced atom
Thus, these vectors are normalized but *not* orthogonal

                  0          1          2          3          4          5    
      0       0.000000   0.000000   0.000000   0.000000   0.000000   0.000000
      1       0.000000   0.000000   0.000000   0.000000   0.000000   0.000000
      2       0.000000   0.000000   0.000000   0.000000   0.000000   0.000000
      3       0.000000   0.000000   0.000000   0.000000   0.000000   0.000000
      4       0.000000   0.000000   0.000000   0.000000   0.000000   0.000000
      5       0.000000   0.000000   0.000000   0.000000   0.000000   0.000000
      6       0.000000   0.000000   0.000000   0.000000   0.000000   0.000000
      7       0.000000   0.000000   0.000000   0.000000   0.000000   0.000000
      8       0.000000   0.000000   0.000000   0.000000   0.000000   0.000000
      9       0.000000   0.000000   0.000000   0.000000   0.000000   0.000000
     10       0.000000   0.000000   0.000000   0.000000   0.000000   0.000000
     11       0.000000   0.000000   0.000000   0.000000   0.000000   0.000000
     12       0.000000   0.000000   0.000000   0.000000   0.000000   0.000000
     13       0.000000   0.000000   0.000000   0.000000   0.000000   0.000000
     14       0.000000   0.000000   0.000000   0.000000   0.000000   0.000000
     15       0.000000   0.000000   0.000000   0.000000   0.000000   0.000000
     16       0.000000   0.000000   0.000000   0.000000   0.000000   0.000000
     17       0.000000   0.000000   0.000000   0.000000   0.000000   0.000000
                  6          7          8          9         10         11    
      0      -0.130465   0.044068  -0.192247   0.051510   0.508648   0.263991
      1      -0.276858   0.325069   0.137034   0.109507  -0.142826  -0.245273
      2       0.376354   0.254432   0.033951  -0.149089   0.071299  -0.088851
      3      -0.130465   0.044068   0.192249  -0.051509   0.508630  -0.264006
      4      -0.276858   0.325068  -0.137036  -0.109506  -0.142810   0.245278
      5       0.376353   0.254432  -0.033952   0.149088   0.071305   0.088849
      6       0.047899  -0.022586  -0.484984  -0.003183  -0.183509  -0.077264
      7       0.101629  -0.119737   0.012561  -0.006855   0.052731   0.047676
      8      -0.138148  -0.095919  -0.158583   0.009321  -0.024833   0.008263
      9      -0.130099   0.269274  -0.406453  -0.182997   0.393479   0.547564
     10      -0.275496   0.337930   0.121542  -0.387662  -0.152826  -0.231731
     11       0.374375   0.341908  -0.051163   0.528425   0.023811   0.020205
     12       0.047899  -0.022585   0.484983   0.003183  -0.183505   0.077270
     13       0.101629  -0.119737  -0.012560   0.006855   0.052728  -0.047678
     14      -0.138148  -0.095919   0.158583  -0.009321  -0.024834  -0.008263
     15      -0.130099   0.269274   0.406452   0.182990   0.393446  -0.547571
     16      -0.275495   0.337929  -0.121544   0.387646  -0.152811   0.231736
     17       0.374373   0.341907   0.051162  -0.528403   0.023810  -0.020204
                 12         13         14         15         16         17    
      0       0.015851   0.049274   0.027069  -0.376121   0.014433  -0.007169
      1       0.033564   0.022972  -0.071885  -0.214114  -0.048878   0.053644
      2      -0.045756   0.033912  -0.043386  -0.287250  -0.030872   0.036883
      3       0.015852   0.049272  -0.027071   0.376122   0.014424   0.007186
      4       0.033567   0.022975   0.071885   0.214114  -0.048815  -0.053703
      5      -0.045760   0.033913   0.043384   0.287250  -0.030828  -0.036920
      6       0.000014   0.002151   0.003923   0.010533  -0.000135  -0.000027
      7       0.000045  -0.007469  -0.004204   0.000770   0.000110  -0.000109
      8      -0.000056  -0.004737  -0.001727   0.004210   0.000035  -0.000089
      9      -0.189370  -0.662802  -0.625616   0.404788  -0.167280   0.168231
     10      -0.401543  -0.011042  -0.110553  -0.253183   0.578499  -0.577308
     11       0.547192  -0.237488  -0.297565  -0.045703   0.366607  -0.365405
     12       0.000014   0.002151  -0.003923  -0.010534  -0.000135   0.000027
     13       0.000045  -0.007469   0.004205  -0.000770   0.000110   0.000109
     14      -0.000056  -0.004737   0.001728  -0.004210   0.000034   0.000089
     15      -0.189374  -0.662780   0.625641  -0.404794  -0.167080  -0.168433
     16      -0.401552  -0.011038   0.110554   0.253182   0.577812   0.578006
     17       0.547205  -0.237478   0.297575   0.045700   0.366172   0.365847


-----------
IR SPECTRUM
-----------

 Mode    freq (cm**-1)   T**2         TX         TY         TZ
-------------------------------------------------------------------
   6:       207.78    0.087645  ( -0.080297  -0.170273   0.228483)
   7:       231.36    2.976794  ( -0.561795   1.401573   0.834730)
   8:       340.92    0.000000  (  0.000016   0.000003   0.000008)
   9:       737.10    0.000000  ( -0.000020  -0.000041   0.000055)
  10:       800.94  127.091879  ( 10.818480  -0.999392   3.008918)
  11:       827.94    0.000000  ( -0.000185   0.000003  -0.000062)
  12:       878.96   58.617876  ( -2.055710  -4.362885   5.946189)
  13:      1163.37   13.117939  (  2.777360  -2.225282  -0.672556)
  14:      1237.19    0.000000  ( -0.000051   0.000053   0.000021)
  15:      1586.10    0.000000  ( -0.000039  -0.000032  -0.000037)
  16:      3116.11   11.016271  (  3.111679   0.100546   1.150484)
  17:      3119.71    0.000004  (  0.001859   0.000059   0.000687)

The first frequency considered to be a vibration is 6
The total number of vibrations considered is 12


--------------------------
THERMOCHEMISTRY AT 298.15K
--------------------------

Temperature         ... 298.15 K
Pressure            ... 1.00 atm
Total Mass          ... 96.94 AMU

Throughout the following assumptions are being made:
  (1) The electronic state is orbitally nondegenerate
  (2) There are no thermally accessible electronically excited states
  (3) Hindered rotations indicated by low frequency modes are not
      treated as such but are treated as vibrations and this may
      cause some error
  (4) All equations used are the standard statistical mechanics
      equations for an ideal gas
  (5) All vibrations are strictly harmonic

freq.     207.78  E(vib)   ...       0.34 
freq.     231.36  E(vib)   ...       0.32 
freq.     340.92  E(vib)   ...       0.23 
freq.     737.10  E(vib)   ...       0.06 
freq.     800.94  E(vib)   ...       0.05 
freq.     827.94  E(vib)   ...       0.04 
freq.     878.96  E(vib)   ...       0.04 
freq.    1163.37  E(vib)   ...       0.01 
freq.    1237.19  E(vib)   ...       0.01 
freq.    1586.10  E(vib)   ...       0.00 
freq.    3116.11  E(vib)   ...       0.00 
freq.    3119.71  E(vib)   ...       0.00 

------------
INNER ENERGY
------------

The inner energy is: U= E(el) + E(ZPE) + E(vib) + E(rot) + E(trans)
    E(el)   - is the total energy from the electronic structure calculation
              = E(kin-el) + E(nuc-el) + E(el-el) + E(nuc-nuc)
    E(ZPE)  - the the zero temperature vibrational energy from the frequency calculation
    E(vib)  - the the finite temperature correction to E(ZPE) due to population
              of excited vibrational states
    E(rot)  - is the rotational thermal energy
    E(trans)- is the translational thermal energy

Summary of contributions to the inner energy U:
Electronic energy                ...   -997.24826710 Eh
Zero point energy                ...      0.03245812 Eh      20.37 kcal/mol
Thermal vibrational correction   ...      0.00177657 Eh       1.11 kcal/mol
Thermal rotational correction    ...      0.00141627 Eh       0.89 kcal/mol
Thermal translational correction ...      0.00141627 Eh       0.89 kcal/mol
-----------------------------------------------------------------------
Total thermal energy                   -997.21119987 Eh


Summary of corrections to the electronic energy:
(perhaps to be used in another calculation)
Total thermal correction                  0.00460911 Eh       2.89 kcal/mol
Non-thermal (ZPE) correction              0.03245812 Eh      20.37 kcal/mol
-----------------------------------------------------------------------
Total correction                          0.03706723 Eh      23.26 kcal/mol


--------
ENTHALPY
--------

The enthalpy is H = U + kB*T
                kB is Boltzmann's constant
Total free energy                 ...   -997.21119987 Eh 
Thermal Enthalpy correction       ...      0.00094421 Eh       0.59 kcal/mol
-----------------------------------------------------------------------
Total Enthalpy                    ...   -997.21025566 Eh


Note: Only C1 symmetry has been detected, increase convergence thresholds 
      if your molecule has a higher symmetry. Symmetry factor of 1.0 is   
      used for the rotational entropy correction. 
 

Note: Rotational entropy computed according to Herzberg 
Infrared and Raman Spectra, Chapter V,1, Van Nostrand Reinhold, 1945 
Point Group:  C1, Symmetry Number:   1  
Rotational constants in cm-1:     1.716822     0.049288     0.047913 

Vibrational entropy computed according to the QRRHO of S. Grimme
Chem.Eur.J. 2012 18 9955


-------
ENTROPY
-------

The entropy contributions are T*S = T*(S(el)+S(vib)+S(rot)+S(trans))
     S(el)   - electronic entropy
     S(vib)  - vibrational entropy
     S(rot)  - rotational entropy
     S(trans)- translational entropy
The entropies will be listed as mutliplied by the temperature to get
units of energy

Electronic entropy                ...      0.00000000 Eh      0.00 kcal/mol
Vibrational entropy               ...      0.00287580 Eh      1.80 kcal/mol
Rotational entropy                ...      0.01211107 Eh      7.60 kcal/mol
Translational entropy             ...      0.01882729 Eh     11.81 kcal/mol
-----------------------------------------------------------------------
Final entropy term                ...      0.03381416 Eh     21.22 kcal/mol

In case the symmetry of your molecule has not been determined correctly
or in case you have a reason to use a different symmetry number we print 
out the resulting rotational entropy values for sn=1,12 :
 --------------------------------------------------------
|  sn= 1 | S(rot)=       0.01211107 Eh      7.60 kcal/mol|
|  sn= 2 | S(rot)=       0.01145661 Eh      7.19 kcal/mol|
|  sn= 3 | S(rot)=       0.01107378 Eh      6.95 kcal/mol|
|  sn= 4 | S(rot)=       0.01080216 Eh      6.78 kcal/mol|
|  sn= 5 | S(rot)=       0.01059147 Eh      6.65 kcal/mol|
|  sn= 6 | S(rot)=       0.01041933 Eh      6.54 kcal/mol|
|  sn= 7 | S(rot)=       0.01027378 Eh      6.45 kcal/mol|
|  sn= 8 | S(rot)=       0.01014770 Eh      6.37 kcal/mol|
|  sn= 9 | S(rot)=       0.01003649 Eh      6.30 kcal/mol|
|  sn=10 | S(rot)=       0.00993701 Eh      6.24 kcal/mol|
|  sn=11 | S(rot)=       0.00984702 Eh      6.18 kcal/mol|
|  sn=12 | S(rot)=       0.00976487 Eh      6.13 kcal/mol|
 --------------------------------------------------------


-------------------
GIBBS FREE ENERGY
-------------------

The Gibbs free energy is G = H - T*S

Total enthalpy                    ...   -997.21025566 Eh 
Total entropy correction          ...     -0.03381416 Eh    -21.22 kcal/mol
-----------------------------------------------------------------------
Final Gibbs free energy         ...   -997.24406981 Eh

For completeness - the Gibbs free energy minus the electronic energy
G-E(el)                           ...      0.00419728 Eh      2.63 kcal/mol


Timings for individual modules:

Sum of individual times         ...       97.243 sec (=   1.621 min)
GTO integral calculation        ...       10.446 sec (=   0.174 min)  10.7 %
SCF iterations                  ...       54.240 sec (=   0.904 min)  55.8 %
SCF Gradient evaluation         ...       15.827 sec (=   0.264 min)  16.3 %
Geometry relaxation             ...        0.321 sec (=   0.005 min)   0.3 %
Analytical frequency calculation...       16.410 sec (=   0.273 min)  16.9 %
                             ****ORCA TERMINATED NORMALLY****
TOTAL RUN TIME: 0 days 0 hours 1 minutes 38 seconds 906 msec
