
                                 *****************
                                 * O   R   C   A *
                                 *****************

           --- An Ab Initio, DFT and Semiempirical electronic structure package ---

                  #######################################################
                  #                        -***-                        #
                  #          Department of theory and spectroscopy      #
                  #               Directorship: Frank Neese             #
                  #        Max Planck Institute fuer Kohlenforschung    #
                  #                Kaiser Wilhelm Platz 1               #
                  #                 D-45470 Muelheim/Ruhr               #
                  #                      Germany                        #
                  #                                                     #
                  #                  All rights reserved                #
                  #                        -***-                        #
                  #######################################################


                         Program Version 4.2.1 -  RELEASE  -


 With contributions from (in alphabetic order):
   Daniel Aravena         : Magnetic Suceptibility
   Michael Atanasov       : Ab Initio Ligand Field Theory (pilot matlab implementation)
   Alexander A. Auer      : GIAO ZORA, VPT2
   Ute Becker             : Parallelization
   Giovanni Bistoni       : ED, misc. LED, open-shell LED, HFLD
   Martin Brehm           : Molecular dynamics
   Dmytro Bykov           : SCF Hessian
   Vijay G. Chilkuri      : MRCI spin determinant printing, contributions to CSF-ICE
   Dipayan Datta          : RHF DLPNO-CCSD density
   Achintya Kumar Dutta   : EOM-CC, STEOM-CC
   Dmitry Ganyushin       : Spin-Orbit,Spin-Spin,Magnetic field MRCI
   Miquel Garcia          : C-PCM Hessian, Gaussian charge scheme
   Yang Guo               : DLPNO-NEVPT2, CIM, IAO-localization
   Andreas Hansen         : Spin unrestricted coupled pair/coupled cluster methods
   Benjamin Helmich-Paris : CASSCF linear response (MC-RPA)
   Lee Huntington         : MR-EOM, pCC
   Robert Izsak           : Overlap fitted RIJCOSX, COSX-SCS-MP3, EOM
   Christian Kollmar      : KDIIS, OOCD, Brueckner-CCSD(T), CCSD density
   Simone Kossmann        : Meta GGA functionals, TD-DFT gradient, OOMP2, MP2 Hessian
   Martin Krupicka        : AUTO-CI
   Lucas Lang             : DCDCAS
   Dagmar Lenk            : GEPOL surface, SMD
   Dimitrios Liakos       : Extrapolation schemes; Compound Job, initial MDCI parallelization
   Dimitrios Manganas     : Further ROCIS development; embedding schemes
   Dimitrios Pantazis     : SARC Basis sets
   Taras Petrenko         : DFT Hessian,TD-DFT gradient, ASA, ECA, R-Raman, ABS, FL, XAS/XES, NRVS
   Peter Pinski           : DLPNO-MP2, DLPNO-MP2 Gradient
   Christoph Reimann      : Effective Core Potentials
   Marius Retegan         : Local ZFS, SOC
   Christoph Riplinger    : Optimizer, TS searches, QM/MM, DLPNO-CCSD(T), (RO)-DLPNO pert. Triples
   Tobias Risthaus        : Range-separated hybrids, TD-DFT gradient, RPA, STAB
   Michael Roemelt        : Original ROCIS implementation
   Masaaki Saitow         : Open-shell DLPNO-CCSD energy and density
   Barbara Sandhoefer     : DKH picture change effects
   Avijit Sen             : IP-ROCIS
   Kantharuban Sivalingam : CASSCF convergence, NEVPT2, FIC-MRCI
   Bernardo de Souza      : ESD, SOC TD-DFT
   Georgi Stoychev        : AutoAux, RI-MP2 NMR
   Willem Van den Heuvel  : Paramagnetic NMR
   Boris Wezisla          : Elementary symmetry handling
   Frank Wennmohs         : Technical directorship


 We gratefully acknowledge several colleagues who have allowed us to
 interface, adapt or use parts of their codes:
   Stefan Grimme, W. Hujo, H. Kruse,             : VdW corrections, initial TS optimization,
                  C. Bannwarth                     DFT functionals, gCP, sTDA/sTD-DF
   Ed Valeev, F. Pavosevic, A. Kumar             : LibInt (2-el integral package), F12 methods
   Garnet Chan, S. Sharma, J. Yang, R. Olivares  : DMRG
   Ulf Ekstrom                                   : XCFun DFT Library
   Mihaly Kallay                                 : mrcc  (arbitrary order and MRCC methods)
   Andreas Klamt, Michael Diedenhofen            : otool_cosmo (COSMO solvation model)
   Jiri Pittner, Ondrej Demel                    : Mk-CCSD
   Frank Weinhold                                : gennbo (NPA and NBO analysis)
   Christopher J. Cramer and Donald G. Truhlar   : smd solvation model
   Lars Goerigk                                  : TD-DFT with DH, B97 family of functionals
   V. Asgeirsson, H. Jonsson                     : NEB implementation
   FAccTs GmbH                                   : IRC, NEB, NEB-TS, Multilevel, MM, QM/MM, CI optimization
   S Lehtola, MJT Oliveira, MAL Marques          : LibXC Library


 Your calculation uses the libint2 library for the computation of 2-el integrals
 For citations please refer to: http://libint.valeyev.net

 Your ORCA version has been built with support for libXC version: 4.2.3
 For citations please refer to: https://tddft.org/programs/libxc/

 This ORCA versions uses:
   CBLAS   interface :  Fast vector & matrix operations
   LAPACKE interface :  Fast linear algebra routines
   SCALAPACK package :  Parallel linear algebra routines


Your calculation utilizes the atom-pairwise dispersion correction
with the Becke-Johnson damping scheme (D3BJ)
Cite in your paper:
S.Grimme, S.Ehrlich, L.Goerigk, J Comput Chem, (2011), 32, 1456–1465 
S.Grimme, J.Antony, S.Ehrlich and H.Krieg, J.Chem.Phys., 132, (2010), 154104 
   

Your calculation employs the composite approach B97-3c by Grimme and coworkers.
For the correct reference, please check the publication list of the Grimme group:
http://www.thch.uni-bonn.de/tc/index.php?section=publikationen&subsection=grimme#2017
   

XCFun DFT library Copyright 2009-2010 Ulf Ekstrom and contributors.
See http://admol.org/xcfun for more information. This is free soft-
ware; see the source code for copying conditions. There is ABSOLUTELY
NO WARRANTY; not even for MERCHANTABILITY or FITNESS FOR A PARTICULAR
PURPOSE. For details see the documentation. Scientific users of this 
library should cite U. Ekstrom, L. Visscher, R. Bast, A. J. Thorvald-
sen and K. Ruud; J.Chem.Theor.Comp. 2010, DOI: 10.1021/ct100117s
XCFun Version 0.99 
----- Orbital basis set information -----
Your calculation utilizes the basis: def2-mTZVP
----- AuxJ basis set information -----
Your calculation utilizes the basis: def2-mTZVP/J
cite the ECPs for Pt [Def2-ECP] as follows:
Ce-Yb(ecp-28): M. Dolg, H. Stoll, H.Preuss, J. Chem. Phys., 1989, 90, 1730-1734.
Y-Cd(ecp-28), Hf-Hg(ecp-46): D. Andrae,U. Haeussermann, M. Dolg, H. Stoll, H. Preuss, Theor. Chim. Acta, 1990, 77, 123-141.
In-Sb(ecp-28), Tl-Bi(ecp-46): B. Metz, H. Stoll, M. Dolg, J. Chem. Phys., 2000, 113, 2563-2569.
Te-Xe(ecp-28), Po-Rn(ecp-46): K. A. Peterson, D. Figgen, E. Goll, H. Stoll, M. Dolg, J. Chem. Phys., 2003, 119, 11113-11123.
Rb(ecp-28), Cs(ecp-46): T. Leininger, A. Nicklass, W. Kuechle, H. Stoll, M. Dolg, A. Bergner, Chem. Phys. Lett., 1996, 255, 274-280.
Sr(ecp-28), Ba(ecp-46): M. Kaupp, P. V. Schleyer, H. Stoll and H. Preuss, J. Chem. Phys., 1991, 94, 1360-1366.
La(ecp-46): M. Dolg, H. Stoll, A. Savin, H. Preuss, Theor. Chim. Acta, 1989, 75, 173-194.
Lu(ecp-28): X. Cao, M. Dolg, J. Chem. Phys., 2001, 115, 7348-7355.

ECP parameters for Pt [Def2-ECP] have been obtained from:
TURBOMOLE (7.0.2)

================================================================================
                                        WARNINGS
                       Please study these warnings very carefully!
================================================================================


WARNING: Geometry Optimization
  ===> : Switching off AutoStart
         For restart on a previous wavefunction, please use MOREAD

WARNING: No Hueckel Guess possible with ECP basis!
  ===> : Switching to HCORE guess!

INFO   : the flag for use of LIBINT has been found!

================================================================================
                                       INPUT FILE
================================================================================
NAME = transplatin.inp
|  1> ! B97-3c Opt Freq TightOpt TightSCF
|  2> 
|  3> %pal
|  4>  nprocs 4
|  5> end
|  6> 
|  7> *xyz 0 1
|  8> Pt      -4.4722106190     -1.1218171684     -2.0901759368                 
|  9> Cl      -6.7680840338     -0.8464003903     -2.5711360289                 
| 10> Cl      -2.1773518455     -1.4034449074     -1.6076923672                 
| 11> N       -4.8069102670     -0.5968508378     -0.1351134564                 
| 12> H       -5.7976174535     -0.2952297652     -0.0033734397                 
| 13> H       -4.1701489650      0.1900015758      0.1218468133                 
| 14> N       -4.1373597817     -1.6464199377     -4.0453287085                 
| 15> H       -4.4967709935     -0.8896787480     -4.6690076512                 
| 16> H       -4.6425293895     -2.5370218881     -4.2511542039                 
| 17> H       -3.1163625951     -1.7788499698     -4.2173502124                 
| 18> H       -4.6097635285     -1.4192236594      0.4776654200                 
| 19> *
| 20> 
| 21>                          ****END OF INPUT****
================================================================================

                       *****************************
                       * Geometry Optimization Run *
                       *****************************

Geometry optimization settings:
Update method            Update   .... BFGS
Choice of coordinates    CoordSys .... Z-matrix Internals
Initial Hessian          InHess   .... Almoef's Model

Convergence Tolerances:
Energy Change            TolE     ....  1.0000e-06 Eh
Max. Gradient            TolMAXG  ....  1.0000e-04 Eh/bohr
RMS Gradient             TolRMSG  ....  3.0000e-05 Eh/bohr
Max. Displacement        TolMAXD  ....  1.0000e-03 bohr
RMS Displacement         TolRMSD  ....  6.0000e-04 bohr
Strict Convergence                ....  False
------------------------------------------------------------------------------
                        ORCA OPTIMIZATION COORDINATE SETUP
------------------------------------------------------------------------------

The optimization will be done in new redundant internal coordinates
Making redundant internal coordinates   ...  (new redundants) done
Evaluating the initial hessian          ...  (Almloef) done
Evaluating the coordinates              ...  done
Calculating the B-matrix                .... done
Calculating the G-matrix                .... done
Diagonalizing the G-matrix              .... done
Small eigenvalue found = 1.312e-02
The first mode is                       ....   20
The number of degrees of freedom        ....   27

    -----------------------------------------------------------------
                    Redundant Internal Coordinates


    -----------------------------------------------------------------
         Definition                    Initial Value    Approx d2E/dq
    -----------------------------------------------------------------
      1. B(Cl  1,Pt  0)                  2.3618         0.054934   
      2. B(Cl  2,Pt  0)                  2.3619         0.054922   
      3. B(N   3,Pt  0)                  2.0518         0.068487   
      4. B(H   4,N   3)                  1.0439         0.381971   
      5. B(H   5,N   3)                  1.0443         0.381434   
      6. B(N   6,Pt  0)                  2.0518         0.068482   
      7. B(H   7,N   6)                  1.0444         0.381314   
      8. B(H   8,N   6)                  1.0444         0.381366   
      9. B(H   9,N   6)                  1.0438         0.382150   
     10. B(H  10,N   3)                  1.0443         0.381413   
     11. A(Cl  2,Pt  0,N   6)           90.3210         0.221896   
     12. A(Cl  1,Pt  0,N   6)           89.6797         0.221902   
     13. A(Cl  1,Pt  0,N   3)           90.3227         0.221904   
     14. A(Cl  2,Pt  0,N   3)           89.6766         0.221898   
     15. A(Pt  0,N   3,H   4)          110.4245         0.252145   
     16. A(Pt  0,N   3,H  10)          109.0762         0.252091   
     17. A(H   4,N   3,H  10)          109.4276         0.291429   
     18. A(H   5,N   3,H  10)          109.5014         0.291365   
     19. A(H   4,N   3,H   5)          109.2624         0.291432   
     20. A(Pt  0,N   3,H   5)          109.1331         0.252093   
     21. A(H   8,N   6,H   9)          109.4180         0.291445   
     22. A(H   7,N   6,H   9)          109.2758         0.291439   
     23. A(Pt  0,N   6,H   9)          110.4324         0.252160   
     24. A(H   7,N   6,H   8)          109.4953         0.291345   
     25. A(Pt  0,N   6,H   8)          109.0798         0.252084   
     26. A(Pt  0,N   6,H   7)          109.1237         0.252079   
     27. D(H   5,N   3,Pt  0,Cl  1)   -125.8350         0.001713   
     28. D(H   4,N   3,Pt  0,Cl  1)     -5.7159         0.001713   
     29. D(H   4,N   3,Pt  0,Cl  2)    174.4411         0.001713   
     30. D(H  10,N   3,Pt  0,Cl  2)    -65.2722         0.001713   
     31. D(H   5,N   3,Pt  0,Cl  2)     54.3221         0.001713   
     32. D(H  10,N   3,Pt  0,Cl  1)    114.5708         0.001713   
     33. D(H   7,N   6,Pt  0,Cl  1)     55.2316         0.001713   
     34. D(H   7,N   6,N   3,H   4)     49.5150         0.001500   
     35. D(H   9,N   6,Pt  0,Cl  2)     -4.7910         0.001713   
     36. D(H   9,N   6,Pt  0,Cl  1)    175.3661         0.001713   
     37. D(H   9,N   6,N   3,H   5)     49.5298         0.001500   
     38. D(H   8,N   6,Pt  0,Cl  2)    115.4912         0.001713   
     39. D(H   7,N   6,N   3,H   5)    -70.6012         0.001500   
     40. D(H   7,N   6,N   3,H  10)    169.8049         0.001500   
     41. D(H   8,N   6,N   3,H  10)     50.2206         0.001500   
     42. D(H   8,N   6,Pt  0,Cl  1)    -64.3518         0.001713   
     43. D(H   8,N   6,N   3,H   5)    169.8144         0.001500   
     44. D(H   9,N   6,N   3,H   4)    169.6460         0.001500   
     45. D(H   8,N   6,N   3,H   4)    -70.0694         0.001500   
     46. D(H   9,N   6,N   3,H  10)    -70.0640         0.001500   
     47. D(H   7,N   6,Pt  0,Cl  2)   -124.9255         0.001713   
    -----------------------------------------------------------------

Number of atoms                         .... 11
Number of degrees of freedom            .... 47

         *************************************************************
         *                GEOMETRY OPTIMIZATION CYCLE   1            *
         *************************************************************
---------------------------------
CARTESIAN COORDINATES (ANGSTROEM)
---------------------------------
  Pt    -4.472211   -1.121817   -2.090176
  Cl    -6.768084   -0.846400   -2.571136
  Cl    -2.177352   -1.403445   -1.607692
  N     -4.806910   -0.596851   -0.135113
  H     -5.797617   -0.295230   -0.003373
  H     -4.170149    0.190002    0.121847
  N     -4.137360   -1.646420   -4.045329
  H     -4.496771   -0.889679   -4.669008
  H     -4.642529   -2.537022   -4.251154
  H     -3.116363   -1.778850   -4.217350
  H     -4.609764   -1.419224    0.477665

----------------------------
CARTESIAN COORDINATES (A.U.)
----------------------------
  NO LB      ZA    FRAG     MASS         X           Y           Z
   0 Pt   18.0000*   0   195.090   -8.451253   -2.119927   -3.949860
   1 Cl   17.0000    0    35.453  -12.789825   -1.599465   -4.858743
   2 Cl   17.0000    0    35.453   -4.114599   -2.652127   -3.038098
   3 N     7.0000    0    14.007   -9.083744   -1.127885   -0.255327
   4 H     1.0000    0     1.008  -10.955909   -0.557903   -0.006375
   5 H     1.0000    0     1.008   -7.880439    0.359051    0.230257
   6 N     7.0000    0    14.007   -7.818477   -3.111283   -7.644563
   7 H     1.0000    0     1.008   -8.497666   -1.681249   -8.823146
   8 H     1.0000    0     1.008   -8.773109   -4.794277   -8.033517
   9 H     1.0000    0     1.008   -5.889072   -3.361539   -7.969637
  10 H     1.0000    0     1.008   -8.711191   -2.681944    0.902657
* core charge reduced due to ECP

--------------------------------
INTERNAL COORDINATES (ANGSTROEM)
--------------------------------
 Pt     0   0   0     0.000000000000     0.00000000     0.00000000
 Cl     1   0   0     2.361823818289     0.00000000     0.00000000
 Cl     1   2   0     2.361880896366   179.84292845     0.00000000
 N      1   2   3     2.051799893972    90.32271349   270.24579477
 H      4   1   2     1.043949918731   110.42446388   354.28406934
 H      4   1   2     1.044332445497   109.13313359   234.16502676
 N      1   2   5     2.051817611164    89.67969601   182.31520247
 H      7   1   2     1.044418053714   109.12367269    55.23161654
 H      7   1   2     1.044381300703   109.07983783   295.64824195
 H      7   1   2     1.043821999314   110.43240480   175.36610238
 H      4   1   2     1.044347569332   109.07617687   114.57077208

---------------------------
INTERNAL COORDINATES (A.U.)
---------------------------
 Pt     0   0   0     0.000000000000     0.00000000     0.00000000
 Cl     1   0   0     4.463200193138     0.00000000     0.00000000
 Cl     1   2   0     4.463308055072   179.84292845     0.00000000
 N      1   2   3     3.877339881215    90.32271349   270.24579477
 H      4   1   2     1.972779443932   110.42446388   354.28406934
 H      4   1   2     1.973502314757   109.13313359   234.16502676
 N      1   2   5     3.877373361857    89.67969601   182.31520247
 H      7   1   2     1.973664090842   109.12367269    55.23161654
 H      7   1   2     1.973594637717   109.07983783   295.64824195
 H      7   1   2     1.972537711265   110.43240480   175.36610238
 H      4   1   2     1.973530894664   109.07617687   114.57077208

---------------------
BASIS SET INFORMATION
---------------------
There are 4 groups of distinct atoms

 Group   1 Type Pt  : 8s7p6d contracted to 6s5p3d pattern {311111/31111/411}
 Group   2 Type Cl  : 14s9p1d contracted to 5s4p1d pattern {73211/6111/1}
 Group   3 Type N   : 11s6p1d contracted to 5s3p1d pattern {62111/411/1}
 Group   4 Type H   : 5s contracted to 3s pattern {311}

Atom   0Pt   basis set group =>   1
Atom   1Cl   basis set group =>   2
Atom   2Cl   basis set group =>   2
Atom   3N    basis set group =>   3
Atom   4H    basis set group =>   4
Atom   5H    basis set group =>   4
Atom   6N    basis set group =>   3
Atom   7H    basis set group =>   4
Atom   8H    basis set group =>   4
Atom   9H    basis set group =>   4
Atom  10H    basis set group =>   4
---------------------------------
AUXILIARY/J BASIS SET INFORMATION
---------------------------------
There are 4 groups of distinct atoms

 Group   1 Type Pt  : 11s5p5d3f3g contracted to 8s5p5d2f3g pattern {41111111/11111/11111/21/111}
 Group   2 Type Cl  : 14s5p5d2f1g contracted to 8s4p3d1f1g pattern {71111111/2111/311/2/1}
 Group   3 Type N   : 8s3p3d contracted to 6s3p3d pattern {311111/111/111}
 Group   4 Type H   : 5s2p contracted to 3s1p pattern {311/2}

Atom   0Pt   basis set group =>   1
Atom   1Cl   basis set group =>   2
Atom   2Cl   basis set group =>   2
Atom   3N    basis set group =>   3
Atom   4H    basis set group =>   4
Atom   5H    basis set group =>   4
Atom   6N    basis set group =>   3
Atom   7H    basis set group =>   4
Atom   8H    basis set group =>   4
Atom   9H    basis set group =>   4
Atom  10H    basis set group =>   4
-------------------------
ECP PARAMETER INFORMATION
-------------------------

 Group 1, Type Pt ECP Def2-ECP (replacing 60 core electrons, lmax=3)

Atom   0Pt   ECP group =>   1



           ************************************************************
           *        Program running with 4 parallel MPI-processes     *
           *              working on a common directory               *
           ************************************************************
------------------------------------------------------------------------------
                           ORCA GTO INTEGRAL CALCULATION
                           -- RI-GTO INTEGRALS CHOSEN --
------------------------------------------------------------------------------

                         BASIS SET STATISTICS AND STARTUP INFO

Gaussian basis set:
 # of primitive gaussian shells          ...  135
 # of primitive gaussian functions       ...  249
 # of contracted shells                  ...   70
 # of contracted basis functions         ...  136
 Highest angular momentum                ...    2
 Maximum contraction depth               ...    7
Auxiliary gaussian basis set:
 # of primitive gaussian shells          ...  151
 # of primitive gaussian functions       ...  383
 # of contracted shells                  ...  105
 # of contracted aux-basis functions     ...  287
 Highest angular momentum                ...    4
 Maximum contraction depth               ...    7
Ratio of auxiliary to basis functions    ...  2.11
Integral package used                  ... LIBINT
 One Electron integrals                  
   ECP integrals                         ... done
 Ordering auxiliary basis shells         ... done
 Integral threshhold             Thresh  ...  2.500e-11
 Primitive cut-off               TCut    ...  2.500e-12
 Pre-screening matrix                    ... done
 Shell pair data                         ... 
 Ordering of the shell pairs             ... done (   0.001 sec) 2256 of 2485 pairs
 Determination of significant pairs      ... done (   0.000 sec)
 Creation of shell pair data             ... done (   0.001 sec)
 Storage of shell pair data              ... done (   0.060 sec)
 Shell pair data done in (   0.061 sec)
 Computing two index integrals           ... done
 Cholesky decomposition of the V-matrix  ... done


Timings:
 Total evaluation time                   ...   0.616 sec (  0.010 min)
 One electron matrix time                ...   0.316 sec (  0.005 min) = 51.3%
 Schwartz matrix evaluation time         ...   0.170 sec (  0.003 min) = 27.6%
 Two index repulsion integral time       ...   0.005 sec (  0.000 min) =  0.8%
 Cholesky decomposition of V             ...   0.035 sec (  0.001 min) =  5.7%
 Three index repulsion integral time     ...   0.000 sec (  0.000 min) =  0.0%



           ************************************************************
           *        Program running with 4 parallel MPI-processes     *
           *              working on a common directory               *
           ************************************************************
-------------------------------------------------------------------------------
                                 ORCA SCF
-------------------------------------------------------------------------------

------------
SCF SETTINGS
------------
Hamiltonian:
 Density Functional     Method          .... DFT(GTOs)
 Exchange Functional    Exchange        .... B973C
 Correlation Functional Correlation     .... B973C
 Gradients option       PostSCFGGA      .... off
   Density functional embedding theory  .... OFF
 RI-approximation to the Coulomb term is turned on
   Number of auxiliary basis functions  .... 287


General Settings:
 Integral files         IntName         .... transplatin
 Hartree-Fock type      HFTyp           .... RHF
 Total Charge           Charge          ....    0
 Multiplicity           Mult            ....    1
 Number of Electrons    NEL             ....   72
 Basis Dimension        Dim             ....  136
 Nuclear Repulsion      ENuc            ....    403.9661813260 Eh

Convergence Acceleration:
 DIIS                   CNVDIIS         .... on
   Start iteration      DIISMaxIt       ....    12
   Startup error        DIISStart       ....  0.200000
   # of expansion vecs  DIISMaxEq       ....     5
   Bias factor          DIISBfac        ....   1.050
   Max. coefficient     DIISMaxC        ....  10.000
 Newton-Raphson         CNVNR           .... off
 SOSCF                  CNVSOSCF        .... off
 Level Shifting         CNVShift        .... on
   Level shift para.    LevelShift      ....    0.2500
   Turn off err/grad.   ShiftErr        ....    0.0010
 Zerner damping         CNVZerner       .... off
 Static damping         CNVDamp         .... on
   Fraction old density DampFac         ....    0.7000
   Max. Damping (<1)    DampMax         ....    0.9800
   Min. Damping (>=0)   DampMin         ....    0.0000
   Turn off err/grad.   DampErr         ....    0.1000
 Fernandez-Rico         CNVRico         .... off

SCF Procedure:
 Maximum # iterations   MaxIter         ....   125
 SCF integral mode      SCFMode         .... Direct
   Integral package                     .... LIBINT
 Reset frequency        DirectResetFreq ....    20
 Integral Threshold     Thresh          ....  2.500e-11 Eh
 Primitive CutOff       TCut            ....  2.500e-12 Eh

Convergence Tolerance:
 Convergence Check Mode ConvCheckMode   .... Total+1el-Energy
 Convergence forced     ConvForced      .... 0
 Energy Change          TolE            ....  1.000e-08 Eh
 1-El. energy change                    ....  1.000e-05 Eh
 DIIS Error             TolErr          ....  5.000e-07


Diagonalization of the overlap matrix:
Smallest eigenvalue                        ... 2.214e-03
Time for diagonalization                   ...    0.080 sec
Threshold for overlap eigenvalues          ... 1.000e-08
Number of eigenvalues below threshold      ... 0
Time for construction of square roots      ...    0.022 sec
Total time needed                          ...    0.101 sec

--------------------
INITIAL GUESS: HCORE
--------------------
                      -----------------
                      INTIAL GUESS DONE 
                      -----------------
-------------------
DFT GRID GENERATION
-------------------

General Integration Accuracy     IntAcc      ...  4.340
Radial Grid Type                 RadialGrid  ... Gauss-Chebyshev
Angular Grid (max. acc.)         AngularGrid ... Lebedev-194
Angular grid pruning method      GridPruning ... 3 (G Style)
Weight generation scheme         WeightScheme... Becke
Basis function cutoff            BFCut       ...    1.0000e-11
Integration weight cutoff        WCut        ...    1.0000e-14
Grids for H and He will be reduced by one unit

# of grid points (after initial pruning)     ...  29822 (   0.0 sec)
# of grid points (after weights+screening)   ...  28455 (   0.0 sec)
nearest neighbour list constructed           ...    0.0 sec
Grid point re-assignment to atoms done       ...    0.0 sec
Grid point division into batches done        ...    0.1 sec
Reduced shell lists constructed in    0.2 sec

Total number of grid points                  ...    28455
Total number of batches                      ...      451
Average number of points per batch           ...       63
Average number of grid points per atom       ...     2587
Average number of shells per batch           ...    48.59 (69.41%)
Average number of basis functions per batch  ...   101.20 (74.41%)
Average number of large shells per batch     ...    40.29 (82.92%)
Average number of large basis fcns per batch ...    85.73 (84.71%)
Maximum spatial batch extension              ...  22.79, 33.50, 24.74 au
Average spatial batch extension              ...   0.69,  0.76,  0.70 au

Time for grid setup =    0.243 sec

--------------
SCF ITERATIONS
--------------
ITER       Energy         Delta-E        Max-DP      RMS-DP      [F,P]     Damp
               ***  Starting incremental Fock matrix formation  ***
  0  -1064.4370948645   0.00000000000010.20688292  0.25360063  2.1180707 0.7000
  1  -1106.2039778118 -41.766882947323 4.77084054  0.08623790  1.4981897 0.7000
  2  -1119.2740338231 -13.070056011309 3.01020788  0.07919045  1.0876012 0.7000
  3  -1129.8213646805 -10.547330857440 2.16065058  0.05580972  0.7900508 0.7000
  4  -1136.9355450631  -7.114180382539 1.54909204  0.03926707  0.5679551 0.7000
  5  -1141.8422939592  -4.906748896114 1.07689352  0.02750255  0.4060971 0.7000
  6  -1145.2390770757  -3.396783116547 0.75840138  0.01920381  0.2895462 0.7000
  7  -1147.6009725992  -2.361895523470 0.53231179  0.01340891  0.2060011 0.7000
                               ***Turning on DIIS***
  8  -1149.2497661271  -1.648793527883 0.37317054  0.00937646  0.1462567 0.7000
  9  -1150.4026341345  -1.152868007405 0.26220242  0.00657128  0.1036437 0.7000
 10  -1151.2093540911  -0.806719956660 0.61208372  0.01533476  0.0726859 0.0000
 11  -1153.0914596615  -1.882105570341 0.00499600  0.00013521  0.0012969 0.0000
 12  -1153.0914956816  -0.000036020112 0.00203129  0.00006203  0.0010123 0.0000
 13  -1153.0915059599  -0.000010278334 0.00270001  0.00007174  0.0007390 0.0000
 14  -1153.0915102904  -0.000004330511 0.00062492  0.00001472  0.0004182 0.0000
 15  -1153.0915108380  -0.000000547586 0.00012900  0.00000456  0.0001095 0.0000
 16  -1153.0915109067  -0.000000068633 0.00002792  0.00000112  0.0000480 0.0000
 17  -1153.0915108917   0.000000014918 0.00002211  0.00000057  0.0000163 0.0000
 18  -1153.0915109001  -0.000000008378 0.00000495  0.00000011  0.0000029 0.0000
                            ***DIIS convergence achieved***

               *****************************************************
               *                     SUCCESS                       *
               *           SCF CONVERGED AFTER  19 CYCLES          *
               *****************************************************

Setting up the final grid:

General Integration Accuracy     IntAcc      ...  4.670
Radial Grid Type                 RadialGrid  ... Gauss-Chebyshev
Angular Grid (max. acc.)         AngularGrid ... Lebedev-302
Angular grid pruning method      GridPruning ... 3 (G Style)
Weight generation scheme         WeightScheme... Becke
Basis function cutoff            BFCut       ...    1.0000e-11
Integration weight cutoff        WCut        ...    1.0000e-14
Grids for H and He will be reduced by one unit

# of grid points (after initial pruning)     ...  57916 (   0.0 sec)
# of grid points (after weights+screening)   ...  55013 (   0.1 sec)
nearest neighbour list constructed           ...    0.0 sec
Grid point re-assignment to atoms done       ...    0.0 sec
Grid point division into batches done        ...    0.3 sec
Reduced shell lists constructed in    0.5 sec

Total number of grid points                  ...    55013
Total number of batches                      ...      864
Average number of points per batch           ...       63
Average number of grid points per atom       ...     5001
Average number of shells per batch           ...    47.43 (67.76%)
Average number of basis functions per batch  ...    98.76 (72.62%)
Average number of large shells per batch     ...    38.83 (81.87%)
Average number of large basis fcns per batch ...    82.44 (83.47%)
Maximum spatial batch extension              ...  22.86, 31.96, 24.85 au
Average spatial batch extension              ...   0.54,  0.61,  0.56 au

Final grid set up in    0.7 sec
Final integration                            ... done (   0.3 sec)
Change in XC energy                          ...     0.000545425
Integrated number of electrons               ...    71.999946973
Previous integrated no of electrons          ...    72.000114588

----------------
TOTAL SCF ENERGY
----------------

Total Energy       :        -1153.09096546 Eh          -31377.20036 eV

Components:
Nuclear Repulsion  :          403.96618133 Eh           10992.47864 eV
Electronic Energy  :        -1557.05714679 Eh          -42369.67900 eV
One Electron Energy:        -2439.93255912 Eh          -66393.94034 eV
Two Electron Energy:          882.87541233 Eh           24024.26134 eV

Virial components:
Potential Energy   :        -2224.75509148 Eh          -60538.66377 eV
Kinetic Energy     :         1071.66412602 Eh           29161.46341 eV
Virial Ratio       :            2.07598168


DFT components:
N(Alpha)           :       35.999973486330 electrons
N(Beta)            :       35.999973486330 electrons
N(Total)           :       71.999946972660 electrons
E(XC)              :      -84.290438620437 Eh       
DFET-embed. en.    :        0.000000000000 Eh       

---------------
SCF CONVERGENCE
---------------

  Last Energy change         ...    1.0087e-08  Tolerance :   1.0000e-08
  Last MAX-Density change    ...    1.3156e-06  Tolerance :   1.0000e-07
  Last RMS-Density change    ...    3.0636e-08  Tolerance :   5.0000e-09
  Last DIIS Error            ...    5.8445e-07  Tolerance :   5.0000e-07

             **** THE GBW FILE WAS UPDATED (transplatin.gbw) ****
             **** DENSITY FILE WAS UPDATED (transplatin.scfp) ****
             **** ENERGY FILE WAS UPDATED (transplatin.en.tmp) ****
             **** THE GBW FILE WAS UPDATED (transplatin.gbw) ****
             **** DENSITY FILE WAS UPDATED (transplatin.scfp) ****
----------------
ORBITAL ENERGIES
----------------

  NO   OCC          E(Eh)            E(eV) 
   0   2.0000    -100.578756     -2736.8871 
   1   2.0000    -100.578746     -2736.8868 
   2   2.0000     -14.075210      -383.0059 
   3   2.0000     -14.075205      -383.0058 
   4   2.0000      -9.164393      -249.3758 
   5   2.0000      -9.164380      -249.3754 
   6   2.0000      -6.997164      -190.4025 
   7   2.0000      -6.997155      -190.4023 
   8   2.0000      -6.989812      -190.2025 
   9   2.0000      -6.989801      -190.2021 
  10   2.0000      -6.989441      -190.1923 
  11   2.0000      -6.989431      -190.1921 
  12   2.0000      -3.782744      -102.9337 
  13   2.0000      -2.082311       -56.6626 
  14   2.0000      -2.073529       -56.4236 
  15   2.0000      -2.033262       -55.3279 
  16   2.0000      -0.861049       -23.4303 
  17   2.0000      -0.853854       -23.2345 
  18   2.0000      -0.684058       -18.6142 
  19   2.0000      -0.675052       -18.3691 
  20   2.0000      -0.496873       -13.5206 
  21   2.0000      -0.496609       -13.5134 
  22   2.0000      -0.492203       -13.3935 
  23   2.0000      -0.489145       -13.3103 
  24   2.0000      -0.431250       -11.7349 
  25   2.0000      -0.344724        -9.3804 
  26   2.0000      -0.342933        -9.3317 
  27   2.0000      -0.277414        -7.5488 
  28   2.0000      -0.271398        -7.3851 
  29   2.0000      -0.264211        -7.1896 
  30   2.0000      -0.238809        -6.4983 
  31   2.0000      -0.236621        -6.4388 
  32   2.0000      -0.219434        -5.9711 
  33   2.0000      -0.202706        -5.5159 
  34   2.0000      -0.198424        -5.3994 
  35   2.0000      -0.177740        -4.8366 
  36   0.0000      -0.083669        -2.2768 
  37   0.0000      -0.024055        -0.6546 
  38   0.0000      -0.007725        -0.2102 
  39   0.0000       0.023007         0.6260 
  40   0.0000       0.054322         1.4782 
  41   0.0000       0.055586         1.5126 
  42   0.0000       0.056098         1.5265 
  43   0.0000       0.061860         1.6833 
  44   0.0000       0.083487         2.2718 
  45   0.0000       0.111249         3.0272 
  46   0.0000       0.128489         3.4964 
  47   0.0000       0.180461         4.9106 
  48   0.0000       0.238012         6.4766 
  49   0.0000       0.242554         6.6002 
  50   0.0000       0.274776         7.4770 
  51   0.0000       0.286735         7.8024 
  52   0.0000       0.300953         8.1893 
  53   0.0000       0.311481         8.4758 
  54   0.0000       0.314752         8.5648 
  55   0.0000       0.317206         8.6316 
  56   0.0000       0.334808         9.1106 
  57   0.0000       0.358686         9.7603 
  58   0.0000       0.371721        10.1150 
  59   0.0000       0.377055        10.2602 
  60   0.0000       0.382833        10.4174 
  61   0.0000       0.402620        10.9558 
  62   0.0000       0.405578        11.0363 
  63   0.0000       0.411088        11.1863 
  64   0.0000       0.421637        11.4733 
  65   0.0000       0.426297        11.6001 
  66   0.0000       0.429996        11.7008 
  67   0.0000       0.435620        11.8538 
  68   0.0000       0.463304        12.6072 
  69   0.0000       0.486232        13.2310 
  70   0.0000       0.489042        13.3075 
  71   0.0000       0.523110        14.2345 
  72   0.0000       0.550554        14.9813 
  73   0.0000       0.572800        15.5867 
  74   0.0000       0.598440        16.2844 
  75   0.0000       0.693612        18.8741 
  76   0.0000       0.710037        19.3211 
  77   0.0000       0.715869        19.4798 
  78   0.0000       0.721815        19.6416 
  79   0.0000       0.753826        20.5127 
  80   0.0000       0.758644        20.6437 
  81   0.0000       0.808891        22.0110 
  82   0.0000       0.819166        22.2906 
  83   0.0000       0.829630        22.5754 
  84   0.0000       0.865814        23.5600 
  85   0.0000       0.893105        24.3026 
  86   0.0000       1.105066        30.0704 
  87   0.0000       1.115729        30.3605 
  88   0.0000       1.257343        34.2140 
  89   0.0000       1.322924        35.9986 
  90   0.0000       1.357531        36.9403 
  91   0.0000       1.436172        39.0802 
  92   0.0000       1.516867        41.2761 
  93   0.0000       1.526429        41.5363 
  94   0.0000       1.555133        42.3173 
  95   0.0000       1.664747        45.3001 
  96   0.0000       1.668213        45.3944 
  97   0.0000       1.680142        45.7190 
  98   0.0000       1.684496        45.8375 
  99   0.0000       1.701437        46.2985 
 100   0.0000       1.712418        46.5973 
 101   0.0000       1.722397        46.8688 
 102   0.0000       1.791951        48.7615 
 103   0.0000       1.952255        53.1236 
 104   0.0000       1.953569        53.1593 
 105   0.0000       1.960943        53.3600 
 106   0.0000       1.981276        53.9133 
 107   0.0000       1.991333        54.1869 
 108   0.0000       1.995581        54.3025 
 109   0.0000       2.058085        56.0034 
 110   0.0000       2.249181        61.2033 
 111   0.0000       2.258687        61.4620 
 112   0.0000       2.274120        61.8820 
 113   0.0000       2.290512        62.3280 
 114   0.0000       2.302764        62.6614 
 115   0.0000       2.326080        63.2959 
 116   0.0000       2.489872        67.7529 
 117   0.0000       2.601187        70.7819 
 118   0.0000       2.625838        71.4527 
 119   0.0000       2.831033        77.0363 
 120   0.0000       2.850946        77.5782 
 121   0.0000       2.868736        78.0623 
 122   0.0000       2.892316        78.7039 
 123   0.0000       2.897664        78.8495 
 124   0.0000       3.556368        96.7737 
 125   0.0000       3.821935       104.0001 
 126   0.0000       3.938636       107.1757 
 127   0.0000      24.427555       664.7076 
 128   0.0000      24.728232       672.8894 
 129   0.0000      31.217092       849.4603 
 130   0.0000      31.326521       852.4380 
 131   0.0000      51.406701      1398.8475 
 132   0.0000      51.606746      1404.2909 
 133   0.0000      51.723133      1407.4580 
 134   0.0000      52.559587      1430.2191 
 135   0.0000     286.285846      7790.2339 

                    ********************************
                    * MULLIKEN POPULATION ANALYSIS *
                    ********************************

-----------------------
MULLIKEN ATOMIC CHARGES
-----------------------
   0 Pt:    0.279933
   1 Cl:   -0.459264
   2 Cl:   -0.459265
   3 N :   -0.801002
   4 H :    0.370715
   5 H :    0.374636
   6 N :   -0.799770
   7 H :    0.374358
   8 H :    0.374519
   9 H :    0.370436
  10 H :    0.374704
Sum of atomic charges:   -0.0000000

--------------------------------
MULLIKEN REDUCED ORBITAL CHARGES
--------------------------------
  0 Pts       :     2.824327  s :     2.824327
      pz      :     2.070940  p :     6.235421
      px      :     2.093662
      py      :     2.070820
      dz2     :     1.293259  d :     8.660319
      dxz     :     1.833123
      dyz     :     1.854848
      dx2y2   :     1.695632
      dxy     :     1.983457
  1 Cls       :     5.964963  s :     5.964963
      pz      :     3.935650  p :    11.472636
      px      :     3.588975
      py      :     3.948011
      dz2     :     0.002284  d :     0.021666
      dxz     :     0.005885
      dyz     :     0.000603
      dx2y2   :     0.006451
      dxy     :     0.006443
  2 Cls       :     5.964981  s :     5.964981
      pz      :     3.935277  p :    11.472622
      px      :     3.589447
      py      :     3.947899
      dz2     :     0.002277  d :     0.021662
      dxz     :     0.005893
      dyz     :     0.000603
      dx2y2   :     0.006460
      dxy     :     0.006427
  3 N s       :     3.567752  s :     3.567752
      pz      :     1.529121  p :     4.197531
      px      :     1.334327
      py      :     1.334083
      dz2     :     0.004864  d :     0.035719
      dxz     :     0.005528
      dyz     :     0.011530
      dx2y2   :     0.006200
      dxy     :     0.007596
  4 H s       :     0.629285  s :     0.629285
  5 H s       :     0.625364  s :     0.625364
  6 N s       :     3.567341  s :     3.567341
      pz      :     1.528275  p :     4.196715
      px      :     1.334422
      py      :     1.334017
      dz2     :     0.005022  d :     0.035713
      dxz     :     0.006435
      dyz     :     0.010441
      dx2y2   :     0.008182
      dxy     :     0.005633
  7 H s       :     0.625642  s :     0.625642
  8 H s       :     0.625481  s :     0.625481
  9 H s       :     0.629564  s :     0.629564
 10 H s       :     0.625296  s :     0.625296


                     *******************************
                     * LOEWDIN POPULATION ANALYSIS *
                     *******************************

----------------------
LOEWDIN ATOMIC CHARGES
----------------------
   0 Pt:   -0.504505
   1 Cl:   -0.132593
   2 Cl:   -0.132630
   3 N :   -0.515556
   4 H :    0.296070
   5 H :    0.301880
   6 N :   -0.515402
   7 H :    0.301899
   8 H :    0.302363
   9 H :    0.296016
  10 H :    0.302459

-------------------------------
LOEWDIN REDUCED ORBITAL CHARGES
-------------------------------
  0 Pts       :     2.582676  s :     2.582676
      pz      :     2.197152  p :     6.601419
      px      :     2.292293
      py      :     2.111975
      dz2     :     1.518617  d :     9.320410
      dxz     :     1.965989
      dyz     :     1.921609
      dx2y2   :     1.856952
      dxy     :     2.057243
  1 Cls       :     5.732628  s :     5.732628
      pz      :     3.887165  p :    11.375443
      px      :     3.584013
      py      :     3.904265
      dz2     :     0.002548  d :     0.024522
      dxz     :     0.006977
      dyz     :     0.000648
      dx2y2   :     0.007161
      dxy     :     0.007188
  2 Cls       :     5.732635  s :     5.732635
      pz      :     3.886928  p :    11.375480
      px      :     3.584467
      py      :     3.904085
      dz2     :     0.002528  d :     0.024515
      dxz     :     0.007001
      dyz     :     0.000647
      dx2y2   :     0.007180
      dxy     :     0.007159
  3 N s       :     3.294831  s :     3.294831
      pz      :     1.551618  p :     4.170536
      px      :     1.309855
      py      :     1.309064
      dz2     :     0.007001  d :     0.050189
      dxz     :     0.008026
      dyz     :     0.015966
      dx2y2   :     0.008646
      dxy     :     0.010549
  4 H s       :     0.703930  s :     0.703930
  5 H s       :     0.698120  s :     0.698120
  6 N s       :     3.294816  s :     3.294816
      pz      :     1.550757  p :     4.170397
      px      :     1.309853
      py      :     1.309787
      dz2     :     0.007240  d :     0.050190
      dxz     :     0.009264
      dyz     :     0.014441
      dx2y2   :     0.011333
      dxy     :     0.007913
  7 H s       :     0.698101  s :     0.698101
  8 H s       :     0.697637  s :     0.697637
  9 H s       :     0.703984  s :     0.703984
 10 H s       :     0.697541  s :     0.697541


                      *****************************
                      * MAYER POPULATION ANALYSIS *
                      *****************************

  NA   - Mulliken gross atomic population
  ZA   - Total nuclear charge
  QA   - Mulliken gross atomic charge
  VA   - Mayer's total valence
  BVA  - Mayer's bonded valence
  FA   - Mayer's free valence

  ATOM       NA         ZA         QA         VA         BVA        FA
  0 Pt    17.7201    18.0000     0.2799     2.3768     2.3768    -0.0000
  1 Cl    17.4593    17.0000    -0.4593     0.8975     0.8975    -0.0000
  2 Cl    17.4593    17.0000    -0.4593     0.8976     0.8976    -0.0000
  3 N      7.8010     7.0000    -0.8010     3.0535     3.0535    -0.0000
  4 H      0.6293     1.0000     0.3707     0.8566     0.8566    -0.0000
  5 H      0.6254     1.0000     0.3746     0.8431     0.8431    -0.0000
  6 N      7.7998     7.0000    -0.7998     3.0536     3.0536    -0.0000
  7 H      0.6256     1.0000     0.3744     0.8430     0.8430    -0.0000
  8 H      0.6255     1.0000     0.3745     0.8406     0.8406    -0.0000
  9 H      0.6296     1.0000     0.3704     0.8569     0.8569    -0.0000
 10 H      0.6253     1.0000     0.3747     0.8404     0.8404    -0.0000

  Mayer bond orders larger than 0.100000
B(  0-Pt,  1-Cl) :   0.7094 B(  0-Pt,  2-Cl) :   0.7094 B(  0-Pt,  3-N ) :   0.4840 
B(  0-Pt,  6-N ) :   0.4840 B(  1-Cl,  2-Cl) :   0.1242 B(  3-N ,  4-H ) :   0.8196 
B(  3-N ,  5-H ) :   0.8327 B(  3-N , 10-H ) :   0.8346 B(  6-N ,  7-H ) :   0.8331 
B(  6-N ,  8-H ) :   0.8346 B(  6-N ,  9-H ) :   0.8197 

-------
TIMINGS
-------

Total SCF time: 0 days 0 hours 0 min 10 sec 

Total time                  ....      10.725 sec
Sum of individual times     ....       9.986 sec  ( 93.1%)

Fock matrix formation       ....       8.461 sec  ( 78.9%)
  Split-RI-J                ....       3.840 sec  ( 45.4% of F)
  XC integration            ....       4.367 sec  ( 51.6% of F)
    Basis function eval.    ....       0.761 sec  ( 17.4% of XC)
    Density eval.           ....       1.057 sec  ( 24.2% of XC)
    XC-Functional eval.     ....       0.628 sec  ( 14.4% of XC)
    XC-Potential eval.      ....       0.874 sec  ( 20.0% of XC)
Diagonalization             ....       0.290 sec  (  2.7%)
Density matrix formation    ....       0.068 sec  (  0.6%)
Population analysis         ....       0.024 sec  (  0.2%)
Initial guess               ....       0.011 sec  (  0.1%)
Orbital Transformation      ....       0.000 sec  (  0.0%)
Orbital Orthonormalization  ....       0.000 sec  (  0.0%)
DIIS solution               ....       0.179 sec  (  1.7%)
Grid generation             ....       0.953 sec  (  8.9%)


-------------------------------------------------------------------------------
                          DFT DISPERSION CORRECTION                            
                                                                               
                              DFTD3 V3.1  Rev 1                                
                          USING Becke-Johnson damping                          
-------------------------------------------------------------------------------
The B97-3c composite method is recognized
Using three-body term ABC
Active option DFTDOPT                   ...         4   

molecular C6(AA) [au] = 3120.749171 


            DFT-D V3
 parameters
 s6 scaling factor         :     1.0000 
 a1 scaling factor         :     0.3700 
 s8 scaling factor         :     1.5000 
 a2 scaling factor         :     4.1000 
 Damping factor alpha9(ATM):    16.0000 
 ad hoc parameters k1-k3   :    16.0000     1.3333    -4.0000 

 Edisp/kcal,au: -18.361652314637  -0.029261152405 
 E6   /kcal   :  -7.824212837 
 E8   /kcal   : -10.552906821 
 E6(ABC)      :   0.015467344 
 % E8         :  57.472533735 
 % E6(ABC)    :  -0.084237209 

-------------------------   ----------------
Dispersion correction           -0.029261152
-------------------------   ----------------

------------------   -----------------
SRB correction            -0.023015780
------------------   -----------------

-------------------------   --------------------
FINAL SINGLE POINT ENERGY     -1153.143242396723
-------------------------   --------------------



           ************************************************************
           *        Program running with 4 parallel MPI-processes     *
           *              working on a common directory               *
           ************************************************************
------------------------------------------------------------------------------
                         ORCA SCF GRADIENT CALCULATION
------------------------------------------------------------------------------

Gradient of the Kohn-Sham DFT energy:
Kohn-Sham wavefunction type      ... RKS
Hartree-Fock exchange scaling    ...    0.000
Number of operators              ...    1
Number of atoms                  ...   11
Basis set dimensions             ...  136
Integral neglect threshold       ... 2.5e-11
Integral primitive cutoff        ... 2.5e-12

Nuclear repulsion gradient       ... done
One Electron Gradient            
  ECP gradient                   ... done
Pre-screening matrix             ... done
RI-J gradient                    ... done
Exchange-correlation gradient    ... done
Dispersion correction            ... done
SRB correction                   ... done

------------------
CARTESIAN GRADIENT
------------------

   1   Pt  :    0.000025885    0.000329376   -0.000091598
   2   Cl  :   -0.005695188    0.000301018   -0.001627816
   3   Cl  :    0.005625184   -0.000851359    0.001741855
   4   N   :    0.002221920   -0.004615414   -0.014200810
   5   H   :   -0.020506870    0.006995879    0.002594034
   6   H   :    0.013882043    0.019450321    0.002939777
   7   N   :   -0.002304189    0.003118510    0.014575143
   8   H   :   -0.006989330    0.019623456   -0.012204723
   9   H   :   -0.011227321   -0.021335967   -0.001631572
  10   H   :    0.021280787   -0.002162478   -0.003742565
  11   H   :    0.003687080   -0.020853342    0.011648276

Difference to translation invariance:
           :   -0.0000000000   -0.0000000000   -0.0000000001

Norm of the cartesian gradient     ...    0.0616802670
RMS gradient                       ...    0.0107371563
MAX gradient                       ...    0.0213359674

-------
TIMINGS
-------

Total SCF gradient time            ...        3.134 sec

One electron gradient       ....       0.774 sec  ( 24.7%)
Prescreening matrices       ....       0.047 sec  (  1.5%)
RI-J Coulomb gradient       ....       0.413 sec  ( 13.2%)
XC gradient                 ....       1.583 sec  ( 50.5%)
------------------------------------------------------------------------------
                         ORCA GEOMETRY RELAXATION STEP
------------------------------------------------------------------------------

Reading the OPT-File                    .... done
Getting information on internals        .... done
Copying old internal coords+grads       .... done
Making the new internal coordinates     .... (new redundants).... done
Validating the new internal coordinates .... (new redundants).... done
Calculating the B-matrix                .... done
Calculating the G,G- and P matrices     .... done
Transforming gradient to internals      .... done
Projecting the internal gradient        .... done
Number of atoms                         ....  11
Number of internal coordinates          ....  47
Current Energy                          .... -1153.143242397 Eh
Current gradient norm                   ....     0.061680267 Eh/bohr
Maximum allowed component of the step   ....  0.300
Current trust radius                    ....  0.300
Evaluating the initial hessian          ....  (Almloef) done
Projecting the Hessian                  .... done
Forming the augmented Hessian           .... done
Diagonalizing the augmented Hessian     .... done
Last element of RFO vector              ....  0.977056217
Lowest eigenvalues of augmented Hessian:
 -0.009943644  0.001515661  0.001553447  0.001712763  0.001756817
Length of the computed step             ....  0.217982924
The final length of the internal step   ....  0.217982924
Converting the step to cartesian space:
 Initial RMS(Int)=    0.0317960774
Transforming coordinates:
 Iter   0:  RMS(Cart)=    0.0686077198 RMS(Int)=    0.0315432134
 Iter   1:  RMS(Cart)=    0.0020623065 RMS(Int)=    0.0006959599
 Iter   2:  RMS(Cart)=    0.0001079645 RMS(Int)=    0.0000424169
 Iter   3:  RMS(Cart)=    0.0000060752 RMS(Int)=    0.0000025146
 Iter   4:  RMS(Cart)=    0.0000003264 RMS(Int)=    0.0000001504
 Iter   5:  RMS(Cart)=    0.0000000150 RMS(Int)=    0.0000000077
done
Storing new coordinates                 .... done

                                .--------------------.
          ----------------------|Geometry convergence|-------------------------
          Item                value                   Tolerance       Converged
          ---------------------------------------------------------------------
          RMS gradient        0.0085037673            0.0000300000      NO
          MAX gradient        0.0239547841            0.0001000000      NO
          RMS step            0.0317960774            0.0006000000      NO
          MAX step            0.0913096637            0.0010000000      NO
          ........................................................
          Max(Bonds)      0.0483      Max(Angles)    0.88
          Max(Dihed)        1.51      Max(Improp)    0.00
          ---------------------------------------------------------------------

The optimization has not yet converged - more geometry cycles are needed


    ---------------------------------------------------------------------------
                         Redundant Internal Coordinates
                            (Angstroem and degrees)

        Definition                    Value    dE/dq     Step     New-Value
    ----------------------------------------------------------------------------
     1. B(Cl  1,Pt  0)                2.3618  0.005903 -0.0481    2.3137   
     2. B(Cl  2,Pt  0)                2.3619  0.005923 -0.0483    2.3136   
     3. B(N   3,Pt  0)                2.0518  0.003208 -0.0216    2.0302   
     4. B(H   4,N   3)                1.0439  0.021809 -0.0294    1.0145   
     5. B(H   5,N   3)                1.0443  0.023840 -0.0322    1.0121   
     6. B(N   6,Pt  0)                2.0518  0.003180 -0.0215    2.0304   
     7. B(H   7,N   6)                1.0444  0.023915 -0.0323    1.0121   
     8. B(H   8,N   6)                1.0444  0.023944 -0.0324    1.0120   
     9. B(H   9,N   6)                1.0438  0.021706 -0.0293    1.0145   
    10. B(H  10,N   3)                1.0443  0.023955 -0.0324    1.0120   
    11. A(Cl  2,Pt  0,N   6)           90.32  0.001106   -0.28     90.04   
    12. A(Cl  1,Pt  0,N   6)           89.68 -0.001153    0.28     89.96   
    13. A(Cl  1,Pt  0,N   3)           90.32  0.001127   -0.28     90.04   
    14. A(Cl  2,Pt  0,N   3)           89.68 -0.001081    0.26     89.94   
    15. A(Pt  0,N   3,H   4)          110.42  0.000876   -0.11    110.32   
    16. A(Pt  0,N   3,H  10)          109.08 -0.003246    0.61    109.68   
    17. A(H   4,N   3,H  10)          109.43  0.001222   -0.20    109.23   
    18. A(H   5,N   3,H  10)          109.50  0.003464   -0.88    108.62   
    19. A(H   4,N   3,H   5)          109.26  0.000539    0.01    109.27   
    20. A(Pt  0,N   3,H   5)          109.13 -0.002831    0.56    109.69   
    21. A(H   8,N   6,H   9)          109.42  0.001166   -0.18    109.24   
    22. A(H   7,N   6,H   9)          109.28  0.000602   -0.02    109.25   
    23. A(Pt  0,N   6,H   9)          110.43  0.000917   -0.12    110.31   
    24. A(H   7,N   6,H   8)          109.50  0.003486   -0.87    108.62   
    25. A(Pt  0,N   6,H   8)          109.08 -0.003223    0.61    109.69   
    26. A(Pt  0,N   6,H   7)          109.12 -0.002923    0.57    109.70   
    27. D(H   5,N   3,Pt  0,Cl  1)   -125.83  0.000187    0.76   -125.08   
    28. D(H   4,N   3,Pt  0,Cl  1)     -5.72 -0.000396    1.05     -4.66   
    29. D(H   4,N   3,Pt  0,Cl  2)    174.44  0.000012   -0.96    173.48   
    30. D(H  10,N   3,Pt  0,Cl  2)    -65.27  0.000006   -0.88    -66.15   
    31. D(H   5,N   3,Pt  0,Cl  2)     54.32  0.000595   -1.25     53.07   
    32. D(H  10,N   3,Pt  0,Cl  1)    114.57 -0.000403    1.13    115.70   
    33. D(H   7,N   6,Pt  0,Cl  1)     55.23  0.000570   -1.21     54.03   
    34. D(H   7,N   6,N   3,H   4)     49.51  0.000198    0.19     49.70   
    35. D(H   9,N   6,Pt  0,Cl  2)     -4.79 -0.000378    1.07     -3.73   
    36. D(H   9,N   6,Pt  0,Cl  1)    175.37  0.000031   -0.94    174.42   
    37. D(H   9,N   6,N   3,H   5)     49.53  0.000248    0.15     49.68   
    38. D(H   8,N   6,Pt  0,Cl  2)    115.49 -0.000415    1.16    116.65   
    39. D(H   7,N   6,N   3,H   5)    -70.60  0.000696   -1.17    -71.77   
    40. D(H   7,N   6,N   3,H  10)    169.80  0.000108   -0.69    169.11   
    41. D(H   8,N   6,N   3,H  10)     50.22 -0.000453   -0.25     49.97   
    42. D(H   8,N   6,Pt  0,Cl  1)    -64.35 -0.000006   -0.85    -65.20   
    43. D(H   8,N   6,N   3,H   5)    169.81  0.000136   -0.73    169.09   
    44. D(H   9,N   6,N   3,H   4)    169.65 -0.000251    1.51    171.15   
    45. D(H   8,N   6,N   3,H   4)    -70.07 -0.000363    0.63    -69.44   
    46. D(H   9,N   6,N   3,H  10)    -70.06 -0.000341    0.63    -69.44   
    47. D(H   7,N   6,Pt  0,Cl  2)   -124.93  0.000161    0.80   -124.12   
    ----------------------------------------------------------------------------

         *************************************************************
         *                GEOMETRY OPTIMIZATION CYCLE   2            *
         *************************************************************
---------------------------------
CARTESIAN COORDINATES (ANGSTROEM)
---------------------------------
  Pt    -4.464785   -1.077605   -2.100732
  Cl    -6.708682   -0.766405   -2.571037
  Cl    -2.208779   -1.316893   -1.647141
  N     -4.807023   -0.620646   -0.152501
  H     -5.772805   -0.339138   -0.021225
  H     -4.197220    0.135058    0.132797
  N     -4.143441   -1.658870   -4.019389
  H     -4.489077   -0.949560   -4.653194
  H     -4.637419   -2.523220   -4.201133
  H     -3.152183   -1.799575   -4.183321
  H     -4.613696   -1.428081    0.426058

----------------------------
CARTESIAN COORDINATES (A.U.)
----------------------------
  NO LB      ZA    FRAG     MASS         X           Y           Z
   0 Pt   18.0000*   0   195.090   -8.437221   -2.036378   -3.969809
   1 Cl   17.0000    0    35.453  -12.677571   -1.448295   -4.858556
   2 Cl   17.0000    0    35.453   -4.173987   -2.488568   -3.112645
   3 N     7.0000    0    14.007   -9.083956   -1.172852   -0.288186
   4 H     1.0000    0     1.008  -10.909021   -0.640878   -0.040109
   5 H     1.0000    0     1.008   -7.931597    0.255223    0.250949
   6 N     7.0000    0    14.007   -7.829969   -3.134809   -7.595545
   7 H     1.0000    0     1.008   -8.483127   -1.794408   -8.793262
   8 H     1.0000    0     1.008   -8.763451   -4.768195   -7.938991
   9 H     1.0000    0     1.008   -5.956763   -3.400705   -7.905331
  10 H     1.0000    0     1.008   -8.718622   -2.698682    0.805132
* core charge reduced due to ECP

--------------------------------
INTERNAL COORDINATES (ANGSTROEM)
--------------------------------
 Pt     0   0   0     0.000000000000     0.00000000     0.00000000
 Cl     1   0   0     2.313677768832     0.00000000     0.00000000
 Cl     1   2   0     2.313561903445   178.14715096     0.00000000
 N      1   2   3     2.030158073733    90.07453777    91.44930851
 H      4   1   2     1.014503054932   110.31104470   355.35075202
 H      4   1   2     1.012098132396   109.69463485   234.94437473
 N      1   2   5     2.030363039384    89.99509923   178.19934729
 H      7   1   2     1.012073608652   109.70000603    54.04767282
 H      7   1   2     1.012001078275   109.69241766   294.80488901
 H      7   1   2     1.014526950409   110.30630284   174.43775084
 H      4   1   2     1.011956849312   109.68516124   115.70425280

---------------------------
INTERNAL COORDINATES (A.U.)
---------------------------
 Pt     0   0   0     0.000000000000     0.00000000     0.00000000
 Cl     1   0   0     4.372217345235     0.00000000     0.00000000
 Cl     1   2   0     4.371998391385   178.14715096     0.00000000
 N      1   2   3     3.836442767924    90.07453777    91.44930851
 H      4   1   2     1.917132935849   110.31104470   355.35075202
 H      4   1   2     1.912588290882   109.69463485   234.94437473
 N      1   2   5     3.836830096871    89.99509923   178.19934729
 H      7   1   2     1.912541947722   109.70000603    54.04767282
 H      7   1   2     1.912404885173   109.69241766   294.80488901
 H      7   1   2     1.917178091755   110.30630284   174.43775084
 H      4   1   2     1.912321304545   109.68516124   115.70425280



           ************************************************************
           *        Program running with 4 parallel MPI-processes     *
           *              working on a common directory               *
           ************************************************************
 One Electron integrals                  ... done
 Pre-screening matrix                    ... done


           ************************************************************
           *        Program running with 4 parallel MPI-processes     *
           *              working on a common directory               *
           ************************************************************

Diagonalization of the overlap matrix:
Smallest eigenvalue                        ... 2.100e-03
Time for diagonalization                   ...    0.005 sec
Threshold for overlap eigenvalues          ... 1.000e-08
Number of eigenvalues below threshold      ... 0
Time for construction of square roots      ...    0.012 sec
Total time needed                          ...    0.017 sec

-------------------
DFT GRID GENERATION
-------------------

General Integration Accuracy     IntAcc      ...  4.340
Radial Grid Type                 RadialGrid  ... Gauss-Chebyshev
Angular Grid (max. acc.)         AngularGrid ... Lebedev-194
Angular grid pruning method      GridPruning ... 3 (G Style)
Weight generation scheme         WeightScheme... Becke
Basis function cutoff            BFCut       ...    1.0000e-11
Integration weight cutoff        WCut        ...    1.0000e-14
Grids for H and He will be reduced by one unit

# of grid points (after initial pruning)     ...  29822 (   0.0 sec)
# of grid points (after weights+screening)   ...  28433 (   0.0 sec)
nearest neighbour list constructed           ...    0.0 sec
Grid point re-assignment to atoms done       ...    0.0 sec
Grid point division into batches done        ...    0.1 sec
Reduced shell lists constructed in    0.2 sec

Total number of grid points                  ...    28433
Total number of batches                      ...      449
Average number of points per batch           ...       63
Average number of grid points per atom       ...     2585
Average number of shells per batch           ...    49.13 (70.19%)
Average number of basis functions per batch  ...   102.34 (75.25%)
Average number of large shells per batch     ...    40.87 (83.18%)
Average number of large basis fcns per batch ...    87.06 (85.07%)
Maximum spatial batch extension              ...  22.79, 33.50, 24.20 au
Average spatial batch extension              ...   0.67,  0.75,  0.67 au

Time for grid setup =    0.279 sec

--------------
SCF ITERATIONS
--------------
ITER       Energy         Delta-E        Max-DP      RMS-DP      [F,P]     Damp
               ***  Starting incremental Fock matrix formation  ***
  0  -1153.0891194421   0.000000000000 0.00401837  0.00019967  0.1460152 0.7000
  1  -1153.0900897449  -0.000970302847 0.00366554  0.00017100  0.1022569 0.7000
                               ***Turning on DIIS***
  2  -1153.0906406259  -0.000550881040 0.00892538  0.00041898  0.0715768 0.0000
  3  -1153.0918659735  -0.001225347558 0.00252856  0.00010422  0.0041280 0.0000
  4  -1153.0918751027  -0.000009129211 0.00115709  0.00003855  0.0041980 0.0000
  5  -1153.0919168338  -0.000041731116 0.00044066  0.00002591  0.0009407 0.0000
  6  -1153.0919191786  -0.000002344779 0.00066361  0.00001604  0.0004002 0.0000
  7  -1153.0919194318  -0.000000253194 0.00030583  0.00000736  0.0003229 0.0000
  8  -1153.0919197843  -0.000000352470 0.00002484  0.00000106  0.0000271 0.0000
  9  -1153.0919197831   0.000000001130 0.00001023  0.00000040  0.0000097 0.0000
 10  -1153.0919197891  -0.000000005932 0.00000099  0.00000005  0.0000015 0.0000
                 **** Energy Check signals convergence ****

               *****************************************************
               *                     SUCCESS                       *
               *           SCF CONVERGED AFTER  11 CYCLES          *
               *****************************************************

Setting up the final grid:

General Integration Accuracy     IntAcc      ...  4.670
Radial Grid Type                 RadialGrid  ... Gauss-Chebyshev
Angular Grid (max. acc.)         AngularGrid ... Lebedev-302
Angular grid pruning method      GridPruning ... 3 (G Style)
Weight generation scheme         WeightScheme... Becke
Basis function cutoff            BFCut       ...    1.0000e-11
Integration weight cutoff        WCut        ...    1.0000e-14
Grids for H and He will be reduced by one unit

# of grid points (after initial pruning)     ...  57916 (   0.0 sec)
# of grid points (after weights+screening)   ...  54933 (   0.1 sec)
nearest neighbour list constructed           ...    0.0 sec
Grid point re-assignment to atoms done       ...    0.0 sec
Grid point division into batches done        ...    0.4 sec
Reduced shell lists constructed in    0.6 sec

Total number of grid points                  ...    54933
Total number of batches                      ...      863
Average number of points per batch           ...       63
Average number of grid points per atom       ...     4994
Average number of shells per batch           ...    47.82 (68.32%)
Average number of basis functions per batch  ...    99.43 (73.11%)
Average number of large shells per batch     ...    39.16 (81.88%)
Average number of large basis fcns per batch ...    83.14 (83.62%)
Maximum spatial batch extension              ...  22.95, 31.96, 24.85 au
Average spatial batch extension              ...   0.53,  0.61,  0.56 au

Final grid set up in    0.7 sec
Final integration                            ... done (   0.5 sec)
Change in XC energy                          ...     0.000701062
Integrated number of electrons               ...    71.999945923
Previous integrated no of electrons          ...    72.000272622
Total Energy       :        -1153.09121872 Eh          -31377.20725 eV
  Last Energy change         ...    3.1648e-09  Tolerance :   1.0000e-08
  Last MAX-Density change    ...    5.5770e-07  Tolerance :   1.0000e-07
             **** THE GBW FILE WAS UPDATED (transplatin.gbw) ****
             **** DENSITY FILE WAS UPDATED (transplatin.scfp) ****
             **** ENERGY FILE WAS UPDATED (transplatin.en.tmp) ****
             **** THE GBW FILE WAS UPDATED (transplatin.gbw) ****
             **** DENSITY FILE WAS UPDATED (transplatin.scfp) ****
Total SCF time: 0 days 0 hours 0 min 6 sec 


-------------------------------------------------------------------------------
                          DFT DISPERSION CORRECTION                            
                                                                               
                              DFTD3 V3.1  Rev 1                                
                          USING Becke-Johnson damping                          
-------------------------------------------------------------------------------
-------------------------   ----------------
Dispersion correction           -0.029819225
-------------------------   ----------------

------------------   -----------------
SRB correction            -0.026139271
------------------   -----------------

-------------------------   --------------------
FINAL SINGLE POINT ENERGY     -1153.147177220691
-------------------------   --------------------



           ************************************************************
           *        Program running with 4 parallel MPI-processes     *
           *              working on a common directory               *
           ************************************************************
------------------------------------------------------------------------------
                         ORCA SCF GRADIENT CALCULATION
------------------------------------------------------------------------------

Gradient of the Kohn-Sham DFT energy:
Kohn-Sham wavefunction type      ... RKS
Hartree-Fock exchange scaling    ...    0.000
Number of operators              ...    1
Number of atoms                  ...   11
Basis set dimensions             ...  136
Integral neglect threshold       ... 2.5e-11
Integral primitive cutoff        ... 2.5e-12

Nuclear repulsion gradient       ... done
One Electron Gradient            
  ECP gradient                   ... done
Pre-screening matrix             ... done
RI-J gradient                    ... done
Exchange-correlation gradient    ... done
Dispersion correction            ... done
SRB correction                   ... done

------------------
CARTESIAN GRADIENT
------------------

   1   Pt  :    0.000954959    0.005536755   -0.001319997
   2   Cl  :    0.005908104   -0.000263704    0.000838600
   3   Cl  :   -0.005774737    0.001305626   -0.001099689
   4   N   :    0.000909206   -0.004849247   -0.001809242
   5   H   :    0.000599979    0.000220114    0.000198943
   6   H   :   -0.000749944    0.000015530   -0.002177480
   7   N   :   -0.002195971   -0.002857459    0.003699997
   8   H   :    0.000838169    0.000710672    0.002026999
   9   H   :    0.000647482    0.000040419    0.000816148
  10   H   :   -0.000492902    0.000222756   -0.000342010
  11   H   :   -0.000644344   -0.000081461   -0.000832269

Difference to translation invariance:
           :   -0.0000000001   -0.0000000000   -0.0000000000

Norm of the cartesian gradient     ...    0.0131613819
RMS gradient                       ...    0.0022911025
MAX gradient                       ...    0.0059081039

-------
TIMINGS
-------

Total SCF gradient time            ...        2.934 sec

One electron gradient       ....       0.705 sec  ( 24.0%)
Prescreening matrices       ....       0.031 sec  (  1.1%)
RI-J Coulomb gradient       ....       0.373 sec  ( 12.7%)
XC gradient                 ....       1.504 sec  ( 51.3%)
------------------------------------------------------------------------------
                         ORCA GEOMETRY RELAXATION STEP
------------------------------------------------------------------------------

Reading the OPT-File                    .... done
Getting information on internals        .... done
Copying old internal coords+grads       .... done
Making the new internal coordinates     .... (new redundants).... done
Validating the new internal coordinates .... (new redundants).... done
Calculating the B-matrix                .... done
Calculating the G,G- and P matrices     .... done
Transforming gradient to internals      .... done
Projecting the internal gradient        .... done
Number of atoms                         ....  11
Number of internal coordinates          ....  47
Current Energy                          .... -1153.147177221 Eh
Current gradient norm                   ....     0.013161382 Eh/bohr
Maximum allowed component of the step   ....  0.300
Current trust radius                    ....  0.300
Updating the Hessian (BFGS)             .... done
Forming the augmented Hessian           .... done
Diagonalizing the augmented Hessian     .... done
Last element of RFO vector              ....  0.757237252
Lowest eigenvalues of augmented Hessian:
 -0.018358313  0.001553210  0.001712763  0.001722521  0.015189959
Length of the computed step             ....  0.862530085
Warning: the length of the step is outside the trust region - taking restricted step instead
The input lambda is                     ....    -0.018358
   iter:   1  x=   -0.027412  g=   72.234406 f(x)=     0.653958
   iter:   2  x=   -0.038952  g=   23.687035 f(x)=     0.273356
   iter:   3  x=   -0.050809  g=    8.817543 f(x)=     0.104552
   iter:   4  x=   -0.058499  g=    4.177582 f(x)=     0.032123
   iter:   5  x=   -0.060523  g=    2.816660 f(x)=     0.005702
   iter:   6  x=   -0.060626  g=    2.561776 f(x)=     0.000264
   iter:   7  x=   -0.060626  g=    2.549681 f(x)=     0.000001
   iter:   8  x=   -0.060626  g=    2.549653 f(x)=     0.000000
   iter:   9  x=   -0.060626  g=    2.549653 f(x)=     0.000000
The output lambda is                    ....    -0.060626 (9 iterations)
The final length of the internal step   ....  0.300000000
Converting the step to cartesian space:
 Initial RMS(Int)=    0.0437594974
Transforming coordinates:
 Iter   0:  RMS(Cart)=    0.3839356504 RMS(Int)=    0.0591551885
 Iter   1:  RMS(Cart)=    0.1032984699 RMS(Int)=    0.0348009041
 Iter   2:  RMS(Cart)=    0.0213304494 RMS(Int)=    0.0089547451
 Iter   3:  RMS(Cart)=    0.0024225579 RMS(Int)=    0.0005700066
 Iter   4:  RMS(Cart)=    0.0015099511 RMS(Int)=    0.0006244493
 Iter   5:  RMS(Cart)=    0.0002747417 RMS(Int)=    0.0000876532
 Iter   6:  RMS(Cart)=    0.0001704309 RMS(Int)=    0.0000658216
 Iter   7:  RMS(Cart)=    0.0000362271 RMS(Int)=    0.0000152882
 Iter   8:  RMS(Cart)=    0.0000188359 RMS(Int)=    0.0000064213
 Iter   9:  RMS(Cart)=    0.0000052989 RMS(Int)=    0.0000024275
 Iter  10:  RMS(Cart)=    0.0000018805 RMS(Int)=    0.0000005230
 Iter  11:  RMS(Cart)=    0.0000007446 RMS(Int)=    0.0000003327
 Iter  12:  RMS(Cart)=    0.0000001774 RMS(Int)=    0.0000000394
 Iter  13:  RMS(Cart)=    0.0000000965 RMS(Int)=    0.0000000405
done
Storing new coordinates                 .... done

                                .--------------------.
          ----------------------|Geometry convergence|-------------------------
          Item                value                   Tolerance       Converged
          ---------------------------------------------------------------------
          Energy change      -0.0039348240            0.0000010000      NO
          RMS gradient        0.0046722234            0.0000300000      NO
          MAX gradient        0.0139916459            0.0001000000      NO
          RMS step            0.0437594974            0.0006000000      NO
          MAX step            0.1799568686            0.0010000000      NO
          ........................................................
          Max(Bonds)      0.0207      Max(Angles)    1.49
          Max(Dihed)       10.31      Max(Improp)    0.00
          ---------------------------------------------------------------------

The optimization has not yet converged - more geometry cycles are needed


    ---------------------------------------------------------------------------
                         Redundant Internal Coordinates
                            (Angstroem and degrees)

        Definition                    Value    dE/dq     Step     New-Value
    ----------------------------------------------------------------------------
     1. B(Cl  1,Pt  0)                2.3137 -0.005936  0.0036    2.3172   
     2. B(Cl  2,Pt  0)                2.3136 -0.005982  0.0037    2.3172   
     3. B(N   3,Pt  0)                2.0302 -0.005510  0.0090    2.0392   
     4. B(H   4,N   3)                1.0145 -0.000486 -0.0188    0.9957   
     5. B(H   5,N   3)                1.0121 -0.001053 -0.0201    0.9920   
     6. B(N   6,Pt  0)                2.0304 -0.005511  0.0091    2.0395   
     7. B(H   7,N   6)                1.0121 -0.001057 -0.0202    0.9919   
     8. B(H   8,N   6)                1.0120 -0.000496 -0.0207    0.9913   
     9. B(H   9,N   6)                1.0145 -0.000459 -0.0188    0.9958   
    10. B(H  10,N   3)                1.0120 -0.000534 -0.0207    0.9913   
    11. A(Cl  2,Pt  0,N   6)           90.08  0.001067   -0.20     89.88   
    12. A(Cl  1,Pt  0,N   6)           90.00  0.000115    0.29     90.29   
    13. A(Cl  1,Pt  0,N   3)           90.07  0.001130   -0.21     89.86   
    14. A(Cl  2,Pt  0,N   3)           89.97  0.000066    0.29     90.26   
    15. A(Pt  0,N   3,H   4)          110.31 -0.000184   -0.03    110.28   
    16. A(Pt  0,N   3,H  10)          109.69  0.002908   -0.44    109.24   
    17. A(H   4,N   3,H  10)          109.23  0.005483   -1.49    107.73   
    18. A(H   5,N   3,H  10)          108.63  0.002556   -0.90    107.73   
    19. A(H   4,N   3,H   5)          109.26 -0.005578    1.40    110.66   
    20. A(Pt  0,N   3,H   5)          109.69 -0.005130    1.47    111.16   
    21. A(H   8,N   6,H   9)          109.24  0.005498   -1.49    107.75   
    22. A(H   7,N   6,H   9)          109.25 -0.005509    1.37    110.62   
    23. A(Pt  0,N   6,H   9)          110.31 -0.000074   -0.06    110.24   
    24. A(H   7,N   6,H   8)          108.63  0.002442   -0.88    107.75   
    25. A(Pt  0,N   6,H   8)          109.69  0.002878   -0.43    109.26   
    26. A(Pt  0,N   6,H   7)          109.70 -0.005185    1.49    111.19   
    27. D(H   5,N   3,Pt  0,Cl  1)   -125.06  0.004378   -1.13   -126.19   
    28. D(H   4,N   3,Pt  0,Cl  1)     -4.65 -0.005933    1.50     -3.15   
    29. D(H   4,N   3,Pt  0,Cl  2)    173.50 -0.006857    2.06    175.56   
    30. D(H  10,N   3,Pt  0,Cl  2)    -66.15  0.001679   -0.08    -66.23   
    31. D(H   5,N   3,Pt  0,Cl  2)     53.09  0.003454   -0.57     52.53   
    32. D(H  10,N   3,Pt  0,Cl  1)    115.70  0.002602   -0.64    115.06   
    33. D(H   7,N   6,Pt  0,Cl  1)     54.05  0.003365   -0.54     53.51   
    34. D(H   7,N   6,N   3,H   4)     49.69  0.002947   -2.45     47.24   
    35. D(H   9,N   6,Pt  0,Cl  2)     -3.71 -0.005915    1.48     -2.23   
    36. D(H   9,N   6,Pt  0,Cl  1)    174.44 -0.006823    2.05    176.49   
    37. D(H   9,N   6,N   3,H   5)     49.66  0.002866   -2.42     47.24   
    38. D(H   8,N   6,Pt  0,Cl  2)    116.66  0.002691   -0.67    115.99   
    39. D(H   7,N   6,N   3,H   5)    -71.80 -0.008178    5.45    -66.35   
    40. D(H   7,N   6,N   3,H  10)    169.10 -0.006754    4.88    173.98   
    41. D(H   8,N   6,N   3,H  10)     49.98 -0.005531    4.44     54.42   
    42. D(H   8,N   6,Pt  0,Cl  1)    -65.20  0.001782   -0.10    -65.30   
    43. D(H   8,N   6,N   3,H   5)    169.08 -0.006955    5.01    174.09   
    44. D(H   9,N   6,N   3,H   4)    171.14  0.013992  -10.31    160.83   
    45. D(H   8,N   6,N   3,H   4)    -69.44  0.004170   -2.89    -72.32   
    46. D(H   9,N   6,N   3,H  10)    -69.44  0.004291   -2.98    -72.42   
    47. D(H   7,N   6,Pt  0,Cl  2)   -124.10  0.004274   -1.10   -125.21   
    ----------------------------------------------------------------------------

         *************************************************************
         *                GEOMETRY OPTIMIZATION CYCLE   3            *
         *************************************************************
---------------------------------
CARTESIAN COORDINATES (ANGSTROEM)
---------------------------------
  Pt    -4.554552   -1.600535   -1.975746
  Cl    -6.806134   -1.294538   -2.430032
  Cl    -2.294101   -1.853693   -1.533198
  N     -4.768921   -0.515112   -0.262827
  H     -5.699644   -0.167799   -0.195758
[...]
     15      -0.380348   0.138191  -0.246607   0.134968   0.327265   0.095168
     16       0.382838  -0.126867   0.116917  -0.081865  -0.050409   0.273562
     17      -0.174502   0.061639  -0.070941  -0.198070  -0.050136  -0.258594
     18       0.005832  -0.001240  -0.014127   0.075538  -0.259646   0.040332
     19       0.010203   0.004470  -0.103319  -0.064609   0.029635   0.242335
     20      -0.002009  -0.001319   0.025423  -0.168341  -0.050829  -0.058390
     21       0.169420   0.481553   0.331606   0.116617  -0.343434   0.004173
     22       0.096619   0.266939   0.079430  -0.075023   0.067037   0.367241
     23       0.004026   0.024995   0.037472  -0.203884   0.038504   0.105026
     24      -0.140976  -0.444488  -0.328668   0.095799  -0.355997   0.107635
     25       0.104585   0.288750   0.097673  -0.070490   0.067201   0.260601
     26      -0.058276  -0.169431  -0.088802  -0.190231   0.007618  -0.278431
     27      -0.006672  -0.040621  -0.041009   0.075169  -0.298293   0.052540
     28      -0.158272  -0.496512  -0.457843  -0.069430  -0.020671   0.353105
     29       0.045764   0.128604   0.121898  -0.151330  -0.246784  -0.064613
     30       0.523464  -0.194199   0.281834   0.109324   0.389218   0.015862
     31       0.172435  -0.049421  -0.008816  -0.073829  -0.050785   0.380807
     32       0.057734  -0.023482   0.054655  -0.199582  -0.003621   0.130740
                 12         13         14         15         16         17    
      0       0.036502   0.001168   0.211417  -0.009350  -0.000025  -0.000161
      1      -0.005365   0.000552  -0.026735   0.016075  -0.000111   0.000172
      2       0.003740   0.000087   0.041389   0.060954   0.000167   0.000202
      3       0.023092   0.682947  -0.616143  -0.001294   0.005171  -0.000008
      4      -0.000245  -0.086784   0.079564  -0.001435  -0.000663  -0.000448
      5       0.016299   0.138227  -0.126422  -0.006610   0.001555   0.000068
      6       0.022762  -0.690295  -0.609566  -0.001271  -0.005228   0.000083
      7      -0.000019   0.081763   0.072904  -0.001434   0.000419   0.000418
      8       0.017361  -0.138469  -0.123332  -0.006663  -0.001531  -0.000024
      9      -0.239650  -0.010086   0.079643   0.055321   0.056893  -0.008683
     10       0.028931   0.008906  -0.007504  -0.087367  -0.091987  -0.063653
     11      -0.052841   0.019919   0.026401  -0.334603  -0.351172   0.013295
     12      -0.285640  -0.013831   0.038758   0.049847   0.059358   0.044465
     13      -0.022207   0.007645  -0.060683  -0.087557  -0.086407   0.153010
     14      -0.300850   0.001790  -0.197950  -0.325507  -0.313690  -0.104592
     15      -0.353318  -0.013072  -0.027845   0.065799   0.060785   0.084778
     16       0.079455   0.009171   0.044185  -0.091020  -0.097283   0.027774
     17       0.063626   0.022658   0.126286  -0.332909  -0.336686  -0.440510
     18      -0.242125   0.012137   0.078706   0.055441  -0.056392   0.011426
     19       0.029165  -0.004656  -0.006974  -0.090441   0.094788   0.060678
     20      -0.053372  -0.020416   0.026298  -0.335613   0.348999  -0.016292
     21      -0.367048   0.016166  -0.030485   0.064602  -0.061229   0.043217
     22       0.068000  -0.004556   0.027975  -0.090294   0.085762  -0.241761
     23       0.061252  -0.021152   0.127697  -0.333886   0.337551  -0.378109
     24      -0.340928   0.017095  -0.015511   0.066725  -0.061666  -0.103002
     25       0.062638  -0.006896   0.026946  -0.087750   0.096201  -0.004992
     26       0.026945  -0.017937   0.094262  -0.350531   0.341881   0.488753
     27      -0.287069   0.016261   0.040141   0.051113  -0.059766  -0.016462
     28      -0.011129  -0.001121  -0.049161  -0.082809   0.082906  -0.183183
     29      -0.305297  -0.004564  -0.201379  -0.328469   0.313492  -0.007191
     30      -0.348653  -0.018797  -0.013321   0.062689   0.062306  -0.062542
     31       0.063580   0.006555   0.023709  -0.100058  -0.089989   0.258336
     32       0.022582   0.017813   0.092555  -0.345861  -0.345486   0.442671
                 18         19         20         21         22         23    
      0      -0.000082  -0.001222  -0.009489   0.000190   0.000037   0.000296
      1      -0.000006  -0.007792   0.001198  -0.000075   0.000025  -0.000131
      2      -0.000007   0.001873  -0.001448  -0.000120  -0.000026   0.000011
      3       0.000522   0.000012   0.003390  -0.000278  -0.000215  -0.000150
      4      -0.001160   0.000841  -0.000567   0.000277  -0.000021  -0.000076
      5      -0.004349  -0.000175   0.000242   0.000871  -0.000071   0.000379
      6      -0.000502   0.000212   0.003400  -0.000335   0.000124  -0.000099
      7       0.001127   0.000840  -0.000468   0.000255   0.000021   0.000247
      8       0.004381  -0.000239   0.000239   0.000848   0.000318   0.000328
      9       0.075835   0.012066   0.085874   0.015170  -0.010499   0.026636
     10      -0.009525   0.080610  -0.009500  -0.023429   0.016308  -0.042378
     11       0.011114  -0.017547   0.014284  -0.088439   0.062404   0.017082
     12      -0.027567  -0.042649  -0.017458   0.087667  -0.063596   0.175326
     13      -0.127914  -0.139966  -0.130577   0.074979  -0.055905   0.432480
     14      -0.530657   0.097528  -0.521042   0.457695  -0.344738   0.095090
     15      -0.198293  -0.076250  -0.191123  -0.193987   0.143813  -0.445631
     16       0.117815  -0.014651   0.119124  -0.003192   0.003345   0.406228
     17       0.275954   0.434414   0.281997   0.411137  -0.313599  -0.146579
     18      -0.074398   0.013583   0.086377   0.011663   0.014073   0.026618
     19       0.009958   0.080904  -0.011237  -0.018266  -0.022771   0.019185
     20      -0.011163  -0.021072   0.014939  -0.067743  -0.083770   0.000296
     21       0.201475   0.042609  -0.199359  -0.112717  -0.145219  -0.350819
     22      -0.078719  -0.234988   0.078473   0.185186   0.246841  -0.172096
     23      -0.267076  -0.396279   0.277556   0.263678   0.352584  -0.007246
     24       0.189712  -0.095549  -0.185765  -0.125541  -0.163480  -0.066134
     25      -0.091237   0.008396   0.094388  -0.017966  -0.023755   0.103068
     26      -0.179244   0.499193   0.182257   0.313019   0.417713  -0.185210
     27       0.025485  -0.014247  -0.014815   0.070700   0.090543   0.022690
     28       0.119013  -0.174191  -0.120327   0.080494   0.107806  -0.204675
     29       0.528300  -0.003270  -0.533344   0.338958   0.447095   0.180396
     30      -0.195538   0.058396  -0.187334  -0.114239   0.084221  -0.123976
     31       0.057297  -0.239976   0.051590   0.255615  -0.193437  -0.223330
     32       0.173699  -0.442856   0.169820   0.348601  -0.265725  -0.204874
                 24         25         26         27         28         29    
      0      -0.000151   0.000300  -0.000095   0.000033   0.000002   0.000013
      1      -0.000234  -0.000103  -0.000246  -0.000037   0.000000   0.000002
      2       0.000060   0.000029   0.000056  -0.000130  -0.000006   0.000016
      3       0.000026  -0.000060   0.000007  -0.000024  -0.000005  -0.000029
      4      -0.000093   0.000286  -0.000094  -0.000014  -0.000029  -0.000014
      5      -0.000137   0.000093   0.000087  -0.000060  -0.000070  -0.000043
      6       0.000028  -0.000145  -0.000003  -0.000024  -0.000001  -0.000039
      7      -0.000088  -0.000210  -0.000099  -0.000011   0.000005  -0.000004
      8      -0.000012   0.000210  -0.000098  -0.000068   0.000071  -0.000082
      9       0.016017   0.033034  -0.040208   0.012081   0.013301   0.040288
     10      -0.026691   0.021123  -0.026505  -0.008227  -0.008932  -0.013058
     11       0.010278   0.000773  -0.000490  -0.021317  -0.023778   0.014262
     12       0.111244  -0.052511   0.071241  -0.446439  -0.487868  -0.372817
     13       0.281135  -0.306692   0.395005   0.137002   0.149525   0.115317
     14       0.051218   0.202747  -0.244565   0.038485   0.041263   0.044436
     15      -0.278791   0.008119  -0.028265   0.215045   0.235124  -0.140449
     16       0.248812   0.100066  -0.106425   0.256638   0.279568  -0.181696
     17      -0.076819  -0.206033   0.249481   0.079101   0.085449  -0.058170
     18      -0.045045   0.022476   0.020706   0.013708  -0.012549   0.064624
     19      -0.027275  -0.040029  -0.030860  -0.007155   0.006798   0.005144
     20      -0.001385   0.015397   0.012309  -0.023750   0.022071   0.015569
     21       0.565818   0.046748   0.017957   0.133759  -0.122558  -0.114852
     22       0.283195  -0.171249  -0.148827  -0.273954   0.250185   0.262109
     23       0.012726  -0.174208  -0.142238   0.217425  -0.197608  -0.215788
     24       0.132258  -0.460361  -0.379313   0.179736  -0.165561  -0.208581
     25      -0.178972   0.246347   0.206778   0.321841  -0.295500  -0.403255
     26       0.301874  -0.054822  -0.050327   0.063618  -0.057773  -0.089746
     27      -0.041389   0.078731   0.065597  -0.506404   0.462636  -0.574447
     28       0.301429   0.506516   0.399381   0.055507  -0.050531   0.069676
     29      -0.292292   0.003386   0.012199   0.064156  -0.057879   0.090048
     30      -0.058458  -0.442990   0.542102   0.061182   0.067683  -0.046774
     31      -0.134050  -0.095024   0.105651  -0.275303  -0.302830   0.248089
     32      -0.126592  -0.011932   0.000771   0.193078   0.211461  -0.183981
                  30         31         32    
      0      -0.000002  -0.000001   0.000003
      1       0.000000  -0.000005  -0.000001
      2      -0.000003   0.000001  -0.000001
      3       0.000037  -0.000003  -0.000008
      4       0.000027  -0.000022  -0.000005
      5       0.000101   0.000020  -0.000003
      6      -0.000022  -0.000004  -0.000007
      7      -0.000013  -0.000029   0.000006
      8      -0.000080  -0.000008  -0.000004
      9      -0.060382  -0.019982   0.020390
     10       0.018954  -0.052027   0.052317
     11      -0.021156   0.009937  -0.010004
     12       0.557476   0.038358  -0.042064
     13      -0.172619  -0.023801   0.025002
     14      -0.066333  -0.002429   0.002694
     15       0.211974   0.326317  -0.328477
     16       0.274991   0.386874  -0.389695
     17       0.088195   0.141844  -0.142911
     18       0.043353   0.000409   0.000871
     19       0.003214  -0.054821  -0.054551
     20       0.010488   0.015431   0.015383
     21      -0.077193  -0.189803  -0.188981
     22       0.176953   0.372065   0.370877
     23      -0.145829  -0.323412  -0.322436
     24      -0.138485   0.225407   0.222928
     25      -0.268523   0.397655   0.393412
     26      -0.059648   0.100037   0.099062
     27      -0.385688  -0.040954  -0.046025
     28       0.046674  -0.006504  -0.005878
     29       0.060438   0.009141   0.009746
     30       0.068383  -0.086921   0.087169
     31      -0.366048   0.361126  -0.362562
     32       0.271307  -0.278327   0.279535


-----------
IR SPECTRUM
-----------

 Mode    freq (cm**-1)   T**2         TX         TY         TZ
-------------------------------------------------------------------
   7:        37.16    0.756962  (  0.050495   0.847889  -0.188406)
   8:       105.45    4.710910  ( -0.396940  -2.077595   0.486773)
   9:       136.13   10.281386  (  0.967333  -0.912818  -2.917605)
  10:       153.33    0.001769  (  0.019269  -0.021940   0.030269)
  11:       184.89   34.823002  (  0.982972   5.654027  -1.374317)
  12:       223.60   42.234002  ( -6.205977   0.633905  -1.821541)
  13:       314.38    0.002210  (  0.045606   0.009625   0.006152)
  14:       327.85   61.909700  (  7.667825  -0.958769   1.481528)
  15:       483.13    1.106507  ( -0.088116   0.263230   1.014620)
  16:       526.63    0.001675  ( -0.004953  -0.039758   0.008366)
  17:       741.44    0.021611  ( -0.054990   0.006248  -0.136192)
  18:       786.88    0.004049  ( -0.030079  -0.047504   0.029798)
  19:       817.83   11.698279  ( -0.525579  -3.281652   0.807964)
  20:       847.04   17.108314  ( -3.572409   0.068385  -2.083635)
  21:      1297.37  243.191189  ( -2.652248   4.014929  14.833648)
  22:      1299.89    4.708179  ( -0.385032   0.519446   2.071257)
  23:      1679.18   30.812222  ( -4.946464   2.503116   0.281303)
  24:      1682.42   29.090402  (  2.610410   4.555154  -1.235611)
  25:      1685.57   28.490784  ( -4.971736   1.837131  -0.630537)
  26:      1686.80   27.273276  (  1.694559   4.812537  -1.114109)
  27:      3402.40    2.333626  ( -1.504646   0.233281  -0.123479)
  28:      3404.58    0.007465  ( -0.045180   0.073224  -0.007857)
  29:      3518.64   46.439691  ( -5.970158   0.053456  -3.285429)
  30:      3519.34    3.457759  (  0.955128  -1.294271   0.932927)
  31:      3532.37   52.361172  (  1.262723   6.932544  -1.645154)
  32:      3533.83    1.778808  ( -1.265451   0.112811  -0.405851)

The first frequency considered to be a vibration is 7
The total number of vibrations considered is 26


--------------------------
THERMOCHEMISTRY AT 298.15K
--------------------------

Temperature         ... 298.15 K
Pressure            ... 1.00 atm
Total Mass          ... 300.06 AMU

Throughout the following assumptions are being made:
  (1) The electronic state is orbitally nondegenerate
  (2) There are no thermally accessible electronically excited states
  (3) Hindered rotations indicated by low frequency modes are not
      treated as such but are treated as vibrations and this may
      cause some error
  (4) All equations used are the standard statistical mechanics
      equations for an ideal gas
  (5) All vibrations are strictly harmonic

freq.      37.16  E(vib)   ...       0.54 
freq.     105.45  E(vib)   ...       0.45 
freq.     136.13  E(vib)   ...       0.42 
freq.     153.33  E(vib)   ...       0.40 
freq.     184.89  E(vib)   ...       0.37 
freq.     223.60  E(vib)   ...       0.33 
freq.     314.38  E(vib)   ...       0.25 
freq.     327.85  E(vib)   ...       0.24 
freq.     483.13  E(vib)   ...       0.15 
freq.     526.63  E(vib)   ...       0.13 
freq.     741.44  E(vib)   ...       0.06 
freq.     786.88  E(vib)   ...       0.05 
freq.     817.83  E(vib)   ...       0.05 
freq.     847.04  E(vib)   ...       0.04 
freq.    1297.37  E(vib)   ...       0.01 
freq.    1299.89  E(vib)   ...       0.01 
freq.    1679.18  E(vib)   ...       0.00 
freq.    1682.42  E(vib)   ...       0.00 
freq.    1685.57  E(vib)   ...       0.00 
freq.    1686.80  E(vib)   ...       0.00 
freq.    3402.40  E(vib)   ...       0.00 
freq.    3404.58  E(vib)   ...       0.00 
freq.    3518.64  E(vib)   ...       0.00 
freq.    3519.34  E(vib)   ...       0.00 
freq.    3532.37  E(vib)   ...       0.00 
freq.    3533.83  E(vib)   ...       0.00 

------------
INNER ENERGY
------------

The inner energy is: U= E(el) + E(ZPE) + E(vib) + E(rot) + E(trans)
    E(el)   - is the total energy from the electronic structure calculation
              = E(kin-el) + E(nuc-el) + E(el-el) + E(nuc-nuc)
    E(ZPE)  - the the zero temperature vibrational energy from the frequency calculation
    E(vib)  - the the finite temperature correction to E(ZPE) due to population
              of excited vibrational states
    E(rot)  - is the rotational thermal energy
    E(trans)- is the translational thermal energy

Summary of contributions to the inner energy U:
Electronic energy                ...  -1153.14804929 Eh
Zero point energy                ...      0.08185029 Eh      51.36 kcal/mol
Thermal vibrational correction   ...      0.00558257 Eh       3.50 kcal/mol
Thermal rotational correction    ...      0.00141627 Eh       0.89 kcal/mol
Thermal translational correction ...      0.00141627 Eh       0.89 kcal/mol
-----------------------------------------------------------------------
Total thermal energy                  -1153.05778388 Eh


Summary of corrections to the electronic energy:
(perhaps to be used in another calculation)
Total thermal correction                  0.00841511 Eh       5.28 kcal/mol
Non-thermal (ZPE) correction              0.08185029 Eh      51.36 kcal/mol
-----------------------------------------------------------------------
Total correction                          0.09026541 Eh      56.64 kcal/mol


--------
ENTHALPY
--------

The enthalpy is H = U + kB*T
                kB is Boltzmann's constant
Total free energy                 ...  -1153.05778388 Eh 
Thermal Enthalpy correction       ...      0.00094421 Eh       0.59 kcal/mol
-----------------------------------------------------------------------
Total Enthalpy                    ...  -1153.05683968 Eh


Note: Only C1 symmetry has been detected, increase convergence thresholds 
      if your molecule has a higher symmetry. Symmetry factor of 1.0 is   
      used for the rotational entropy correction. 
 

Note: Rotational entropy computed according to Herzberg 
Infrared and Raman Spectra, Chapter V,1, Van Nostrand Reinhold, 1945 
Point Group:  C1, Symmetry Number:   1  
Rotational constants in cm-1:     0.109208     0.042939     0.031129 

Vibrational entropy computed according to the QRRHO of S. Grimme
Chem.Eur.J. 2012 18 9955


-------
ENTROPY
-------

The entropy contributions are T*S = T*(S(el)+S(vib)+S(rot)+S(trans))
     S(el)   - electronic entropy
     S(vib)  - vibrational entropy
     S(rot)  - rotational entropy
     S(trans)- translational entropy
The entropies will be listed as mutliplied by the temperature to get
units of energy

Electronic entropy                ...      0.00000000 Eh      0.00 kcal/mol
Vibrational entropy               ...      0.01017227 Eh      6.38 kcal/mol
Rotational entropy                ...      0.01368036 Eh      8.58 kcal/mol
Translational entropy             ...      0.02042745 Eh     12.82 kcal/mol
-----------------------------------------------------------------------
Final entropy term                ...      0.04428007 Eh     27.79 kcal/mol

In case the symmetry of your molecule has not been determined correctly
or in case you have a reason to use a different symmetry number we print 
out the resulting rotational entropy values for sn=1,12 :
 --------------------------------------------------------
|  sn= 1 | S(rot)=       0.01368036 Eh      8.58 kcal/mol|
|  sn= 2 | S(rot)=       0.01302590 Eh      8.17 kcal/mol|
|  sn= 3 | S(rot)=       0.01264307 Eh      7.93 kcal/mol|
|  sn= 4 | S(rot)=       0.01237144 Eh      7.76 kcal/mol|
|  sn= 5 | S(rot)=       0.01216076 Eh      7.63 kcal/mol|
|  sn= 6 | S(rot)=       0.01198861 Eh      7.52 kcal/mol|
|  sn= 7 | S(rot)=       0.01184307 Eh      7.43 kcal/mol|
|  sn= 8 | S(rot)=       0.01171699 Eh      7.35 kcal/mol|
|  sn= 9 | S(rot)=       0.01160578 Eh      7.28 kcal/mol|
|  sn=10 | S(rot)=       0.01150630 Eh      7.22 kcal/mol|
|  sn=11 | S(rot)=       0.01141631 Eh      7.16 kcal/mol|
|  sn=12 | S(rot)=       0.01133416 Eh      7.11 kcal/mol|
 --------------------------------------------------------


-------------------
GIBBS FREE ENERGY
-------------------

The Gibbs free energy is G = H - T*S

Total enthalpy                    ...  -1153.05683968 Eh 
Total entropy correction          ...     -0.04428007 Eh    -27.79 kcal/mol
-----------------------------------------------------------------------
Final Gibbs free energy         ...  -1153.10111975 Eh

For completeness - the Gibbs free energy minus the electronic energy
G-E(el)                           ...      0.04692954 Eh     29.45 kcal/mol


Timings for individual modules:

Sum of individual times         ...      282.250 sec (=   4.704 min)
GTO integral calculation        ...       22.334 sec (=   0.372 min)   7.9 %
SCF iterations                  ...      113.210 sec (=   1.887 min)  40.1 %
SCF Gradient evaluation         ...       57.657 sec (=   0.961 min)  20.4 %
Geometry relaxation             ...        3.619 sec (=   0.060 min)   1.3 %
Analytical frequency calculation...       85.430 sec (=   1.424 min)  30.3 %
                             ****ORCA TERMINATED NORMALLY****
TOTAL RUN TIME: 0 days 0 hours 4 minutes 47 seconds 458 msec
