
                                 *****************
                                 * O   R   C   A *
                                 *****************

           --- An Ab Initio, DFT and Semiempirical electronic structure package ---

                  #######################################################
                  #                        -***-                        #
                  #          Department of theory and spectroscopy      #
                  #               Directorship: Frank Neese             #
                  #        Max Planck Institute fuer Kohlenforschung    #
                  #                Kaiser Wilhelm Platz 1               #
                  #                 D-45470 Muelheim/Ruhr               #
                  #                      Germany                        #
                  #                                                     #
                  #                  All rights reserved                #
                  #                        -***-                        #
                  #######################################################


                         Program Version 4.2.1 -  RELEASE  -


 With contributions from (in alphabetic order):
   Daniel Aravena         : Magnetic Suceptibility
   Michael Atanasov       : Ab Initio Ligand Field Theory (pilot matlab implementation)
   Alexander A. Auer      : GIAO ZORA, VPT2
   Ute Becker             : Parallelization
   Giovanni Bistoni       : ED, misc. LED, open-shell LED, HFLD
   Martin Brehm           : Molecular dynamics
   Dmytro Bykov           : SCF Hessian
   Vijay G. Chilkuri      : MRCI spin determinant printing, contributions to CSF-ICE
   Dipayan Datta          : RHF DLPNO-CCSD density
   Achintya Kumar Dutta   : EOM-CC, STEOM-CC
   Dmitry Ganyushin       : Spin-Orbit,Spin-Spin,Magnetic field MRCI
   Miquel Garcia          : C-PCM Hessian, Gaussian charge scheme
   Yang Guo               : DLPNO-NEVPT2, CIM, IAO-localization
   Andreas Hansen         : Spin unrestricted coupled pair/coupled cluster methods
   Benjamin Helmich-Paris : CASSCF linear response (MC-RPA)
   Lee Huntington         : MR-EOM, pCC
   Robert Izsak           : Overlap fitted RIJCOSX, COSX-SCS-MP3, EOM
   Christian Kollmar      : KDIIS, OOCD, Brueckner-CCSD(T), CCSD density
   Simone Kossmann        : Meta GGA functionals, TD-DFT gradient, OOMP2, MP2 Hessian
   Martin Krupicka        : AUTO-CI
   Lucas Lang             : DCDCAS
   Dagmar Lenk            : GEPOL surface, SMD
   Dimitrios Liakos       : Extrapolation schemes; Compound Job, initial MDCI parallelization
   Dimitrios Manganas     : Further ROCIS development; embedding schemes
   Dimitrios Pantazis     : SARC Basis sets
   Taras Petrenko         : DFT Hessian,TD-DFT gradient, ASA, ECA, R-Raman, ABS, FL, XAS/XES, NRVS
   Peter Pinski           : DLPNO-MP2, DLPNO-MP2 Gradient
   Christoph Reimann      : Effective Core Potentials
   Marius Retegan         : Local ZFS, SOC
   Christoph Riplinger    : Optimizer, TS searches, QM/MM, DLPNO-CCSD(T), (RO)-DLPNO pert. Triples
   Tobias Risthaus        : Range-separated hybrids, TD-DFT gradient, RPA, STAB
   Michael Roemelt        : Original ROCIS implementation
   Masaaki Saitow         : Open-shell DLPNO-CCSD energy and density
   Barbara Sandhoefer     : DKH picture change effects
   Avijit Sen             : IP-ROCIS
   Kantharuban Sivalingam : CASSCF convergence, NEVPT2, FIC-MRCI
   Bernardo de Souza      : ESD, SOC TD-DFT
   Georgi Stoychev        : AutoAux, RI-MP2 NMR
   Willem Van den Heuvel  : Paramagnetic NMR
   Boris Wezisla          : Elementary symmetry handling
   Frank Wennmohs         : Technical directorship


 We gratefully acknowledge several colleagues who have allowed us to
 interface, adapt or use parts of their codes:
   Stefan Grimme, W. Hujo, H. Kruse,             : VdW corrections, initial TS optimization,
                  C. Bannwarth                     DFT functionals, gCP, sTDA/sTD-DF
   Ed Valeev, F. Pavosevic, A. Kumar             : LibInt (2-el integral package), F12 methods
   Garnet Chan, S. Sharma, J. Yang, R. Olivares  : DMRG
   Ulf Ekstrom                                   : XCFun DFT Library
   Mihaly Kallay                                 : mrcc  (arbitrary order and MRCC methods)
   Andreas Klamt, Michael Diedenhofen            : otool_cosmo (COSMO solvation model)
   Jiri Pittner, Ondrej Demel                    : Mk-CCSD
   Frank Weinhold                                : gennbo (NPA and NBO analysis)
   Christopher J. Cramer and Donald G. Truhlar   : smd solvation model
   Lars Goerigk                                  : TD-DFT with DH, B97 family of functionals
   V. Asgeirsson, H. Jonsson                     : NEB implementation
   FAccTs GmbH                                   : IRC, NEB, NEB-TS, Multilevel, MM, QM/MM, CI optimization
   S Lehtola, MJT Oliveira, MAL Marques          : LibXC Library


 Your calculation uses the libint2 library for the computation of 2-el integrals
 For citations please refer to: http://libint.valeyev.net

 Your ORCA version has been built with support for libXC version: 4.2.3
 For citations please refer to: https://tddft.org/programs/libxc/

 This ORCA versions uses:
   CBLAS   interface :  Fast vector & matrix operations
   LAPACKE interface :  Fast linear algebra routines
   SCALAPACK package :  Parallel linear algebra routines


Your calculation utilizes the atom-pairwise dispersion correction
with the Becke-Johnson damping scheme (D3BJ)
Cite in your paper:
S.Grimme, S.Ehrlich, L.Goerigk, J Comput Chem, (2011), 32, 1456–1465 
S.Grimme, J.Antony, S.Ehrlich and H.Krieg, J.Chem.Phys., 132, (2010), 154104 
   

Your calculation employs the composite approach B97-3c by Grimme and coworkers.
For the correct reference, please check the publication list of the Grimme group:
http://www.thch.uni-bonn.de/tc/index.php?section=publikationen&subsection=grimme#2017
   

XCFun DFT library Copyright 2009-2010 Ulf Ekstrom and contributors.
See http://admol.org/xcfun for more information. This is free soft-
ware; see the source code for copying conditions. There is ABSOLUTELY
NO WARRANTY; not even for MERCHANTABILITY or FITNESS FOR A PARTICULAR
PURPOSE. For details see the documentation. Scientific users of this 
library should cite U. Ekstrom, L. Visscher, R. Bast, A. J. Thorvald-
sen and K. Ruud; J.Chem.Theor.Comp. 2010, DOI: 10.1021/ct100117s
XCFun Version 0.99 
----- Orbital basis set information -----
Your calculation utilizes the basis: def2-mTZVP
----- AuxJ basis set information -----
Your calculation utilizes the basis: def2-mTZVP/J
================================================================================
                                        WARNINGS
                       Please study these warnings very carefully!
================================================================================


WARNING: Geometry Optimization
  ===> : Switching off AutoStart
         For restart on a previous wavefunction, please use MOREAD

INFO   : the flag for use of LIBINT has been found!

================================================================================
                                       INPUT FILE
================================================================================
NAME = triphenylphosphine.inp
|  1> ! B97-3c Opt Freq TightOpt TightSCF
|  2> 
|  3> %pal
|  4>  nprocs 12
|  5> end
|  6> 
|  7> *xyz 0 1
|  8> P         -4.04720       -1.78475        0.89784
|  9> C         -5.68588       -1.66629        0.02614
| 10> C         -3.68193       -3.60867        0.92203
| 11> C         -3.00008       -1.19628       -0.51010
| 12> C         -2.00502       -0.24050       -0.26901
| 13> C         -3.18112       -1.69471       -1.81253
| 14> C         -2.36965       -1.24113       -2.85627
| 15> H         -3.94406       -2.43414       -2.01665
| 16> C         -1.19247        0.20805       -1.31504
| 17> H         -1.85522        0.14884        0.73012
| 18> C         -1.37446       -0.29197       -2.60759
| 19> H         -0.42013        0.94156       -1.12326
| 20> H         -0.74408        0.05521       -3.41606
| 21> H         -2.51012       -1.62805       -3.85745
| 22> C         -6.37078       -2.79755       -0.45821
| 23> C         -6.25358       -0.39590       -0.15399
| 24> C         -7.60191       -2.65134       -1.10527
| 25> H         -5.96393       -3.78929       -0.35111
| 26> C         -7.48584       -0.25543       -0.79995
| 27> C         -8.15974       -1.38253       -1.27457
| 28> H         -5.74041        0.48496        0.21056
| 29> H         -7.91845        0.72791       -0.93224
| 30> H         -8.12340       -3.52400       -1.47700
| 31> H         -9.11334       -1.27299       -1.77496
| 32> C         -2.59286       -4.16410        0.22316
| 33> C         -4.49217       -4.44871        1.70225
| 34> C         -4.23724       -5.82175        1.76274
| 35> H         -5.32436       -4.03625        2.25895
| 36> C         -2.34111       -5.53752        0.28885
| 37> H         -1.92985       -3.54851       -0.36422
| 38> C         -3.16386       -6.36607        1.05447
| 39> H         -1.50316       -5.95866       -0.25165
| 40> H         -2.96537       -7.42872        1.10395
| 41> H         -4.87067       -6.46328        2.36129
| 42> *
| 43> 
| 44>                          ****END OF INPUT****
================================================================================

                       *****************************
                       * Geometry Optimization Run *
                       *****************************

Geometry optimization settings:
Update method            Update   .... BFGS
Choice of coordinates    CoordSys .... Z-matrix Internals
Initial Hessian          InHess   .... Almoef's Model

Convergence Tolerances:
Energy Change            TolE     ....  1.0000e-06 Eh
Max. Gradient            TolMAXG  ....  1.0000e-04 Eh/bohr
RMS Gradient             TolRMSG  ....  3.0000e-05 Eh/bohr
Max. Displacement        TolMAXD  ....  1.0000e-03 bohr
RMS Displacement         TolRMSD  ....  6.0000e-04 bohr
Strict Convergence                ....  False
------------------------------------------------------------------------------
                        ORCA OPTIMIZATION COORDINATE SETUP
------------------------------------------------------------------------------

The optimization will be done in new redundant internal coordinates
Making redundant internal coordinates   ...  (new redundants) done
Evaluating the initial hessian          ...  (Almloef) done
Evaluating the coordinates              ...  done
Calculating the B-matrix                .... done
Calculating the G-matrix                .... done
Diagonalizing the G-matrix              .... done
Small eigenvalue found = 4.791e-03
Small eigenvalue found = 6.320e-03
Small eigenvalue found = 1.008e-02
Small eigenvalue found = 2.752e-02
The first mode is                       ....   81
The number of degrees of freedom        ....   96

    -----------------------------------------------------------------
                    Redundant Internal Coordinates


    -----------------------------------------------------------------
         Definition                    Initial Value    Approx d2E/dq
    -----------------------------------------------------------------
      1. B(C   1,P   0)                  1.8599         0.373735   
      2. B(C   2,P   0)                  1.8603         0.373172   
      3. B(C   3,P   0)                  1.8507         0.386573   
      4. B(C   4,C   3)                  1.4006         0.600852   
      5. B(C   5,C   3)                  1.4062         0.588595   
      6. B(C   6,C   5)                  1.3977         0.607334   
      7. B(H   7,C   5)                  1.0819         0.370982   
      8. B(C   8,C   4)                  1.3984         0.605738   
      9. B(H   9,C   4)                  1.0827         0.369858   
     10. B(C  10,C   8)                  1.3978         0.607163   
     11. B(C  10,C   6)                  1.3976         0.607702   
     12. B(H  11,C   8)                  1.0823         0.370462   
     13. B(H  12,C  10)                  1.0824         0.370329   
     14. B(H  13,C   6)                  1.0825         0.370163   
     15. B(C  14,C   1)                  1.4083         0.584080   
     16. B(C  15,C   1)                  1.4031         0.595494   
     17. B(C  16,C  14)                  1.3985         0.605634   
     18. B(H  17,C  14)                  1.0773         0.377318   
     19. B(C  18,C  15)                  1.3984         0.605860   
     20. B(C  19,C  18)                  1.3963         0.610417   
     21. B(C  19,C  16)                  1.3963         0.610453   
     22. B(H  20,C  15)                  1.0827         0.369941   
     23. B(H  21,C  18)                  1.0824         0.370283   
     24. B(H  22,C  16)                  1.0824         0.370245   
     25. B(H  23,C  19)                  1.0825         0.370200   
     26. B(C  24,C   2)                  1.4082         0.584413   
     27. B(C  25,C   2)                  1.4039         0.593721   
     28. B(C  26,C  25)                  1.3978         0.607114   
     29. B(H  27,C  25)                  1.0829         0.369675   
     30. B(C  28,C  24)                  1.3978         0.607043   
     31. B(H  29,C  24)                  1.0787         0.375392   
     32. B(C  30,C  28)                  1.3963         0.610556   
     33. B(C  30,C  26)                  1.3965         0.610164   
     34. B(H  31,C  28)                  1.0824         0.370252   
     35. B(H  32,C  30)                  1.0822         0.370621   
     36. B(H  33,C  26)                  1.0822         0.370631   
     37. A(C   2,P   0,C   3)          102.1548         0.414382   
     38. A(C   1,P   0,C   2)          103.9774         0.411904   
     39. A(C   1,P   0,C   3)           96.9899         0.414493   
     40. A(C  14,C   1,C  15)          119.1024         0.426343   
     41. A(P   0,C   1,C  14)          122.5818         0.418378   
     42. A(P   0,C   1,C  15)          118.3157         0.419824   
     43. A(P   0,C   2,C  25)          118.7228         0.419488   
     44. A(C  24,C   2,C  25)          119.0881         0.426159   
     45. A(P   0,C   2,C  24)          122.1486         0.418309   
     46. A(P   0,C   3,C   4)          119.2089         0.423040   
     47. A(P   0,C   3,C   5)          121.2691         0.421485   
     48. A(C   4,C   3,C   5)          119.5214         0.427617   
     49. A(C   8,C   4,H   9)          119.6382         0.353116   
     50. A(C   3,C   4,H   9)          120.1665         0.352632   
     51. A(C   3,C   4,C   8)          120.1932         0.429825   
     52. A(C   3,C   5,H   7)          120.5154         0.351586   
     53. A(C   3,C   5,C   6)          120.1227         0.428441   
     54. A(C   6,C   5,H   7)          119.3612         0.353455   
     55. A(C   5,C   6,C  10)          120.0623         0.430904   
     56. A(C  10,C   6,H  13)          119.9822         0.353359   
     57. A(C   5,C   6,H  13)          119.9551         0.353323   
     58. A(C   4,C   8,C  10)          120.0855         0.430632   
     59. A(C  10,C   8,H  11)          119.9481         0.353354   
     60. A(C   4,C   8,H  11)          119.9662         0.353214   
     61. A(C   6,C  10,C   8)          120.0136         0.430882   
     62. A(C   8,C  10,H  12)          120.0087         0.353333   
     63. A(C   6,C  10,H  12)          119.9777         0.353386   
     64. A(C  16,C  14,H  17)          118.3408         0.354302   
     65. A(C   1,C  14,H  17)          121.4407         0.352135   
     66. A(C   1,C  14,C  16)          120.2163         0.427634   
     67. A(C   1,C  15,C  18)          120.4511         0.429150   
     68. A(C  18,C  15,H  20)          119.4389         0.353141   
     69. A(C   1,C  15,H  20)          120.1096         0.352112   
     70. A(C  14,C  16,C  19)          120.1851         0.431036   
     71. A(C  19,C  16,H  22)          119.8988         0.353642   
     72. A(C  14,C  16,H  22)          119.9161         0.353168   
     73. A(C  15,C  18,C  19)          120.0806         0.431061   
     74. A(C  19,C  18,H  21)          119.9254         0.353645   
     75. A(C  15,C  18,H  21)          119.9940         0.353197   
     76. A(C  16,C  19,C  18)          119.9638         0.431646   
     77. A(C  18,C  19,H  23)          120.0401         0.353632   
     78. A(C  16,C  19,H  23)          119.9960         0.353635   
     79. A(C  28,C  24,H  29)          118.3990         0.354134   
     80. A(C   2,C  24,H  29)          121.3666         0.351864   
     81. A(C   2,C  24,C  28)          120.2318         0.427856   
     82. A(C  26,C  25,H  27)          119.4761         0.353222   
     83. A(C   2,C  25,H  27)          120.0886         0.351891   
     84. A(C   2,C  25,C  26)          120.4346         0.429079   
     85. A(C  30,C  26,H  33)          119.9589         0.353677   
     86. A(C  25,C  26,H  33)          119.9671         0.353377   
     87. A(C  25,C  26,C  30)          120.0738         0.431189   
     88. A(C  30,C  28,H  31)          119.9395         0.353654   
     89. A(C  24,C  28,H  31)          119.8826         0.353308   
     90. A(C  24,C  28,C  30)          120.1772         0.431229   
     91. A(C  28,C  30,H  32)          119.9797         0.353714   
     92. A(C  26,C  30,H  32)          120.0368         0.353675   
     93. A(C  26,C  30,C  28)          119.9823         0.431627   
     94. D(C  14,C   1,P   0,C   2)     -0.3502         0.003225   
     95. D(C  15,C   1,P   0,C   3)    -75.7989         0.003225   
     96. D(C  14,C   1,P   0,C   3)    104.0753         0.003225   
     97. D(C  15,C   1,P   0,C   2)    179.7756         0.003225   
     98. D(C  24,C   2,P   0,C   3)     14.3791         0.003220   
     99. D(C  25,C   2,P   0,C   1)    -67.4760         0.003220   
    100. D(C  24,C   2,P   0,C   1)    114.8592         0.003220   
    101. D(C  25,C   2,P   0,C   3)   -167.9561         0.003220   
    102. D(C   5,C   3,P   0,C   2)     59.8662         0.003349   
    103. D(C   5,C   3,P   0,C   1)    -46.1158         0.003349   
    104. D(C   4,C   3,P   0,C   2)   -119.8393         0.003349   
    105. D(C   4,C   3,P   0,C   1)    134.1787         0.003349   
    106. D(C   8,C   4,C   3,C   5)     -0.3958         0.024892   
    107. D(C   8,C   4,C   3,P   0)    179.3149         0.024892   
    108. D(H   9,C   4,C   3,P   0)     -0.1629         0.024892   
    109. D(H   9,C   4,C   3,C   5)   -179.8736         0.024892   
    110. D(H   7,C   5,C   3,C   4)    179.9264         0.023836   
    111. D(H   7,C   5,C   3,P   0)      0.2218         0.023836   
    112. D(C   6,C   5,C   3,P   0)   -179.4962         0.023836   
    113. D(C   6,C   5,C   3,C   4)      0.2084         0.023836   
    114. D(H  13,C   6,C   5,H   7)      0.1618         0.025462   
    115. D(H  13,C   6,C   5,C   3)    179.8830         0.025462   
    116. D(C  10,C   6,C   5,H   7)   -179.6293         0.025462   
    117. D(C  10,C   6,C   5,C   3)      0.0920         0.025462   
    118. D(H  11,C   8,C   4,H   9)     -0.0916         0.025321   
    119. D(H  11,C   8,C   4,C   3)   -179.5721         0.025321   
    120. D(C  10,C   8,C   4,H   9)    179.7642         0.025321   
    121. D(C  10,C   8,C   4,C   3)      0.2836         0.025321   
    122. D(H  12,C  10,C   6,C   5)    179.7408         0.025495   
    123. D(C   8,C  10,C   6,H  13)   -179.9975         0.025495   
    124. D(C   8,C  10,C   6,C   5)     -0.2065         0.025495   
    125. D(H  12,C  10,C   8,H  11)     -0.0723         0.025447   
    126. D(H  12,C  10,C   8,C   4)   -179.9281         0.025447   
    127. D(C   6,C  10,C   8,H  11)    179.8749         0.025447   
    128. D(C   6,C  10,C   8,C   4)      0.0192         0.025447   
    129. D(H  12,C  10,C   6,H  13)     -0.0502         0.025495   
    130. D(H  17,C  14,C   1,C  15)    179.2441         0.023454   
    131. D(H  17,C  14,C   1,P   0)     -0.6291         0.023454   
    132. D(C  16,C  14,C   1,C  15)     -0.2110         0.023454   
    133. D(C  16,C  14,C   1,P   0)    179.9157         0.023454   
    134. D(H  20,C  15,C   1,C  14)   -179.9095         0.024427   
    135. D(H  20,C  15,C   1,P   0)     -0.0309         0.024427   
    136. D(C  18,C  15,C   1,C  14)      0.3068         0.024427   
    137. D(C  18,C  15,C   1,P   0)   -179.8145         0.024427   
    138. D(H  22,C  16,C  14,H  17)      0.4328         0.025312   
    139. D(H  22,C  16,C  14,C   1)    179.9046         0.025312   
    140. D(C  19,C  16,C  14,H  17)   -179.4942         0.025312   
    141. D(C  19,C  16,C  14,C   1)     -0.0223         0.025312   
    142. D(H  21,C  18,C  15,H  20)      0.0275         0.025332   
    143. D(H  21,C  18,C  15,C   1)    179.8126         0.025332   
    144. D(C  19,C  18,C  15,H  20)   -179.9544         0.025332   
    145. D(C  19,C  18,C  15,C   1)     -0.1693         0.025332   
    146. D(H  23,C  19,C  18,H  21)      0.0497         0.025736   
    147. D(C  16,C  19,C  18,H  21)    179.9502         0.025736   
    148. D(C  16,C  19,C  18,C  15)     -0.0678         0.025736   
    149. D(H  23,C  19,C  16,H  22)      0.1367         0.025739   
    150. D(H  23,C  19,C  16,C  14)   -179.9363         0.025739   
    151. D(H  23,C  19,C  18,C  15)   -179.9683         0.025736   
    152. D(C  18,C  19,C  16,H  22)   -179.7638         0.025739   
    153. D(C  18,C  19,C  16,C  14)      0.1631         0.025739   
    154. D(H  29,C  24,C   2,P   0)     -0.5663         0.023482   
    155. D(C  28,C  24,C   2,C  25)      1.1742         0.023482   
    156. D(C  28,C  24,C   2,P   0)    178.8308         0.023482   
    157. D(H  29,C  24,C   2,C  25)   -178.2229         0.023482   
    158. D(H  27,C  25,C   2,C  24)    179.0245         0.024274   
    159. D(H  27,C  25,C   2,P   0)      1.2870         0.024274   
    160. D(C  26,C  25,C   2,C  24)     -1.2798         0.024274   
    161. D(C  26,C  25,C   2,P   0)   -179.0173         0.024274   
    162. D(H  33,C  26,C  25,H  27)      0.1083         0.025443   
    163. D(H  33,C  26,C  25,C   2)   -179.5893         0.025443   
    164. D(C  30,C  26,C  25,H  27)   -179.7203         0.025443   
    165. D(C  30,C  26,C  25,C   2)      0.5822         0.025443   
    166. D(H  31,C  28,C  24,H  29)     -0.6651         0.025436   
    167. D(H  31,C  28,C  24,C   2)    179.9201         0.025436   
    168. D(C  30,C  28,C  24,H  29)    179.0425         0.025436   
    169. D(C  30,C  28,C  24,C   2)     -0.3723         0.025436   
    170. D(H  32,C  30,C  28,H  31)     -0.2240         0.025748   
    171. D(H  32,C  30,C  28,C  24)   -179.9315         0.025748   
    172. D(C  26,C  30,C  28,H  31)    179.3665         0.025748   
    173. D(C  26,C  30,C  28,C  24)     -0.3410         0.025748   
    174. D(H  32,C  30,C  26,H  33)     -0.0007         0.025713   
    175. D(H  32,C  30,C  26,C  25)    179.8279         0.025713   
    176. D(C  28,C  30,C  26,H  33)   -179.5909         0.025713   
    177. D(C  28,C  30,C  26,C  25)      0.2376         0.025713   
    -----------------------------------------------------------------

Number of atoms                         .... 34
Number of degrees of freedom            .... 177

         *************************************************************
         *                GEOMETRY OPTIMIZATION CYCLE   1            *
         *************************************************************
---------------------------------
CARTESIAN COORDINATES (ANGSTROEM)
---------------------------------
  P     -4.047200   -1.784750    0.897840
  C     -5.685880   -1.666290    0.026140
  C     -3.681930   -3.608670    0.922030
  C     -3.000080   -1.196280   -0.510100
  C     -2.005020   -0.240500   -0.269010
  C     -3.181120   -1.694710   -1.812530
  C     -2.369650   -1.241130   -2.856270
  H     -3.944060   -2.434140   -2.016650
  C     -1.192470    0.208050   -1.315040
  H     -1.855220    0.148840    0.730120
  C     -1.374460   -0.291970   -2.607590
  H     -0.420130    0.941560   -1.123260
  H     -0.744080    0.055210   -3.416060
  H     -2.510120   -1.628050   -3.857450
  C     -6.370780   -2.797550   -0.458210
  C     -6.253580   -0.395900   -0.153990
  C     -7.601910   -2.651340   -1.105270
  H     -5.963930   -3.789290   -0.351110
  C     -7.485840   -0.255430   -0.799950
  C     -8.159740   -1.382530   -1.274570
  H     -5.740410    0.484960    0.210560
  H     -7.918450    0.727910   -0.932240
  H     -8.123400   -3.524000   -1.477000
  H     -9.113340   -1.272990   -1.774960
  C     -2.592860   -4.164100    0.223160
  C     -4.492170   -4.448710    1.702250
  C     -4.237240   -5.821750    1.762740
  H     -5.324360   -4.036250    2.258950
  C     -2.341110   -5.537520    0.288850
  H     -1.929850   -3.548510   -0.364220
  C     -3.163860   -6.366070    1.054470
  H     -1.503160   -5.958660   -0.251650
  H     -2.965370   -7.428720    1.103950
  H     -4.870670   -6.463280    2.361290

----------------------------
CARTESIAN COORDINATES (A.U.)
----------------------------
  NO LB      ZA    FRAG     MASS         X           Y           Z
   0 P    15.0000    0    30.974   -7.648100   -3.372689    1.696672
   1 C     6.0000    0    12.011  -10.744756   -3.148832    0.049397
   2 C     6.0000    0    12.011   -6.957839   -6.819398    1.742384
   3 C     6.0000    0    12.011   -5.669330   -2.260642   -0.963949
   4 C     6.0000    0    12.011   -3.788939   -0.454479   -0.508355
   5 C     6.0000    0    12.011   -6.011446   -3.202538   -3.425185
   6 C     6.0000    0    12.011   -4.477990   -2.345396   -5.397568
   7 H     1.0000    0     1.008   -7.453193   -4.599858   -3.810916
   8 C     6.0000    0    12.011   -2.253442    0.393158   -2.485065
   9 H     1.0000    0     1.008   -3.505858    0.281267    1.379727
  10 C     6.0000    0    12.011   -2.597353   -0.551743   -4.927631
  11 H     1.0000    0     1.008   -0.793931    1.779291   -2.122654
  12 H     1.0000    0     1.008   -1.406107    0.104332   -6.455418
  13 H     1.0000    0     1.008   -4.743439   -3.076569   -7.289524
  14 C     6.0000    0    12.011  -12.039029   -5.286603   -0.865891
  15 C     6.0000    0    12.011  -11.817554   -0.748143   -0.290999
  16 C     6.0000    0    12.011  -14.365528   -5.010306   -2.088658
  17 H     1.0000    0     1.008  -11.270194   -7.160720   -0.663502
  18 C     6.0000    0    12.011  -14.146187   -0.482693   -1.511686
  19 C     6.0000    0    12.011  -15.419674   -2.612603   -2.408588
  20 H     1.0000    0     1.008  -10.847803    0.916442    0.397901
  21 H     1.0000    0     1.008  -14.963702    1.375551   -1.761678
  22 H     1.0000    0     1.008  -15.351001   -6.659395   -2.791125
  23 H     1.0000    0     1.008  -17.221717   -2.405602   -3.354188
  24 C     6.0000    0    12.011   -4.899795   -7.869009    0.421711
  25 C     6.0000    0    12.011   -8.488971   -8.406844    3.216786
  26 C     6.0000    0    12.011   -8.007223  -11.001513    3.331096
  27 H     1.0000    0     1.008  -10.061582   -7.627407    4.268797
  28 C     6.0000    0    12.011   -4.424057  -10.464396    0.545847
  29 H     1.0000    0     1.008   -3.646888   -6.705712   -0.688276
  30 C     6.0000    0    12.011   -5.978829  -12.030129    1.992660
  31 H     1.0000    0     1.008   -2.840561  -11.260236   -0.475550
  32 H     1.0000    0     1.008   -5.603737  -14.038246    2.086163
  33 H     1.0000    0     1.008   -9.204232  -12.213829    4.462191

--------------------------------
INTERNAL COORDINATES (ANGSTROEM)
--------------------------------
 P      0   0   0     0.000000000000     0.00000000     0.00000000
 C      1   0   0     1.859883276983     0.00000000     0.00000000
 C      1   2   0     1.860293389603   103.97740731     0.00000000
 C      1   2   3     1.850689676553    96.98994988   104.42547780
 C      4   1   2     1.400637069372   119.20891518   134.17866931
 C      4   1   2     1.406247436051   121.26905453   313.88421447
 C      6   4   1     1.397716553848   120.12273960   180.50377179
 H      6   4   1     1.081896086923   120.51542981     0.22177751
 C      5   4   1     1.398432467408   120.19324512   179.31494879
 H      5   4   1     1.082721770586   120.16650930   359.83713014
 C      7   6   4     1.397551281385   120.06231450     0.09198682
 H      9   5   4     1.082277951406   119.96620814   180.42786294
 H     11   7   6     1.082375460596   119.97766684   179.74078787
 H      7   6   4     1.082497251590   119.95510659   179.88302430
 C      2   1   3     1.408343750687   122.58179602   359.64979157
 C      2   1   3     1.403075500107   118.31566917   179.77560734
 C     15   2   1     1.398479561738   120.21632757   179.91572305
 H     15   2   1     1.077286201573   121.44071806   359.37086315
 C     16   2   1     1.398377935359   120.45110811   180.18546007
 C     17  15   2     1.396322174500   120.18506589     0.00000000
 H     16   2   1     1.082660838398   120.10960898   359.96913302
 H     19  16   2     1.082409170231   119.99402362   179.81261931
 H     17  15   2     1.082437290840   119.91606749   179.90459163
 H     20  17  15     1.082470380057   119.99603723   180.06365156
 C      3   1   2     1.408188633209   122.14864806   114.85920210
 C      3   1   2     1.403887213276   118.72278805   292.52404693
 C     26   3   1     1.397815147507   120.43458969   180.98266834
 H     26   3   1     1.082856563770   120.08860101     1.28696917
 C     25   3   1     1.397846821007   120.23175404   178.83082814
 H     25   3   1     1.078679086939   121.36661059   359.43370483
 C     29  25   3     1.396275993276   120.17721698   359.62766145
 H     29  25   3     1.082432146649   119.88259720   179.92007959
 H     31  29  25     1.082160604069   119.97970543   180.06854427
 H     27  26   3     1.082153597370   119.96707054   180.41072970

---------------------------
INTERNAL COORDINATES (A.U.)
---------------------------
 P      0   0   0     0.000000000000     0.00000000     0.00000000
 C      1   0   0     3.514670034557     0.00000000     0.00000000
 C      1   2   0     3.515445035093   103.97740731     0.00000000
 C      1   2   3     3.497296647561    96.98994988   104.42547780
 C      4   1   2     2.646820474132   119.20891518   134.17866931
 C      4   1   2     2.657422530665   121.26905453   313.88421447
 C      6   4   1     2.641301499620   120.12273960   180.50377179
 H      6   4   1     2.044487309646   120.51542981     0.22177751
 C      5   4   1     2.642654380184   120.19324512   179.31494879
 H      5   4   1     2.046047625641   120.16650930   359.83713014
 C      7   6   4     2.640989179928   120.06231450     0.09198682
 H      9   5   4     2.045208928939   119.96620814   180.42786294
 H     11   7   6     2.045393194603   119.97766684   179.74078787
 H      7   6   4     2.045623346228   119.95510659   179.88302430
 C      2   1   3     2.661383991218   122.58179602   359.64979157
 C      2   1   3     2.651428440416   118.31566917   179.77560734
 C     15   2   1     2.642743375572   120.21632757   179.91572305
 H     15   2   1     2.035775888826   121.44071806   359.37086315
 C     16   2   1     2.642551329547   120.45110811   180.18546007
 C     17  15   2     2.638666504526   120.18506589     0.00000000
 H     16   2   1     2.045932480493   120.10960898   359.96913302
 H     19  16   2     2.045456896581   119.99402362   179.81261931
 H     17  15   2     2.045510036830   119.91606749   179.90459163
 H     20  17  15     2.045572566389   119.99603723   180.06365156
 C      3   1   2     2.661090861667   122.14864806   114.85920210
 C      3   1   2     2.652962356006   118.72278805   292.52404693
 C     26   3   1     2.641487814635   120.43458969   180.98266834
 H     26   3   1     2.046302347845   120.08860101     1.28696917
 C     25   3   1     2.641547668876   120.23175404   178.83082814
 H     25   3   1     2.038408060703   121.36661059   359.43370483
 C     29  25   3     2.638579234661   120.17721698   359.62766145
 H     29  25   3     2.045500315720   119.88259720   179.92007959
 H     31  29  25     2.044987174610   119.97970543   180.06854427
 H     27  26   3     2.044973933866   119.96707054   180.41072970

---------------------
BASIS SET INFORMATION
---------------------
There are 3 groups of distinct atoms

 Group   1 Type P   : 14s9p1d contracted to 5s4p1d pattern {73211/6111/1}
 Group   2 Type C   : 11s6p1d contracted to 5s3p1d pattern {62111/411/1}
 Group   3 Type H   : 5s contracted to 3s pattern {311}

Atom   0P    basis set group =>   1
Atom   1C    basis set group =>   2
Atom   2C    basis set group =>   2
Atom   3C    basis set group =>   2
Atom   4C    basis set group =>   2
Atom   5C    basis set group =>   2
Atom   6C    basis set group =>   2
Atom   7H    basis set group =>   3
Atom   8C    basis set group =>   2
Atom   9H    basis set group =>   3
Atom  10C    basis set group =>   2
Atom  11H    basis set group =>   3
Atom  12H    basis set group =>   3
Atom  13H    basis set group =>   3
Atom  14C    basis set group =>   2
Atom  15C    basis set group =>   2
Atom  16C    basis set group =>   2
Atom  17H    basis set group =>   3
Atom  18C    basis set group =>   2
Atom  19C    basis set group =>   2
Atom  20H    basis set group =>   3
Atom  21H    basis set group =>   3
Atom  22H    basis set group =>   3
Atom  23H    basis set group =>   3
Atom  24C    basis set group =>   2
Atom  25C    basis set group =>   2
Atom  26C    basis set group =>   2
Atom  27H    basis set group =>   3
Atom  28C    basis set group =>   2
Atom  29H    basis set group =>   3
Atom  30C    basis set group =>   2
Atom  31H    basis set group =>   3
Atom  32H    basis set group =>   3
Atom  33H    basis set group =>   3
---------------------------------
AUXILIARY/J BASIS SET INFORMATION
---------------------------------
There are 3 groups of distinct atoms

 Group   1 Type P   : 14s5p5d2f1g contracted to 8s4p3d1f1g pattern {71111111/2111/311/2/1}
 Group   2 Type C   : 8s3p3d contracted to 6s3p3d pattern {311111/111/111}
 Group   3 Type H   : 5s2p contracted to 3s1p pattern {311/2}

Atom   0P    basis set group =>   1
Atom   1C    basis set group =>   2
Atom   2C    basis set group =>   2
Atom   3C    basis set group =>   2
Atom   4C    basis set group =>   2
Atom   5C    basis set group =>   2
Atom   6C    basis set group =>   2
Atom   7H    basis set group =>   3
Atom   8C    basis set group =>   2
Atom   9H    basis set group =>   3
Atom  10C    basis set group =>   2
Atom  11H    basis set group =>   3
Atom  12H    basis set group =>   3
Atom  13H    basis set group =>   3
Atom  14C    basis set group =>   2
Atom  15C    basis set group =>   2
Atom  16C    basis set group =>   2
Atom  17H    basis set group =>   3
Atom  18C    basis set group =>   2
Atom  19C    basis set group =>   2
Atom  20H    basis set group =>   3
Atom  21H    basis set group =>   3
Atom  22H    basis set group =>   3
Atom  23H    basis set group =>   3
Atom  24C    basis set group =>   2
Atom  25C    basis set group =>   2
Atom  26C    basis set group =>   2
Atom  27H    basis set group =>   3
Atom  28C    basis set group =>   2
Atom  29H    basis set group =>   3
Atom  30C    basis set group =>   2
Atom  31H    basis set group =>   3
Atom  32H    basis set group =>   3
Atom  33H    basis set group =>   3


           ************************************************************
           *        Program running with 12 parallel MPI-processes    *
           *              working on a common directory               *
           ************************************************************
------------------------------------------------------------------------------
                           ORCA GTO INTEGRAL CALCULATION
                           -- RI-GTO INTEGRALS CHOSEN --
------------------------------------------------------------------------------

                         BASIS SET STATISTICS AND STARTUP INFO

Gaussian basis set:
 # of primitive gaussian shells          ...  423
 # of primitive gaussian functions       ...  733
 # of contracted shells                  ...  217
 # of contracted basis functions         ...  409
 Highest angular momentum                ...    2
 Maximum contraction depth               ...    7
Auxiliary gaussian basis set:
 # of primitive gaussian shells          ...  384
 # of primitive gaussian functions       ...  818
 # of contracted shells                  ...  293
 # of contracted aux-basis functions     ...  681
 Highest angular momentum                ...    4
 Maximum contraction depth               ...    7
Ratio of auxiliary to basis functions    ...  1.67
Integral package used                  ... LIBINT
 One Electron integrals                  ... done
 Ordering auxiliary basis shells         ... done
 Integral threshhold             Thresh  ...  2.500e-11
 Primitive cut-off               TCut    ...  2.500e-12
 Pre-screening matrix                    ... done
 Shell pair data                         ... 
 Ordering of the shell pairs             ... done (   0.007 sec) 18466 of 23653 pairs
 Determination of significant pairs      ... done (   0.000 sec)
 Creation of shell pair data             ... done (   0.005 sec)
 Storage of shell pair data              ... done (   0.034 sec)
 Shell pair data done in (   0.047 sec)
 Computing two index integrals           ... done
 Cholesky decomposition of the V-matrix  ... done


Timings:
 Total evaluation time                   ...   0.614 sec (  0.010 min)
 One electron matrix time                ...   0.157 sec (  0.003 min) = 25.5%
 Schwartz matrix evaluation time         ...   0.296 sec (  0.005 min) = 48.2%
 Two index repulsion integral time       ...   0.032 sec (  0.001 min) =  5.3%
 Cholesky decomposition of V             ...   0.055 sec (  0.001 min) =  8.9%
 Three index repulsion integral time     ...   0.000 sec (  0.000 min) =  0.0%



           ************************************************************
           *        Program running with 12 parallel MPI-processes    *
           *              working on a common directory               *
           ************************************************************
-------------------------------------------------------------------------------
                                 ORCA SCF
-------------------------------------------------------------------------------

------------
SCF SETTINGS
------------
Hamiltonian:
 Density Functional     Method          .... DFT(GTOs)
 Exchange Functional    Exchange        .... B973C
 Correlation Functional Correlation     .... B973C
 Gradients option       PostSCFGGA      .... off
   Density functional embedding theory  .... OFF
 RI-approximation to the Coulomb term is turned on
   Number of auxiliary basis functions  .... 681


General Settings:
 Integral files         IntName         .... triphenylphosphine
 Hartree-Fock type      HFTyp           .... RHF
 Total Charge           Charge          ....    0
 Multiplicity           Mult            ....    1
 Number of Electrons    NEL             ....  138
 Basis Dimension        Dim             ....  409
 Nuclear Repulsion      ENuc            ....   1410.1234575942 Eh

Convergence Acceleration:
 DIIS                   CNVDIIS         .... on
   Start iteration      DIISMaxIt       ....    12
   Startup error        DIISStart       ....  0.200000
   # of expansion vecs  DIISMaxEq       ....     5
   Bias factor          DIISBfac        ....   1.050
   Max. coefficient     DIISMaxC        ....  10.000
 Newton-Raphson         CNVNR           .... off
 SOSCF                  CNVSOSCF        .... on
   Start iteration      SOSCFMaxIt      ....   150
   Startup grad/error   SOSCFStart      ....  0.003300
 Level Shifting         CNVShift        .... on
   Level shift para.    LevelShift      ....    0.2500
   Turn off err/grad.   ShiftErr        ....    0.0010
 Zerner damping         CNVZerner       .... off
 Static damping         CNVDamp         .... on
   Fraction old density DampFac         ....    0.7000
   Max. Damping (<1)    DampMax         ....    0.9800
   Min. Damping (>=0)   DampMin         ....    0.0000
   Turn off err/grad.   DampErr         ....    0.1000
 Fernandez-Rico         CNVRico         .... off

SCF Procedure:
 Maximum # iterations   MaxIter         ....   125
 SCF integral mode      SCFMode         .... Direct
   Integral package                     .... LIBINT
 Reset frequency        DirectResetFreq ....    20
 Integral Threshold     Thresh          ....  2.500e-11 Eh
 Primitive CutOff       TCut            ....  2.500e-12 Eh

Convergence Tolerance:
 Convergence Check Mode ConvCheckMode   .... Total+1el-Energy
 Convergence forced     ConvForced      .... 0
 Energy Change          TolE            ....  1.000e-08 Eh
 1-El. energy change                    ....  1.000e-05 Eh
 Orbital Gradient       TolG            ....  1.000e-05
 Orbital Rotation angle TolX            ....  1.000e-05
 DIIS Error             TolErr          ....  5.000e-07


Diagonalization of the overlap matrix:
Smallest eigenvalue                        ... 8.963e-06
Time for diagonalization                   ...    0.071 sec
Threshold for overlap eigenvalues          ... 1.000e-08
Number of eigenvalues below threshold      ... 0
Time for construction of square roots      ...    0.089 sec
Total time needed                          ...    0.161 sec

--------------------------------
INITIAL GUESS: MINIMAL BASIS EHT
--------------------------------
The minimal basis has 114 functions
EHT matrix was diagonalized
Basis set overlap was calculated now projecting the orbitals
Using GuessMode=FMatrix for the initial guess
C*T matrix was formed
Effective Fockian was calculated
Effective Fockian was diagonalized
Initial density was built
                      ------------------
                      INITIAL GUESS DONE
                      ------------------
-------------------
DFT GRID GENERATION
-------------------

General Integration Accuracy     IntAcc      ...  4.340
Radial Grid Type                 RadialGrid  ... Gauss-Chebyshev
Angular Grid (max. acc.)         AngularGrid ... Lebedev-194
Angular grid pruning method      GridPruning ... 3 (G Style)
Weight generation scheme         WeightScheme... Becke
Basis function cutoff            BFCut       ...    1.0000e-11
Integration weight cutoff        WCut        ...    1.0000e-14
Grids for H and He will be reduced by one unit

# of grid points (after initial pruning)     ...  85478 (   0.0 sec)
# of grid points (after weights+screening)   ...  75807 (   0.2 sec)
nearest neighbour list constructed           ...    0.0 sec
Grid point re-assignment to atoms done       ...    0.0 sec
Grid point division into batches done        ...    0.2 sec
Reduced shell lists constructed in    0.3 sec

Total number of grid points                  ...    75807
Total number of batches                      ...     1203
Average number of points per batch           ...       63
Average number of grid points per atom       ...     2230
Average number of shells per batch           ...   136.03 (62.69%)
Average number of basis functions per batch  ...   270.50 (66.14%)
Average number of large shells per batch     ...   101.77 (74.82%)
Average number of large basis fcns per batch ...   201.50 (74.49%)
Maximum spatial batch extension              ...   8.14,  6.39,  8.93 au
Average spatial batch extension              ...   0.15,  0.14,  0.15 au

Time for grid setup =    0.704 sec

--------------
SCF ITERATIONS
--------------
ITER       Energy         Delta-E        Max-DP      RMS-DP      [F,P]     Damp
               ***  Starting incremental Fock matrix formation  ***
  0  -1033.7283137809   0.000000000000 0.32913061  0.00425947  0.6183160 0.7000
  1  -1034.3149859728  -0.586672191918 0.15891085  0.00261363  0.4014173 0.7000
  2  -1034.7225844436  -0.407598470775 0.07092600  0.00163613  0.2612856 0.7000
                               ***Turning on DIIS***
  3  -1035.0064610048  -0.283876561256 0.05350175  0.00115336  0.1714272 0.7000
  4  -1035.2048683603  -0.198407355446 0.04569368  0.00090880  0.1132704 0.7000
  5  -1035.3436654939  -0.138797133596 0.11394196  0.00223941  0.0789018 0.0000
                      *** Initiating the SOSCF procedure ***
                           *** Shutting down DIIS ***
                      *** Re-Reading the Fockian *** 
                      *** Removing any level shift *** 
ITER      Energy       Delta-E        Grad      Rot      Max-DP    RMS-DP
  6  -1035.66758148  -0.3239159845  0.000651  0.000651  0.007303  0.000150
               *** Restarting incremental Fock matrix formation ***
  7  -1035.66761233  -0.0000308547  0.000264  0.001749  0.012634  0.000124
  8  -1035.66759361   0.0000187197  0.000758  0.001360  0.006636  0.000061
  9  -1035.66761831  -0.0000246988  0.000159  0.000568  0.003396  0.000047
 10  -1035.66761592   0.0000023876  0.000202  0.000415  0.002095  0.000030
 11  -1035.66761940  -0.0000034737  0.000043  0.000158  0.000927  0.000010
 12  -1035.66761894   0.0000004605  0.000085  0.000133  0.000603  0.000007
 13  -1035.66761951  -0.0000005737  0.000023  0.000096  0.000409  0.000005
 14  -1035.66761944   0.0000000743  0.000038  0.000063  0.000309  0.000003
 15  -1035.66761954  -0.0000001007  0.000003  0.000014  0.000051  0.000001
 16  -1035.66761955  -0.0000000085  0.000007  0.000011  0.000028  0.000000
                  ***Gradient check signals convergence***
              ***Rediagonalizing the Fockian in SOSCF/NRSCF***

               *****************************************************
               *                     SUCCESS                       *
               *           SCF CONVERGED AFTER  17 CYCLES          *
               *****************************************************

Setting up the final grid:

General Integration Accuracy     IntAcc      ...  4.670
Radial Grid Type                 RadialGrid  ... Gauss-Chebyshev
Angular Grid (max. acc.)         AngularGrid ... Lebedev-302
Angular grid pruning method      GridPruning ... 3 (G Style)
Weight generation scheme         WeightScheme... Becke
Basis function cutoff            BFCut       ...    1.0000e-11
Integration weight cutoff        WCut        ...    1.0000e-14
Grids for H and He will be reduced by one unit

# of grid points (after initial pruning)     ... 169572 (   0.0 sec)
# of grid points (after weights+screening)   ... 148933 (   0.3 sec)
nearest neighbour list constructed           ...    0.0 sec
Grid point re-assignment to atoms done       ...    0.0 sec
Grid point division into batches done        ...    0.7 sec
Reduced shell lists constructed in    1.0 sec

Total number of grid points                  ...   148933
Total number of batches                      ...     2345
Average number of points per batch           ...       63
Average number of grid points per atom       ...     4380
Average number of shells per batch           ...   133.90 (61.70%)
Average number of basis functions per batch  ...   266.15 (65.07%)
Average number of large shells per batch     ...    99.08 (74.00%)
Average number of large basis fcns per batch ...   196.13 (73.69%)
Maximum spatial batch extension              ...   7.21,  6.27,  8.10 au
Average spatial batch extension              ...   0.11,  0.11,  0.12 au

Final grid set up in    1.6 sec
Final integration                            ... done (   1.1 sec)
Change in XC energy                          ...    -0.003064658
Integrated number of electrons               ...   137.999899626
Previous integrated no of electrons          ...   138.000685850

----------------
TOTAL SCF ENERGY
----------------

Total Energy       :        -1035.67068419 Eh          -28182.03206 eV

Components:
Nuclear Repulsion  :         1410.12345759 Eh           38371.41005 eV
Electronic Energy  :        -2445.79414179 Eh          -66553.44211 eV
One Electron Energy:        -4212.56880132 Eh         -114629.82475 eV
Two Electron Energy:         1766.77465953 Eh           48076.38264 eV

Virial components:
Potential Energy   :        -2067.56200649 Eh          -56261.22246 eV
Kinetic Energy     :         1031.89132230 Eh           28079.19040 eV
Virial Ratio       :            2.00366256


DFT components:
N(Alpha)           :       68.999949812862 electrons
N(Beta)            :       68.999949812862 electrons
N(Total)           :      137.999899625724 electrons
E(XC)              :     -125.818575337862 Eh       
DFET-embed. en.    :        0.000000000000 Eh       

---------------
SCF CONVERGENCE
---------------

  Last Energy change         ...    1.0890e-08  Tolerance :   1.0000e-08
  Last MAX-Density change    ...    3.7011e-05  Tolerance :   1.0000e-07
  Last RMS-Density change    ...    7.0395e-07  Tolerance :   5.0000e-09
  Last Orbital Gradient      ...    7.5774e-07  Tolerance :   1.0000e-05
  Last Orbital Rotation      ...    3.2339e-06  Tolerance :   1.0000e-05

             **** THE GBW FILE WAS UPDATED (triphenylphosphine.gbw) ****
             **** DENSITY FILE WAS UPDATED (triphenylphosphine.scfp) ****
             **** ENERGY FILE WAS UPDATED (triphenylphosphine.en.tmp) ****
             **** THE GBW FILE WAS UPDATED (triphenylphosphine.gbw) ****
             **** DENSITY FILE WAS UPDATED (triphenylphosphine.scfp) ****
----------------
ORBITAL ENERGIES
----------------

  NO   OCC          E(Eh)            E(eV) 
   0   2.0000     -76.285222     -2075.8264 
   1   2.0000      -9.911652      -269.7098 
   2   2.0000      -9.908784      -269.6317 
   3   2.0000      -9.908577      -269.6261 
   4   2.0000      -9.902404      -269.4581 
   5   2.0000      -9.902182      -269.4521 
   6   2.0000      -9.901661      -269.4379 
   7   2.0000      -9.901217      -269.4258 
   8   2.0000      -9.900815      -269.4149 
   9   2.0000      -9.900554      -269.4078 
  10   2.0000      -9.900019      -269.3932 
  11   2.0000      -9.899162      -269.3699 
  12   2.0000      -9.898812      -269.3604 
  13   2.0000      -9.898763      -269.3590 
  14   2.0000      -9.898327      -269.3472 
  15   2.0000      -9.897568      -269.3265 
  16   2.0000      -9.896756      -269.3044 
  17   2.0000      -9.896084      -269.2861 
  18   2.0000      -9.895917      -269.2816 
  19   2.0000      -6.344990      -172.6560 
  20   2.0000      -4.567545      -124.2892 
  21   2.0000      -4.567191      -124.2796 
  22   2.0000      -4.564324      -124.2016 
  23   2.0000      -0.789195       -21.4751 
  24   2.0000      -0.782418       -21.2907 
  25   2.0000      -0.779876       -21.2215 
  26   2.0000      -0.704897       -19.1812 
  27   2.0000      -0.684290       -18.6205 
  28   2.0000      -0.684142       -18.6165 
  29   2.0000      -0.680627       -18.5208 
  30   2.0000      -0.676939       -18.4205 
  31   2.0000      -0.675558       -18.3829 
  32   2.0000      -0.590177       -16.0595 
  33   2.0000      -0.554722       -15.0947 
  34   2.0000      -0.553364       -15.0578 
  35   2.0000      -0.548006       -14.9120 
  36   2.0000      -0.542127       -14.7520 
  37   2.0000      -0.540228       -14.7004 
  38   2.0000      -0.507174       -13.8009 
  39   2.0000      -0.470165       -12.7938 
  40   2.0000      -0.468197       -12.7403 
  41   2.0000      -0.449373       -12.2281 
  42   2.0000      -0.413817       -11.2605 
  43   2.0000      -0.410641       -11.1741 
  44   2.0000      -0.408431       -11.1140 
  45   2.0000      -0.404511       -11.0073 
  46   2.0000      -0.401636       -10.9291 
  47   2.0000      -0.400337       -10.8937 
  48   2.0000      -0.381399       -10.3784 
  49   2.0000      -0.380712       -10.3597 
  50   2.0000      -0.377756       -10.2793 
  51   2.0000      -0.367362        -9.9964 
  52   2.0000      -0.360695        -9.8150 
  53   2.0000      -0.335047        -9.1171 
  54   2.0000      -0.331076        -9.0090 
  55   2.0000      -0.325766        -8.8645 
  56   2.0000      -0.324203        -8.8220 
  57   2.0000      -0.310216        -8.4414 
  58   2.0000      -0.309214        -8.4142 
  59   2.0000      -0.306977        -8.3533 
  60   2.0000      -0.288738        -7.8570 
  61   2.0000      -0.284750        -7.7485 
  62   2.0000      -0.247096        -6.7238 
  63   2.0000      -0.237765        -6.4699 
  64   2.0000      -0.232812        -6.3351 
  65   2.0000      -0.229867        -6.2550 
  66   2.0000      -0.225678        -6.1410 
  67   2.0000      -0.219654        -5.9771 
  68   2.0000      -0.189235        -5.1494 
  69   0.0000      -0.055386        -1.5071 
  70   0.0000      -0.052328        -1.4239 
  71   0.0000      -0.043200        -1.1755 
  72   0.0000      -0.042475        -1.1558 
  73   0.0000      -0.033814        -0.9201 
  74   0.0000      -0.031131        -0.8471 
  75   0.0000       0.017012         0.4629 
  76   0.0000       0.033020         0.8985 
  77   0.0000       0.037396         1.0176 
  78   0.0000       0.051547         1.4027 
  79   0.0000       0.056168         1.5284 
  80   0.0000       0.065998         1.7959 
  81   0.0000       0.069712         1.8970 
  82   0.0000       0.073680         2.0049 
  83   0.0000       0.076915         2.0930 
  84   0.0000       0.085699         2.3320 
  85   0.0000       0.089694         2.4407 
  86   0.0000       0.090939         2.4746 
  87   0.0000       0.093608         2.5472 
  88   0.0000       0.095621         2.6020 
  89   0.0000       0.098729         2.6866 
  90   0.0000       0.106967         2.9107 
  91   0.0000       0.108251         2.9457 
  92   0.0000       0.113955         3.1009 
  93   0.0000       0.121205         3.2981 
  94   0.0000       0.125677         3.4199 
  95   0.0000       0.128399         3.4939 
  96   0.0000       0.150323         4.0905 
  97   0.0000       0.162863         4.4317 
  98   0.0000       0.165589         4.5059 
  99   0.0000       0.168513         4.5855 
 100   0.0000       0.183445         4.9918 
 101   0.0000       0.188190         5.1209 
 102   0.0000       0.191285         5.2051 
 103   0.0000       0.196540         5.3481 
 104   0.0000       0.201263         5.4766 
 105   0.0000       0.203335         5.5330 
 106   0.0000       0.204734         5.5711 
 107   0.0000       0.210540         5.7291 
 108   0.0000       0.214674         5.8416 
 109   0.0000       0.218248         5.9388 
 110   0.0000       0.222157         6.0452 
 111   0.0000       0.223430         6.0799 
 112   0.0000       0.226440         6.1617 
 113   0.0000       0.230827         6.2811 
 114   0.0000       0.233369         6.3503 
 115   0.0000       0.241000         6.5579 
 116   0.0000       0.242154         6.5893 
 117   0.0000       0.244024         6.6402 
 118   0.0000       0.249609         6.7922 
 119   0.0000       0.251871         6.8538 
 120   0.0000       0.255871         6.9626 
 121   0.0000       0.265258         7.2180 
 122   0.0000       0.268986         7.3195 
 123   0.0000       0.271037         7.3753 
 124   0.0000       0.280982         7.6459 
 125   0.0000       0.293548         7.9878 
 126   0.0000       0.295591         8.0434 
 127   0.0000       0.303904         8.2696 
 128   0.0000       0.304617         8.2891 
 129   0.0000       0.310675         8.4539 
 130   0.0000       0.316710         8.6181 
 131   0.0000       0.319945         8.7061 
 132   0.0000       0.324300         8.8247 
 133   0.0000       0.330663         8.9978 
 134   0.0000       0.334414         9.0999 
 135   0.0000       0.338972         9.2239 
 136   0.0000       0.346300         9.4233 
 137   0.0000       0.349310         9.5052 
 138   0.0000       0.359385         9.7794 
 139   0.0000       0.362865         9.8740 
 140   0.0000       0.363919         9.9027 
 141   0.0000       0.370222        10.0743 
 142   0.0000       0.371916        10.1203 
 143   0.0000       0.374409        10.1882 
 144   0.0000       0.383636        10.4393 
 145   0.0000       0.390130        10.6160 
 146   0.0000       0.395862        10.7720 
 147   0.0000       0.403761        10.9869 
 148   0.0000       0.405232        11.0269 
 149   0.0000       0.406684        11.0664 
 150   0.0000       0.410260        11.1637 
 151   0.0000       0.411663        11.2019 
 152   0.0000       0.418841        11.3972 
 153   0.0000       0.422867        11.5068 
 154   0.0000       0.432051        11.7567 
 155   0.0000       0.435342        11.8463 
 156   0.0000       0.437917        11.9163 
 157   0.0000       0.441379        12.0105 
 158   0.0000       0.443655        12.0725 
 159   0.0000       0.452951        12.3254 
 160   0.0000       0.458283        12.4705 
 161   0.0000       0.462953        12.5976 
 162   0.0000       0.466566        12.6959 
 163   0.0000       0.467237        12.7142 
 164   0.0000       0.471354        12.8262 
 165   0.0000       0.474447        12.9104 
 166   0.0000       0.475197        12.9308 
 167   0.0000       0.479840        13.0571 
 168   0.0000       0.483438        13.1550 
 169   0.0000       0.490479        13.3466 
 170   0.0000       0.493291        13.4231 
 171   0.0000       0.498238        13.5577 
 172   0.0000       0.511303        13.9132 
 173   0.0000       0.519187        14.1278 
 174   0.0000       0.528830        14.3902 
 175   0.0000       0.542174        14.7533 
 176   0.0000       0.554006        15.0753 
 177   0.0000       0.562760        15.3135 
 178   0.0000       0.569053        15.4847 
 179   0.0000       0.580381        15.7930 
 180   0.0000       0.591120        16.0852 
 181   0.0000       0.600753        16.3473 
 182   0.0000       0.607556        16.5324 
 183   0.0000       0.616460        16.7747 
 184   0.0000       0.630296        17.1512 
 185   0.0000       0.637616        17.3504 
 186   0.0000       0.646220        17.5845 
 187   0.0000       0.647417        17.6171 
 188   0.0000       0.653144        17.7730 
 189   0.0000       0.660544        17.9743 
 190   0.0000       0.662798        18.0356 
 191   0.0000       0.669707        18.2236 
 192   0.0000       0.684274        18.6201 
 193   0.0000       0.688219        18.7274 
 194   0.0000       0.696485        18.9523 
 195   0.0000       0.738999        20.1092 
 196   0.0000       0.755825        20.5671 
 197   0.0000       0.768652        20.9161 
 198   0.0000       0.772349        21.0167 
 199   0.0000       0.778665        21.1885 
 200   0.0000       0.784606        21.3502 
 201   0.0000       0.794766        21.6267 
 202   0.0000       0.826101        22.4793 
 203   0.0000       0.862622        23.4731 
 204   0.0000       0.869721        23.6663 
 205   0.0000       0.876423        23.8487 
 206   0.0000       0.904866        24.6226 
 207   0.0000       0.914427        24.8828 
 208   0.0000       0.939376        25.5617 
 209   0.0000       0.971660        26.4402 
 210   0.0000       1.125792        30.6344 
 211   0.0000       1.160776        31.5863 
 212   0.0000       1.176722        32.0202 
 213   0.0000       1.183997        32.2182 
 214   0.0000       1.198850        32.6224 
 215   0.0000       1.206208        32.8226 
 216   0.0000       1.230272        33.4774 
 217   0.0000       1.236272        33.6407 
 218   0.0000       1.241112        33.7724 
 219   0.0000       1.282358        34.8947 
 220   0.0000       1.292690        35.1759 
 221   0.0000       1.293197        35.1897 
 222   0.0000       1.307254        35.5722 
 223   0.0000       1.312451        35.7136 
 224   0.0000       1.316584        35.8261 
 225   0.0000       1.319514        35.9058 
 226   0.0000       1.323285        36.0084 
 227   0.0000       1.328440        36.1487 
 228   0.0000       1.331588        36.2343 
 229   0.0000       1.336195        36.3597 
 230   0.0000       1.344524        36.5864 
 231   0.0000       1.348614        36.6977 
 232   0.0000       1.351273        36.7700 
 233   0.0000       1.352623        36.8067 
 234   0.0000       1.360273        37.0149 
 235   0.0000       1.362026        37.0626 
 236   0.0000       1.368331        37.2342 
 237   0.0000       1.371194        37.3121 
 238   0.0000       1.385435        37.6996 
 239   0.0000       1.388246        37.7761 
 240   0.0000       1.390563        37.8391 
 241   0.0000       1.397602        38.0307 
 242   0.0000       1.399342        38.0780 
 243   0.0000       1.403723        38.1973 
 244   0.0000       1.413876        38.4735 
 245   0.0000       1.426453        38.8158 
 246   0.0000       1.441901        39.2361 
 247   0.0000       1.451635        39.5010 
 248   0.0000       1.453214        39.5440 
 249   0.0000       1.462046        39.7843 
 250   0.0000       1.469258        39.9806 
 251   0.0000       1.470302        40.0089 
 252   0.0000       1.474732        40.1295 
 253   0.0000       1.479507        40.2594 
 254   0.0000       1.482969        40.3536 
 255   0.0000       1.488862        40.5140 
 256   0.0000       1.489963        40.5440 
 257   0.0000       1.492879        40.6233 
 258   0.0000       1.506263        40.9875 
 259   0.0000       1.509508        41.0758 
 260   0.0000       1.514920        41.2231 
 261   0.0000       1.519762        41.3548 
 262   0.0000       1.521461        41.4010 
 263   0.0000       1.524023        41.4708 
 264   0.0000       1.526580        41.5404 
 265   0.0000       1.528824        41.6014 
 266   0.0000       1.533759        41.7357 
 267   0.0000       1.536628        41.8138 
 268   0.0000       1.553230        42.2655 
 269   0.0000       1.557743        42.3883 
 270   0.0000       1.561701        42.4961 
 271   0.0000       1.570351        42.7314 
 272   0.0000       1.574807        42.8527 
 273   0.0000       1.597520        43.4707 
 274   0.0000       1.600682        43.5568 
 275   0.0000       1.605494        43.6877 
 276   0.0000       1.622041        44.1380 
 277   0.0000       1.635619        44.5075 
 278   0.0000       1.643187        44.7134 
 279   0.0000       1.644240        44.7421 
 280   0.0000       1.650901        44.9233 
 281   0.0000       1.657460        45.1018 
 282   0.0000       1.661201        45.2036 
 283   0.0000       1.669185        45.4208 
 284   0.0000       1.685027        45.8519 
 285   0.0000       1.696741        46.1707 
 286   0.0000       1.707779        46.4710 
 287   0.0000       1.712174        46.5906 
 288   0.0000       1.717640        46.7394 
 289   0.0000       1.721007        46.8310 
 290   0.0000       1.725709        46.9589 
 291   0.0000       1.735487        47.2250 
 292   0.0000       1.737990        47.2931 
 293   0.0000       1.742543        47.4170 
 294   0.0000       1.745199        47.4893 
 295   0.0000       1.745612        47.5005 
 296   0.0000       1.752580        47.6901 
 297   0.0000       1.760255        47.8990 
 298   0.0000       1.763118        47.9769 
 299   0.0000       1.786929        48.6248 
 300   0.0000       1.795121        48.8477 
 301   0.0000       1.813141        49.3381 
 302   0.0000       1.822903        49.6037 
 303   0.0000       1.833878        49.9024 
 304   0.0000       1.836673        49.9784 
 305   0.0000       1.847362        50.2693 
 306   0.0000       1.876976        51.0751 
 307   0.0000       1.889384        51.4127 
 308   0.0000       1.902524        51.7703 
 309   0.0000       1.931579        52.5609 
 310   0.0000       1.953984        53.1706 
 311   0.0000       1.971494        53.6471 
 312   0.0000       2.104577        57.2685 
 313   0.0000       2.115339        57.5613 
 314   0.0000       2.127372        57.8887 
 315   0.0000       2.135524        58.1106 
 316   0.0000       2.137840        58.1736 
 317   0.0000       2.139960        58.2313 
 318   0.0000       2.142369        58.2968 
 319   0.0000       2.145802        58.3902 
 320   0.0000       2.148612        58.4667 
 321   0.0000       2.156340        58.6770 
 322   0.0000       2.159283        58.7571 
 323   0.0000       2.164087        58.8878 
 324   0.0000       2.172607        59.1196 
 325   0.0000       2.186213        59.4899 
 326   0.0000       2.187367        59.5213 
 327   0.0000       2.224564        60.5335 
 328   0.0000       2.243055        61.0366 
 329   0.0000       2.245977        61.1161 
 330   0.0000       2.246831        61.1394 
 331   0.0000       2.250726        61.2454 
 332   0.0000       2.256433        61.4007 
 333   0.0000       2.259446        61.4827 
 334   0.0000       2.260989        61.5246 
 335   0.0000       2.266897        61.6854 
 336   0.0000       2.271381        61.8074 
 337   0.0000       2.277738        61.9804 
 338   0.0000       2.278462        62.0001 
 339   0.0000       2.284443        62.1629 
 340   0.0000       2.289206        62.2924 
 341   0.0000       2.300117        62.5894 
 342   0.0000       2.303622        62.6847 
 343   0.0000       2.312675        62.9311 
 344   0.0000       2.322904        63.2094 
 345   0.0000       2.337306        63.6013 
 346   0.0000       2.349939        63.9451 
 347   0.0000       2.355533        64.0973 
 348   0.0000       2.367227        64.4155 
 349   0.0000       2.401991        65.3615 
 350   0.0000       2.417285        65.7777 
 351   0.0000       2.542522        69.1856 
 352   0.0000       2.545864        69.2765 
 353   0.0000       2.546603        69.2966 
 354   0.0000       2.553461        69.4832 
 355   0.0000       2.554328        69.5068 
 356   0.0000       2.556890        69.5765 
 357   0.0000       2.595168        70.6181 
 358   0.0000       2.607892        70.9644 
 359   0.0000       2.615885        71.1819 
 360   0.0000       2.650735        72.1302 
 361   0.0000       2.658216        72.3337 
 362   0.0000       2.661098        72.4122 
 363   0.0000       2.799859        76.1880 
 364   0.0000       2.806219        76.3611 
 365   0.0000       2.809930        76.4621 
 366   0.0000       2.836843        77.1944 
 367   0.0000       2.854889        77.6855 
 368   0.0000       2.871568        78.1393 
 369   0.0000       2.984231        81.2050 
 370   0.0000       2.990922        81.3871 
 371   0.0000       2.997781        81.5738 
 372   0.0000       3.034934        82.5847 
 373   0.0000       3.038815        82.6904 
 374   0.0000       3.047364        82.9230 
 375   0.0000       3.061396        83.3048 
 376   0.0000       3.077657        83.7473 
 377   0.0000       3.080327        83.8199 
 378   0.0000       3.101061        84.3842 
 379   0.0000       3.114921        84.7613 
 380   0.0000       3.122524        84.9682 
 381   0.0000       3.135900        85.3322 
 382   0.0000       3.139186        85.4216 
 383   0.0000       3.145689        85.5985 
 384   0.0000       3.426673        93.2445 
 385   0.0000       3.446781        93.7917 
 386   0.0000       3.449382        93.8624 
 387   0.0000       3.484986        94.8313 
 388   0.0000       3.489456        94.9529 
 389   0.0000       3.493650        95.0670 
 390   0.0000      13.955834       379.7576 
 391   0.0000      21.066150       573.2391 
 392   0.0000      21.093055       573.9712 
 393   0.0000      21.138931       575.2196 
 394   0.0000      21.530791       585.8826 
 395   0.0000      21.558337       586.6322 
 396   0.0000      21.566374       586.8509 
 397   0.0000      21.608001       587.9836 
 398   0.0000      21.635965       588.7445 
 399   0.0000      21.662903       589.4776 
 400   0.0000      21.871606       595.1567 
 401   0.0000      21.895125       595.7966 
 402   0.0000      21.899499       595.9157 
 403   0.0000      21.906246       596.0993 
 404   0.0000      21.928888       596.7154 
 405   0.0000      21.958368       597.5176 
 406   0.0000      22.062997       600.3647 
 407   0.0000      22.084813       600.9583 
 408   0.0000      22.103142       601.4571 

                    ********************************
                    * MULLIKEN POPULATION ANALYSIS *
                    ********************************

-----------------------
MULLIKEN ATOMIC CHARGES
-----------------------
   0 P :    0.283481
   1 C :   -0.301544
   2 C :   -0.216262
   3 C :   -0.305941
   4 C :   -0.141225
   5 C :   -0.060343
   6 C :   -0.120669
   7 H :    0.182800
   8 C :   -0.137892
   9 H :    0.173430
  10 C :   -0.187971
  11 H :    0.162005
  12 H :    0.160482
  13 H :    0.163569
  14 C :   -0.074429
  15 C :   -0.106071
  16 C :   -0.156420
  17 H :    0.207440
  18 C :   -0.131730
  19 C :   -0.181733
  20 H :    0.169126
  21 H :    0.159773
  22 H :    0.160313
  23 H :    0.155551
  24 C :   -0.071347
  25 C :   -0.192128
  26 C :   -0.123945
  27 H :    0.188382
  28 C :   -0.159123
  29 H :    0.205773
  30 C :   -0.187928
  31 H :    0.163837
  32 H :    0.158514
  33 H :    0.162223
Sum of atomic charges:   -0.0000000

--------------------------------
MULLIKEN REDUCED ORBITAL CHARGES
--------------------------------
  0 P s       :     5.724805  s :     5.724805
      pz      :     3.217081  p :     8.864948
      px      :     2.760354
      py      :     2.887513
      dz2     :     0.018771  d :     0.126767
      dxz     :     0.037098
      dyz     :     0.015060
      dx2y2   :     0.040475
      dxy     :     0.015363
  1 C s       :     3.323874  s :     3.323874
      pz      :     1.005516  p :     2.937241
      px      :     0.906825
      py      :     1.024901
      dz2     :     0.004352  d :     0.040429
      dxz     :     0.005066
      dyz     :     0.007861
      dx2y2   :     0.011246
      dxy     :     0.011903
  2 C s       :     3.308480  s :     3.308480
      pz      :     1.005670  p :     2.867568
      px      :     0.943693
      py      :     0.918204
      dz2     :     0.006210  d :     0.040214
      dxz     :     0.006839
      dyz     :     0.008034
      dx2y2   :     0.009810
      dxy     :     0.009321
  3 C s       :     3.302687  s :     3.302687
      pz      :     0.971080  p :     2.962390
      px      :     1.042194
      py      :     0.949116
      dz2     :     0.011435  d :     0.040864
      dxz     :     0.009029
      dyz     :     0.008417
      dx2y2   :     0.005599
      dxy     :     0.006384
  4 C s       :     3.092805  s :     3.092805
      pz      :     1.071380  p :     3.007366
      px      :     0.980258
      py      :     0.955727
      dz2     :     0.011417  d :     0.041054
      dxz     :     0.008365
      dyz     :     0.008527
      dx2y2   :     0.006256
      dxy     :     0.006489
  5 C s       :     3.067665  s :     3.067665
      pz      :     0.911154  p :     2.951688
      px      :     1.034561
      py      :     1.005973
      dz2     :     0.012338  d :     0.040991
      dxz     :     0.009833
      dyz     :     0.008784
      dx2y2   :     0.002597
      dxy     :     0.007438
  6 C s       :     3.101439  s :     3.101439
      pz      :     1.022989  p :     2.978508
      px      :     0.966971
      py      :     0.988548
      dz2     :     0.011597  d :     0.040722
      dxz     :     0.008146
      dyz     :     0.008365
      dx2y2   :     0.006040
      dxy     :     0.006575
  7 H s       :     0.817200  s :     0.817200
  8 C s       :     3.122271  s :     3.122271
      pz      :     0.944741  p :     2.975066
      px      :     1.012865
      py      :     1.017459
      dz2     :     0.012258  d :     0.040555
      dxz     :     0.009638
      dyz     :     0.008744
      dx2y2   :     0.002430
      dxy     :     0.007484
  9 H s       :     0.826570  s :     0.826570
 10 C s       :     3.160385  s :     3.160385
      pz      :     1.010125  p :     2.986830
      px      :     0.996577
      py      :     0.980128
      dz2     :     0.009660  d :     0.040756
      dxz     :     0.011371
      dyz     :     0.008687
      dx2y2   :     0.005091
      dxy     :     0.005947
 11 H s       :     0.837995  s :     0.837995
 12 H s       :     0.839518  s :     0.839518
 13 H s       :     0.836431  s :     0.836431
 14 C s       :     3.050891  s :     3.050891
      pz      :     0.960776  p :     2.982869
      px      :     1.005337
      py      :     1.016755
      dz2     :     0.005589  d :     0.040669
      dxz     :     0.006062
      dyz     :     0.004831
      dx2y2   :     0.012335
      dxy     :     0.011851
 15 C s       :     3.056095  s :     3.056095
      pz      :     0.988584  p :     3.009269
      px      :     1.030657
      py      :     0.990027
      dz2     :     0.004417  d :     0.040707
      dxz     :     0.005784
      dyz     :     0.006465
      dx2y2   :     0.011031
      dxy     :     0.013011
 16 C s       :     3.119887  s :     3.119887
      pz      :     1.011410  p :     2.995613
      px      :     0.986248
      py      :     0.997955
      dz2     :     0.004320  d :     0.040920
      dxz     :     0.005793
      dyz     :     0.006737
      dx2y2   :     0.011113
      dxy     :     0.012957
 17 H s       :     0.792560  s :     0.792560
 18 C s       :     3.111664  s :     3.111664
      pz      :     0.980965  p :     2.979232
      px      :     0.979005
      py      :     1.019263
      dz2     :     0.005640  d :     0.040834
      dxz     :     0.006054
      dyz     :     0.005072
      dx2y2   :     0.011886
      dxy     :     0.012181
 19 C s       :     3.157066  s :     3.157066
      pz      :     0.999562  p :     2.983915
      px      :     1.039454
      py      :     0.944899
      dz2     :     0.003394  d :     0.040752
      dxz     :     0.005653
      dyz     :     0.007657
      dx2y2   :     0.013212
      dxy     :     0.010836
 20 H s       :     0.830874  s :     0.830874
 21 H s       :     0.840227  s :     0.840227
 22 H s       :     0.839687  s :     0.839687
 23 H s       :     0.844449  s :     0.844449
 24 C s       :     3.075360  s :     3.075360
      pz      :     1.030336  p :     2.955353
      px      :     0.905878
      py      :     1.019139
      dz2     :     0.003979  d :     0.040633
      dxz     :     0.006322
      dyz     :     0.008720
      dx2y2   :     0.009683
      dxy     :     0.011930
 25 C s       :     3.105503  s :     3.105503
      pz      :     1.020258  p :     3.045712
      px      :     0.990520
      py      :     1.034934
      dz2     :     0.004323  d :     0.040913
      dxz     :     0.006374
      dyz     :     0.009039
      dx2y2   :     0.010288
      dxy     :     0.010888
 26 C s       :     3.112273  s :     3.112273
      pz      :     0.987826  p :     2.970802
      px      :     0.999086
      py      :     0.983891
      dz2     :     0.004120  d :     0.040869
      dxz     :     0.006272
      dyz     :     0.009149
      dx2y2   :     0.009637
      dxy     :     0.011691
 27 H s       :     0.811618  s :     0.811618
 28 C s       :     3.116574  s :     3.116574
      pz      :     0.974410  p :     3.001659
      px      :     1.050754
      py      :     0.976495
      dz2     :     0.004363  d :     0.040890
      dxz     :     0.006218
      dyz     :     0.008756
      dx2y2   :     0.010257
      dxy     :     0.011295
 29 H s       :     0.794227  s :     0.794227
 30 C s       :     3.158371  s :     3.158371
      pz      :     0.971268  p :     2.988792
      px      :     0.958198
      py      :     1.059326
      dz2     :     0.007022  d :     0.040765
      dxz     :     0.006773
      dyz     :     0.005703
      dx2y2   :     0.012377
      dxy     :     0.008889
 31 H s       :     0.836163  s :     0.836163
 32 H s       :     0.841486  s :     0.841486
 33 H s       :     0.837777  s :     0.837777


                     *******************************
                     * LOEWDIN POPULATION ANALYSIS *
                     *******************************

----------------------
LOEWDIN ATOMIC CHARGES
----------------------
   0 P :    0.781225
   1 C :   -0.273020
   2 C :   -0.278889
   3 C :   -0.285120
   4 C :   -0.171239
   5 C :   -0.154571
   6 C :   -0.161725
   7 H :    0.176514
   8 C :   -0.162306
   9 H :    0.167582
  10 C :   -0.156333
  11 H :    0.165178
  12 H :    0.164716
  13 H :    0.165118
  14 C :   -0.179282
  15 C :   -0.164649
  16 C :   -0.161678
  17 H :    0.176897
  18 C :   -0.158967
  19 C :   -0.163557
  20 H :    0.167707
  21 H :    0.164900
  22 H :    0.163819
  23 H :    0.163361
  24 C :   -0.167323
  25 C :   -0.176513
  26 C :   -0.161318
  27 H :    0.170031
  28 C :   -0.160716
  29 H :    0.178879
  30 C :   -0.162943
  31 H :    0.164949
  32 H :    0.164010
  33 H :    0.165264

-------------------------------
LOEWDIN REDUCED ORBITAL CHARGES
-------------------------------
  0 P s       :     5.097852  s :     5.097852
      pz      :     3.246469  p :     8.969851
      px      :     2.799531
      py      :     2.923852
      dz2     :     0.021490  d :     0.151072
      dxz     :     0.044587
      dyz     :     0.017482
      dx2y2   :     0.049768
      dxy     :     0.017746
  1 C s       :     2.939519  s :     2.939519
      pz      :     1.030133  p :     3.251314
      px      :     1.103085
      py      :     1.118096
      dz2     :     0.007822  d :     0.082187
      dxz     :     0.010236
      dyz     :     0.015222
      dx2y2   :     0.024255
      dxy     :     0.024651
  2 C s       :     2.939273  s :     2.939273
      pz      :     1.044933  p :     3.257944
      px      :     1.079327
      py      :     1.133685
      dz2     :     0.011816  d :     0.081672
      dxz     :     0.014225
      dyz     :     0.015550
      dx2y2   :     0.020886
      dxy     :     0.019195
  3 C s       :     2.936032  s :     2.936032
      pz      :     1.140034  p :     3.265488
      px      :     1.068140
      py      :     1.057314
      dz2     :     0.024457  d :     0.083601
      dxz     :     0.019200
      dyz     :     0.017237
      dx2y2   :     0.009742
      dxy     :     0.012964
  4 C s       :     2.913123  s :     2.913123
      pz      :     1.097694  p :     3.177430
      px      :     1.047015
      py      :     1.032722
      dz2     :     0.021375  d :     0.080685
      dxz     :     0.017627
      dyz     :     0.015955
      dx2y2   :     0.011731
      dxy     :     0.013998
  5 C s       :     2.912262  s :     2.912262
      pz      :     1.092785  p :     3.161818
      px      :     1.043193
      py      :     1.025841
      dz2     :     0.026455  d :     0.080490
      dxz     :     0.020561
      dyz     :     0.017929
      dx2y2   :     0.004178
      dxy     :     0.011368
  6 C s       :     2.909649  s :     2.909649
      pz      :     1.086190  p :     3.172593
      px      :     1.050348
      py      :     1.036055
      dz2     :     0.021641  d :     0.079483
      dxz     :     0.017147
      dyz     :     0.015571
      dx2y2   :     0.011224
      dxy     :     0.013900
  7 H s       :     0.823486  s :     0.823486
  8 C s       :     2.909575  s :     2.909575
      pz      :     1.095805  p :     3.173650
      px      :     1.044860
      py      :     1.032985
      dz2     :     0.025597  d :     0.079080
      dxz     :     0.020166
      dyz     :     0.017883
      dx2y2   :     0.003943
      dxy     :     0.011491
  9 H s       :     0.832418  s :     0.832418
 10 C s       :     2.910022  s :     2.910022
      pz      :     1.090407  p :     3.167003
      px      :     1.043814
      py      :     1.032782
      dz2     :     0.020315  d :     0.079308
      dxz     :     0.020803
      dyz     :     0.017322
      dx2y2   :     0.009054
      dxy     :     0.011814
 11 H s       :     0.834822  s :     0.834822
[...]
     62       0.006263  -0.023408  -0.064583  -0.004965   0.010781   0.023719
     63      -0.029943   0.094214   0.282672   0.017319  -0.050688  -0.086733
     64       0.051287  -0.161326  -0.484091  -0.029933   0.087598   0.149496
     65      -0.003641   0.011463   0.034395   0.002023  -0.005988  -0.010294
     66      -0.004882   0.013634   0.051388   0.023968  -0.082885  -0.132914
     67      -0.012067   0.034315   0.126659   0.053959  -0.186041  -0.298017
     68      -0.005462   0.015561   0.058026   0.025846  -0.089153  -0.142937
     69      -0.052479   0.162792   0.500557   0.046214  -0.146257  -0.232968
     70       0.001104  -0.003451  -0.010809  -0.001399   0.004588   0.007265
     71      -0.028012   0.086844   0.267134   0.024581  -0.077902  -0.123916
     72      -0.016420   0.005668  -0.003508  -0.021970   0.004710  -0.006989
     73      -0.021243   0.007335  -0.004396  -0.031121   0.006755  -0.009694
     74       0.035409  -0.012270   0.007298   0.048574  -0.010585   0.015080
     75      -0.007477   0.002490  -0.001532   0.003888  -0.000674   0.001332
     76       0.008616  -0.002903   0.001693  -0.003834   0.000613  -0.001436
     77       0.008372  -0.002820   0.001597  -0.004631   0.000714  -0.001762
     78      -0.018334   0.006060  -0.003932   0.008707  -0.001559   0.002572
     79      -0.022800   0.007522  -0.004885   0.010016  -0.001801   0.002979
     80       0.038894  -0.012843   0.008349  -0.018096   0.003245  -0.005349
     81       0.082177  -0.027619   0.015974  -0.040033   0.006121  -0.014659
     82      -0.074810   0.025166  -0.014469   0.035783  -0.005442   0.013388
     83      -0.100646   0.033874  -0.019240   0.049468  -0.007304   0.018482
     84       0.004081  -0.001426   0.001261  -0.022122   0.004464  -0.006519
     85      -0.000562   0.000238  -0.000432   0.019332  -0.003925   0.005755
     86      -0.006103   0.002127  -0.001768   0.026214  -0.005271   0.007712
     87       0.188943  -0.065481   0.039581   0.255683  -0.055650   0.080021
     88       0.251156  -0.086640   0.052114   0.343515  -0.075037   0.107159
     89      -0.409382   0.141561  -0.084973  -0.555337   0.120893  -0.172683
     90       0.009993  -0.003322   0.002174  -0.005990   0.001093  -0.001679
     91      -0.044972   0.014924  -0.009924   0.032336  -0.006074   0.009045
     92       0.004003  -0.001325   0.000911  -0.004757   0.000929  -0.001357
     93      -0.042176   0.014816  -0.013323   0.242360  -0.048905   0.071469
     94       0.031654  -0.011232   0.010425  -0.206166   0.041654  -0.060942
     95       0.052280  -0.018414   0.016333  -0.289258   0.058303  -0.085260
     96      -0.102652   0.034070  -0.022605   0.070458  -0.013165   0.019749
     97       0.502079  -0.166737   0.110842  -0.353346   0.066291  -0.098799
     98      -0.059095   0.019648  -0.013063   0.043962  -0.008264   0.012369
     99       0.200203  -0.066137   0.042922  -0.091016   0.016312  -0.026963
    100       0.263129  -0.086933   0.056418  -0.118381   0.021238  -0.035205
    101      -0.431519   0.142556  -0.092508   0.195632  -0.035035   0.058044


-----------
IR SPECTRUM
-----------

 Mode    freq (cm**-1)   T**2         TX         TY         TZ
-------------------------------------------------------------------
   6:        21.00    0.336901  (  0.420419  -0.353748   0.187113)
   7:        26.96    0.332093  ( -0.399574  -0.345141   0.230892)
   8:        46.88    0.007527  ( -0.059388  -0.040706   0.048409)
   9:        52.76    0.126031  ( -0.354262   0.022591   0.004324)
  10:        53.31    0.131216  (  0.038138   0.309445  -0.184405)
  11:        67.67    0.491743  (  0.032171   0.353382   0.604838)
  12:       185.72    0.362680  ( -0.016684  -0.348393  -0.490942)
  13:       200.36    1.269243  ( -0.331158   0.914074  -0.569251)
  14:       201.81    1.280243  ( -1.078916  -0.258547   0.222120)
  15:       247.40    0.793031  ( -0.039615  -0.480508  -0.748715)
  16:       261.93    0.229338  ( -0.229284  -0.348212   0.235617)
  17:       263.52    0.251207  ( -0.444984   0.203230  -0.109061)
  18:       392.80    1.054337  (  0.188144  -0.854387   0.537552)
  19:       393.85    1.070099  (  1.016272   0.148291  -0.123696)
  20:       398.26    0.013948  (  0.017140   0.080357  -0.084834)
  21:       404.96    0.248714  ( -0.001079   0.299801   0.398538)
  22:       428.45    4.304285  ( -1.606809  -1.085988   0.736941)
  23:       429.59    4.554273  ( -1.369308   1.416730  -0.819844)
  24:       494.39   26.302003  ( -0.841423  -4.394381   2.506677)
  25:       495.42   26.369240  (  5.073226  -0.694295   0.386746)
  26:       505.09   17.334160  ( -0.072279   2.057671   3.618691)
  27:       635.35    0.225463  ( -0.030335   0.397466  -0.258000)
  28:       635.42    0.222541  ( -0.470515   0.014076   0.030964)
  29:       635.58    0.027756  (  0.080576   0.058948   0.133374)
  30:       683.15   28.347703  (  3.035938  -4.342802   0.520439)
  31:       684.06   29.824210  (  4.340098   2.589685  -2.069129)
  32:       684.91   28.706669  ( -1.390735  -1.611166  -4.916978)
  33:       697.31    0.279384  ( -0.051166  -0.309990  -0.425055)
  34:       709.80    6.497782  (  2.497794   0.417715  -0.290382)
  35:       709.95    6.571184  ( -0.496512   2.184897  -1.245345)
  36:       732.59   30.984912  (  1.436850   5.172006   1.473339)
  37:       733.12   31.937717  (  4.652342  -0.184514  -3.203028)
  38:       733.18   30.790991  ( -2.996506   2.280481  -4.075703)
  39:       836.50    0.100748  (  0.185847  -0.215171   0.141103)
  40:       836.62    0.092795  ( -0.266066  -0.113009   0.096086)
  41:       839.60    0.301114  ( -0.038865  -0.285710  -0.466876)
  42:       889.16    1.091386  ( -0.687193  -0.662868   0.423979)
  43:       889.40    1.003643  ( -0.820270   0.506972  -0.271623)
  44:       890.13    0.203308  ( -0.146892   0.348201  -0.245940)
  45:       913.87    0.352133  ( -0.087722  -0.289379  -0.510585)
  46:       914.59    0.023548  ( -0.003421  -0.032408  -0.149952)
  47:       914.84    0.044879  (  0.105241  -0.126250  -0.133657)
  48:       948.57    0.052638  ( -0.004318  -0.194512   0.121594)
  49:       948.76    0.074538  (  0.271176  -0.029104  -0.012417)
  50:       949.60    0.002023  (  0.042343   0.013916  -0.006018)
  51:      1018.95    0.139472  ( -0.014707  -0.075024  -0.365550)
  52:      1019.12    1.471662  (  0.113206   1.036633  -0.619870)
  53:      1019.14    1.508799  ( -1.220606   0.130816  -0.042513)
  54:      1044.26    9.342681  ( -0.892505   2.523740  -1.475415)
  55:      1044.37    9.061730  (  2.903567   0.695764  -0.383331)
  56:      1044.83    0.832465  ( -0.542377  -0.150724   0.718036)
  57:      1094.62    2.039686  ( -0.727742   0.550946   1.098424)
  58:      1095.18    2.888444  ( -0.461150  -1.347134  -0.927909)
  59:      1095.41    1.817680  (  0.589116  -0.258974   1.184717)
  60:      1099.70    7.660170  (  0.137153  -2.344007   1.465261)
  61:      1099.84    7.261765  (  2.688071   0.080606  -0.171882)
  62:      1108.50    1.685131  ( -0.003968   0.690956   1.098952)
  63:      1180.00    0.029235  ( -0.088731  -0.105162   0.101501)
  64:      1180.37    0.104978  ( -0.036260   0.275437  -0.166725)
  65:      1180.61    0.114341  (  0.337942  -0.002532  -0.011390)
  66:      1204.52    5.044744  ( -0.465992  -1.711058   1.378359)
  67:      1205.42    5.404042  (  2.255806  -0.525279   0.198657)
  68:      1206.31    1.271908  ( -0.296279  -1.005070  -0.417087)
  69:      1317.72    3.182450  (  0.018415   0.942009   1.514836)
  70:      1322.61    2.272695  (  1.488410   0.205409  -0.123039)
  71:      1323.25    2.363334  ( -0.208605   1.304132  -0.786803)
  72:      1354.69    1.623796  ( -0.068408  -0.803428  -0.986721)
  73:      1355.38    0.473924  ( -0.195498  -0.070252  -0.656330)
  74:      1355.87    0.258859  (  0.327216  -0.049458  -0.386448)
  75:      1459.51   13.357234  (  0.086425   1.907440   3.116318)
  76:      1461.03    7.070000  ( -1.741909  -1.698347   1.073019)
  77:      1461.33    7.160642  (  1.971741  -1.564601   0.908242)
  78:      1508.45    3.598875  (  0.073185   1.827444   0.503951)
  79:      1509.42   12.400929  (  0.751291  -2.622946   2.226352)
  80:      1509.76   13.972295  (  3.670927   0.460883  -0.533083)
  81:      1600.08    0.529977  ( -0.028124  -0.350781  -0.637291)
  82:      1601.19    0.083390  ( -0.100779   0.187328  -0.195300)
  83:      1601.42    0.102285  ( -0.304008  -0.079610   0.059379)
  84:      1615.18    7.450531  ( -0.310048   2.279498  -1.469112)
  85:      1615.38    8.049112  ( -2.817890  -0.232688   0.233374)
  86:      1617.35    0.187302  (  0.015624  -0.398575  -0.167915)
  87:      3109.49    4.579087  ( -0.243611   0.175127  -2.118743)
  88:      3109.84    6.592789  (  0.307483  -1.968497  -1.619649)
  89:      3109.85    2.550506  ( -1.497703  -0.551103  -0.060646)
  90:      3120.12    0.248066  ( -0.412995  -0.189233   0.204185)
  91:      3120.31    0.226210  ( -0.313960   0.318835  -0.161195)
  92:      3120.36    0.122615  (  0.039383   0.308654  -0.160612)
  93:      3129.14   16.446310  (  3.495709  -0.986785   1.803492)
  94:      3129.23   29.819813  ( -1.406008   0.486168   5.254198)
  95:      3129.51   35.386947  ( -0.972066  -4.981680  -3.102402)
  96:      3139.70   46.992278  ( -2.200482  -5.149280   3.954121)
  97:      3139.96   38.871774  ( -6.177262   0.437584  -0.722307)
  98:      3140.41   19.654234  ( -3.346199   2.781775  -0.847888)
  99:      3146.02   23.447806  ( -1.872174   4.308178  -1.175744)
 100:      3146.80   19.933834  (  3.527951   1.267937  -2.424816)
 101:      3147.81   18.656206  (  1.783047   1.854033   3.469800)

The first frequency considered to be a vibration is 6
The total number of vibrations considered is 96


--------------------------
THERMOCHEMISTRY AT 298.15K
--------------------------

Temperature         ... 298.15 K
Pressure            ... 1.00 atm
Total Mass          ... 262.29 AMU

Throughout the following assumptions are being made:
  (1) The electronic state is orbitally nondegenerate
  (2) There are no thermally accessible electronically excited states
  (3) Hindered rotations indicated by low frequency modes are not
      treated as such but are treated as vibrations and this may
      cause some error
  (4) All equations used are the standard statistical mechanics
      equations for an ideal gas
  (5) All vibrations are strictly harmonic

freq.      21.00  E(vib)   ...       0.56 
freq.      26.96  E(vib)   ...       0.55 
freq.      46.88  E(vib)   ...       0.53 
freq.      52.76  E(vib)   ...       0.52 
freq.      53.31  E(vib)   ...       0.52 
freq.      67.67  E(vib)   ...       0.50 
freq.     185.72  E(vib)   ...       0.37 
freq.     200.36  E(vib)   ...       0.35 
freq.     201.81  E(vib)   ...       0.35 
freq.     247.40  E(vib)   ...       0.31 
freq.     261.93  E(vib)   ...       0.29 
freq.     263.52  E(vib)   ...       0.29 
freq.     392.80  E(vib)   ...       0.20 
freq.     393.85  E(vib)   ...       0.20 
freq.     398.26  E(vib)   ...       0.20 
freq.     404.96  E(vib)   ...       0.19 
freq.     428.45  E(vib)   ...       0.18 
freq.     429.59  E(vib)   ...       0.18 
freq.     494.39  E(vib)   ...       0.14 
freq.     495.42  E(vib)   ...       0.14 
freq.     505.09  E(vib)   ...       0.14 
freq.     635.35  E(vib)   ...       0.09 
freq.     635.42  E(vib)   ...       0.09 
freq.     635.58  E(vib)   ...       0.09 
freq.     683.15  E(vib)   ...       0.08 
freq.     684.06  E(vib)   ...       0.07 
freq.     684.91  E(vib)   ...       0.07 
freq.     697.31  E(vib)   ...       0.07 
freq.     709.80  E(vib)   ...       0.07 
freq.     709.95  E(vib)   ...       0.07 
freq.     732.59  E(vib)   ...       0.06 
freq.     733.12  E(vib)   ...       0.06 
freq.     733.18  E(vib)   ...       0.06 
freq.     836.50  E(vib)   ...       0.04 
freq.     836.62  E(vib)   ...       0.04 
freq.     839.60  E(vib)   ...       0.04 
freq.     889.16  E(vib)   ...       0.04 
freq.     889.40  E(vib)   ...       0.04 
freq.     890.13  E(vib)   ...       0.04 
freq.     913.87  E(vib)   ...       0.03 
freq.     914.59  E(vib)   ...       0.03 
freq.     914.84  E(vib)   ...       0.03 
freq.     948.57  E(vib)   ...       0.03 
freq.     948.76  E(vib)   ...       0.03 
freq.     949.60  E(vib)   ...       0.03 
freq.    1018.95  E(vib)   ...       0.02 
freq.    1019.12  E(vib)   ...       0.02 
freq.    1019.14  E(vib)   ...       0.02 
freq.    1044.26  E(vib)   ...       0.02 
freq.    1044.37  E(vib)   ...       0.02 
freq.    1044.83  E(vib)   ...       0.02 
freq.    1094.62  E(vib)   ...       0.02 
freq.    1095.18  E(vib)   ...       0.02 
freq.    1095.41  E(vib)   ...       0.02 
freq.    1099.70  E(vib)   ...       0.02 
freq.    1099.84  E(vib)   ...       0.02 
freq.    1108.50  E(vib)   ...       0.02 
freq.    1180.00  E(vib)   ...       0.01 
freq.    1180.37  E(vib)   ...       0.01 
freq.    1180.61  E(vib)   ...       0.01 
freq.    1204.52  E(vib)   ...       0.01 
freq.    1205.42  E(vib)   ...       0.01 
freq.    1206.31  E(vib)   ...       0.01 
freq.    1317.72  E(vib)   ...       0.01 
freq.    1322.61  E(vib)   ...       0.01 
freq.    1323.25  E(vib)   ...       0.01 
freq.    1354.69  E(vib)   ...       0.01 
freq.    1355.38  E(vib)   ...       0.01 
freq.    1355.87  E(vib)   ...       0.01 
freq.    1459.51  E(vib)   ...       0.00 
freq.    1461.03  E(vib)   ...       0.00 
freq.    1461.33  E(vib)   ...       0.00 
freq.    1508.45  E(vib)   ...       0.00 
freq.    1509.42  E(vib)   ...       0.00 
freq.    1509.76  E(vib)   ...       0.00 
freq.    1600.08  E(vib)   ...       0.00 
freq.    1601.19  E(vib)   ...       0.00 
freq.    1601.42  E(vib)   ...       0.00 
freq.    1615.18  E(vib)   ...       0.00 
freq.    1615.38  E(vib)   ...       0.00 
freq.    1617.35  E(vib)   ...       0.00 
freq.    3109.49  E(vib)   ...       0.00 
freq.    3109.84  E(vib)   ...       0.00 
freq.    3109.85  E(vib)   ...       0.00 
freq.    3120.12  E(vib)   ...       0.00 
freq.    3120.31  E(vib)   ...       0.00 
freq.    3120.36  E(vib)   ...       0.00 
freq.    3129.14  E(vib)   ...       0.00 
freq.    3129.23  E(vib)   ...       0.00 
freq.    3129.51  E(vib)   ...       0.00 
freq.    3139.70  E(vib)   ...       0.00 
freq.    3139.96  E(vib)   ...       0.00 
freq.    3140.41  E(vib)   ...       0.00 
freq.    3146.02  E(vib)   ...       0.00 
freq.    3146.80  E(vib)   ...       0.00 
freq.    3147.81  E(vib)   ...       0.00 

------------
INNER ENERGY
------------

The inner energy is: U= E(el) + E(ZPE) + E(vib) + E(rot) + E(trans)
    E(el)   - is the total energy from the electronic structure calculation
              = E(kin-el) + E(nuc-el) + E(el-el) + E(nuc-nuc)
    E(ZPE)  - the the zero temperature vibrational energy from the frequency calculation
    E(vib)  - the the finite temperature correction to E(ZPE) due to population
              of excited vibrational states
    E(rot)  - is the rotational thermal energy
    E(trans)- is the translational thermal energy

Summary of contributions to the inner energy U:
Electronic energy                ...  -1035.90250990 Eh
Zero point energy                ...      0.26902318 Eh     168.81 kcal/mol
Thermal vibrational correction   ...      0.01332826 Eh       8.36 kcal/mol
Thermal rotational correction    ...      0.00141627 Eh       0.89 kcal/mol
Thermal translational correction ...      0.00141627 Eh       0.89 kcal/mol
-----------------------------------------------------------------------
Total thermal energy                  -1035.61732592 Eh


Summary of corrections to the electronic energy:
(perhaps to be used in another calculation)
Total thermal correction                  0.01616080 Eh      10.14 kcal/mol
Non-thermal (ZPE) correction              0.26902318 Eh     168.81 kcal/mol
-----------------------------------------------------------------------
Total correction                          0.28518398 Eh     178.96 kcal/mol


--------
ENTHALPY
--------

The enthalpy is H = U + kB*T
                kB is Boltzmann's constant
Total free energy                 ...  -1035.61732592 Eh 
Thermal Enthalpy correction       ...      0.00094421 Eh       0.59 kcal/mol
-----------------------------------------------------------------------
Total Enthalpy                    ...  -1035.61638171 Eh


Note: Only C1 symmetry has been detected, increase convergence thresholds 
      if your molecule has a higher symmetry. Symmetry factor of 1.0 is   
      used for the rotational entropy correction. 
 

Note: Rotational entropy computed according to Herzberg 
Infrared and Raman Spectra, Chapter V,1, Van Nostrand Reinhold, 1945 
Point Group:  C1, Symmetry Number:   1  
Rotational constants in cm-1:     0.012053     0.012013     0.007136 

Vibrational entropy computed according to the QRRHO of S. Grimme
Chem.Eur.J. 2012 18 9955


-------
ENTROPY
-------

The entropy contributions are T*S = T*(S(el)+S(vib)+S(rot)+S(trans))
     S(el)   - electronic entropy
     S(vib)  - vibrational entropy
     S(rot)  - rotational entropy
     S(trans)- translational entropy
The entropies will be listed as mutliplied by the temperature to get
units of energy

Electronic entropy                ...      0.00000000 Eh      0.00 kcal/mol
Vibrational entropy               ...      0.02326220 Eh     14.60 kcal/mol
Rotational entropy                ...      0.01601752 Eh     10.05 kcal/mol
Translational entropy             ...      0.02023694 Eh     12.70 kcal/mol
-----------------------------------------------------------------------
Final entropy term                ...      0.05951665 Eh     37.35 kcal/mol

In case the symmetry of your molecule has not been determined correctly
or in case you have a reason to use a different symmetry number we print 
out the resulting rotational entropy values for sn=1,12 :
 --------------------------------------------------------
|  sn= 1 | S(rot)=       0.01601752 Eh     10.05 kcal/mol|
|  sn= 2 | S(rot)=       0.01536306 Eh      9.64 kcal/mol|
|  sn= 3 | S(rot)=       0.01498023 Eh      9.40 kcal/mol|
|  sn= 4 | S(rot)=       0.01470860 Eh      9.23 kcal/mol|
|  sn= 5 | S(rot)=       0.01449792 Eh      9.10 kcal/mol|
|  sn= 6 | S(rot)=       0.01432577 Eh      8.99 kcal/mol|
|  sn= 7 | S(rot)=       0.01418023 Eh      8.90 kcal/mol|
|  sn= 8 | S(rot)=       0.01405415 Eh      8.82 kcal/mol|
|  sn= 9 | S(rot)=       0.01394294 Eh      8.75 kcal/mol|
|  sn=10 | S(rot)=       0.01384346 Eh      8.69 kcal/mol|
|  sn=11 | S(rot)=       0.01375347 Eh      8.63 kcal/mol|
|  sn=12 | S(rot)=       0.01367132 Eh      8.58 kcal/mol|
 --------------------------------------------------------


-------------------
GIBBS FREE ENERGY
-------------------

The Gibbs free energy is G = H - T*S

Total enthalpy                    ...  -1035.61638171 Eh 
Total entropy correction          ...     -0.05951665 Eh    -37.35 kcal/mol
-----------------------------------------------------------------------
Final Gibbs free energy         ...  -1035.67589837 Eh

For completeness - the Gibbs free energy minus the electronic energy
G-E(el)                           ...      0.22661153 Eh    142.20 kcal/mol


Timings for individual modules:

Sum of individual times         ...     1178.657 sec (=  19.644 min)
GTO integral calculation        ...       14.068 sec (=   0.234 min)   1.2 %
SCF iterations                  ...      305.061 sec (=   5.084 min)  25.9 %
SCF Gradient evaluation         ...       98.768 sec (=   1.646 min)   8.4 %
Geometry relaxation             ...        2.632 sec (=   0.044 min)   0.2 %
Analytical frequency calculation...      758.127 sec (=  12.635 min)  64.3 %
                             ****ORCA TERMINATED NORMALLY****
TOTAL RUN TIME: 0 days 0 hours 19 minutes 43 seconds 272 msec
