
                                 *****************
                                 * O   R   C   A *
                                 *****************

           --- An Ab Initio, DFT and Semiempirical electronic structure package ---

                  #######################################################
                  #                        -***-                        #
                  #          Department of theory and spectroscopy      #
                  #               Directorship: Frank Neese             #
                  #        Max Planck Institute fuer Kohlenforschung    #
                  #                Kaiser Wilhelm Platz 1               #
                  #                 D-45470 Muelheim/Ruhr               #
                  #                      Germany                        #
                  #                                                     #
                  #                  All rights reserved                #
                  #                        -***-                        #
                  #######################################################


                         Program Version 4.2.1 -  RELEASE  -


 With contributions from (in alphabetic order):
   Daniel Aravena         : Magnetic Suceptibility
   Michael Atanasov       : Ab Initio Ligand Field Theory (pilot matlab implementation)
   Alexander A. Auer      : GIAO ZORA, VPT2
   Ute Becker             : Parallelization
   Giovanni Bistoni       : ED, misc. LED, open-shell LED, HFLD
   Martin Brehm           : Molecular dynamics
   Dmytro Bykov           : SCF Hessian
   Vijay G. Chilkuri      : MRCI spin determinant printing, contributions to CSF-ICE
   Dipayan Datta          : RHF DLPNO-CCSD density
   Achintya Kumar Dutta   : EOM-CC, STEOM-CC
   Dmitry Ganyushin       : Spin-Orbit,Spin-Spin,Magnetic field MRCI
   Miquel Garcia          : C-PCM Hessian, Gaussian charge scheme
   Yang Guo               : DLPNO-NEVPT2, CIM, IAO-localization
   Andreas Hansen         : Spin unrestricted coupled pair/coupled cluster methods
   Benjamin Helmich-Paris : CASSCF linear response (MC-RPA)
   Lee Huntington         : MR-EOM, pCC
   Robert Izsak           : Overlap fitted RIJCOSX, COSX-SCS-MP3, EOM
   Christian Kollmar      : KDIIS, OOCD, Brueckner-CCSD(T), CCSD density
   Simone Kossmann        : Meta GGA functionals, TD-DFT gradient, OOMP2, MP2 Hessian
   Martin Krupicka        : AUTO-CI
   Lucas Lang             : DCDCAS
   Dagmar Lenk            : GEPOL surface, SMD
   Dimitrios Liakos       : Extrapolation schemes; Compound Job, initial MDCI parallelization
   Dimitrios Manganas     : Further ROCIS development; embedding schemes
   Dimitrios Pantazis     : SARC Basis sets
   Taras Petrenko         : DFT Hessian,TD-DFT gradient, ASA, ECA, R-Raman, ABS, FL, XAS/XES, NRVS
   Peter Pinski           : DLPNO-MP2, DLPNO-MP2 Gradient
   Christoph Reimann      : Effective Core Potentials
   Marius Retegan         : Local ZFS, SOC
   Christoph Riplinger    : Optimizer, TS searches, QM/MM, DLPNO-CCSD(T), (RO)-DLPNO pert. Triples
   Tobias Risthaus        : Range-separated hybrids, TD-DFT gradient, RPA, STAB
   Michael Roemelt        : Original ROCIS implementation
   Masaaki Saitow         : Open-shell DLPNO-CCSD energy and density
   Barbara Sandhoefer     : DKH picture change effects
   Avijit Sen             : IP-ROCIS
   Kantharuban Sivalingam : CASSCF convergence, NEVPT2, FIC-MRCI
   Bernardo de Souza      : ESD, SOC TD-DFT
   Georgi Stoychev        : AutoAux, RI-MP2 NMR
   Willem Van den Heuvel  : Paramagnetic NMR
   Boris Wezisla          : Elementary symmetry handling
   Frank Wennmohs         : Technical directorship


 We gratefully acknowledge several colleagues who have allowed us to
 interface, adapt or use parts of their codes:
   Stefan Grimme, W. Hujo, H. Kruse,             : VdW corrections, initial TS optimization,
                  C. Bannwarth                     DFT functionals, gCP, sTDA/sTD-DF
   Ed Valeev, F. Pavosevic, A. Kumar             : LibInt (2-el integral package), F12 methods
   Garnet Chan, S. Sharma, J. Yang, R. Olivares  : DMRG
   Ulf Ekstrom                                   : XCFun DFT Library
   Mihaly Kallay                                 : mrcc  (arbitrary order and MRCC methods)
   Andreas Klamt, Michael Diedenhofen            : otool_cosmo (COSMO solvation model)
   Jiri Pittner, Ondrej Demel                    : Mk-CCSD
   Frank Weinhold                                : gennbo (NPA and NBO analysis)
   Christopher J. Cramer and Donald G. Truhlar   : smd solvation model
   Lars Goerigk                                  : TD-DFT with DH, B97 family of functionals
   V. Asgeirsson, H. Jonsson                     : NEB implementation
   FAccTs GmbH                                   : IRC, NEB, NEB-TS, Multilevel, MM, QM/MM, CI optimization
   S Lehtola, MJT Oliveira, MAL Marques          : LibXC Library


 Your calculation uses the libint2 library for the computation of 2-el integrals
 For citations please refer to: http://libint.valeyev.net

 Your ORCA version has been built with support for libXC version: 4.2.3
 For citations please refer to: https://tddft.org/programs/libxc/

 This ORCA versions uses:
   CBLAS   interface :  Fast vector & matrix operations
   LAPACKE interface :  Fast linear algebra routines
   SCALAPACK package :  Parallel linear algebra routines


Your calculation utilizes the geometrical counterpoise correction gCP
Please cite in your paper:
H.Kruse, S. Grimme J.Chem.Phys., 136, (2012), 154101 
   

Your calculation utilizes the atom-pairwise dispersion correction
based on tight binding partial charges (D4)
Cite in your paper:
E.Caldeweyher, C.Bannwarth, S.Grimme, J.Chem.Phys., (2017), 147, 034112.
E.Caldeweyher, S.Ehlert, A.Hansen, H.Neugebauer, S.Grimme, J.Chem.Phys., (2018), in progress.
   

----- Orbital basis set information -----
Your calculation utilizes the basis: def2-SVP
   F. Weigend and R. Ahlrichs, Phys. Chem. Chem. Phys. 7, 3297 (2005).

----- AuxJ basis set information -----
Your calculation utilizes the auxiliary basis: def2/J
   F. Weigend, Phys. Chem. Chem. Phys. 8, 1057 (2006).

================================================================================
                                        WARNINGS
                       Please study these warnings very carefully!
================================================================================


WARNING: Geometry Optimization
  ===> : Switching off AutoStart
         For restart on a previous wavefunction, please use MOREAD

INFO   : the flag for use of LIBINT has been found!

================================================================================
                                       INPUT FILE
================================================================================
NAME = H2O.inp
|  1> ! revPBE D4 gCP(DFT/TZ) def2-SVP Opt Freq TightOpt TightSCF Grid4 FinalGrid5 LargePrint
|  2> 
|  3> %pal
|  4>  nprocs 2
|  5> end
|  6> 
|  7> *xyz 0 1
|  8> O  0.156393763 0.663886899  0.296218759
|  9> H -0.450461499 0.359915732  0.975135820
| 10> H  0.165589558 0.035410384 -0.429407083
| 11> *
| 12> 
| 13>                          ****END OF INPUT****
================================================================================

                       *****************************
                       * Geometry Optimization Run *
                       *****************************

Geometry optimization settings:
Update method            Update   .... BFGS
Choice of coordinates    CoordSys .... Z-matrix Internals
Initial Hessian          InHess   .... Almoef's Model

Convergence Tolerances:
Energy Change            TolE     ....  1.0000e-06 Eh
Max. Gradient            TolMAXG  ....  1.0000e-04 Eh/bohr
RMS Gradient             TolRMSG  ....  3.0000e-05 Eh/bohr
Max. Displacement        TolMAXD  ....  1.0000e-03 bohr
RMS Displacement         TolRMSD  ....  6.0000e-04 bohr
Strict Convergence                ....  False
------------------------------------------------------------------------------
                        ORCA OPTIMIZATION COORDINATE SETUP
------------------------------------------------------------------------------

The optimization will be done in new redundant internal coordinates
Making redundant internal coordinates   ...  (new redundants) done
Evaluating the initial hessian          ...  (Almloef) done
Evaluating the coordinates              ...  done
Calculating the B-matrix                .... done
Calculating the G-matrix                .... done
Diagonalizing the G-matrix              .... done
The first mode is                       ....    0
The number of degrees of freedom        ....    3

    -----------------------------------------------------------------
                    Redundant Internal Coordinates


    -----------------------------------------------------------------
         Definition                    Initial Value    Approx d2E/dq
    -----------------------------------------------------------------
      1. B(H   1,O   0)                  0.9600         0.519956   
      2. B(H   2,O   0)                  0.9600         0.519956   
      3. A(H   1,O   0,H   2)          109.4700         0.321834   
    -----------------------------------------------------------------

Number of atoms                         .... 3
Number of degrees of freedom            .... 3

         *************************************************************
         *                GEOMETRY OPTIMIZATION CYCLE   1            *
         *************************************************************
---------------------------------
CARTESIAN COORDINATES (ANGSTROEM)
---------------------------------
  O      0.156394    0.663887    0.296219
  H     -0.450461    0.359916    0.975136
  H      0.165590    0.035410   -0.429407

----------------------------
CARTESIAN COORDINATES (A.U.)
----------------------------
  NO LB      ZA    FRAG     MASS         X           Y           Z
   0 O     8.0000    0    15.999    0.295541    1.254564    0.559772
   1 H     1.0000    0     1.008   -0.851249    0.680142    1.842740
   2 H     1.0000    0     1.008    0.312919    0.066916   -0.811462

--------------------------------
INTERNAL COORDINATES (ANGSTROEM)
--------------------------------
 O      0   0   0     0.000000000000     0.00000000     0.00000000
 H      1   0   0     0.960000080782     0.00000000     0.00000000
 H      1   2   0     0.960000080797   109.47000002     0.00000000

---------------------------
INTERNAL COORDINATES (A.U.)
---------------------------
 O      0   0   0     0.000000000000     0.00000000     0.00000000
 H      1   0   0     1.814137241220     0.00000000     0.00000000
 H      1   2   0     1.814137241249   109.47000002     0.00000000

---------------------
BASIS SET INFORMATION
---------------------
There are 2 groups of distinct atoms

 Group   1 Type O   : 7s4p1d contracted to 3s2p1d pattern {511/31/1}
 Group   2 Type H   : 4s1p contracted to 2s1p pattern {31/1}

Atom   0O    basis set group =>   1
Atom   1H    basis set group =>   2
Atom   2H    basis set group =>   2

-------------------------
BASIS SET IN INPUT FORMAT
-------------------------

 # Basis set for element : H 
 NewGTO H 
 S 3 
   1      13.0107010000      0.0334854848
   2       1.9622572000      0.2347218709
   3       0.4445379600      0.8137702853
 S 1 
   1       0.1219496200      1.0000000000
 P 1 
   1       0.8000000000      1.0000000000
  end;

 # Basis set for element : O 
 NewGTO O 
 S 5 
   1    2266.1767785000     -0.0053893504
   2     340.8701019100     -0.0402347214
   3      77.3631351670     -0.1800818421
   4      21.4796449400     -0.4682885766
   5       6.6589433124     -0.4469261716
 S 1 
   1       0.8097597567      1.0000000000
 S 1 
   1       0.2553077223      1.0000000000
 P 3 
   1      17.7215043170      0.0626302488
   2       3.8635505440      0.3333113849
   3       1.0480920883      0.7414863830
 P 1 
   1       0.2764154441      1.0000000000
 D 1 
   1       1.2000000000      1.0000000000
  end;

---------------------------------
AUXILIARY/J BASIS SET INFORMATION
---------------------------------
There are 2 groups of distinct atoms

 Group   1 Type O   : 12s5p4d2f1g contracted to 6s4p3d1f1g pattern {711111/2111/211/2/1}
 Group   2 Type H   : 5s2p1d contracted to 3s1p1d pattern {311/2/1}

Atom   0O    basis set group =>   1
Atom   1H    basis set group =>   2
Atom   2H    basis set group =>   2

-------------------------------------
AUXILIARY/J BASIS SET IN INPUT FORMAT
-------------------------------------

 # Auxiliary/J basis set for element : H 
 NewAuxJGTO H 
 S 3 
   1      15.6752927000      0.1007184237
   2       3.6063578000      0.3404257499
   3       1.2080016000      0.6491996172
 S 1 
   1       0.4726794000      1.0000000000
 S 1 
   1       0.2018100000      1.0000000000
 P 2 
   1       2.0281365000      0.5596620919
   2       0.5358730000      0.5596620919
 D 1 
   1       2.2165124000      1.0000000000
  end;

 # Auxiliary/J basis set for element : O 
 NewAuxJGTO O 
 S 7 
   1    2876.8216605000      0.0168151159
   2    1004.7443032000      0.0340137548
   3     369.7579954000      0.1194951309
   4     142.9442404000      0.2664627624
   5      57.8366425000      0.4202764046
   6      24.3864983000      0.2765077335
   7      10.6622662000      0.0057008815
 S 1 
   1       4.8070437000     -1.0000000000
 S 1 
   1       2.2210770000      1.0000000000
 S 1 
   1       1.0447795000      1.0000000000
 S 1 
   1       0.4968425000      1.0000000000
 S 1 
   1       0.2371384000      1.0000000000
 P 2 
   1      64.2613382000     -0.2731534179
   2      16.3006076000     -0.8168011598
 P 1 
   1       4.3550542000      1.0000000000
 P 1 
   1       1.2019554000      1.0000000000
 P 1 
   1       0.3354196000      1.0000000000
 D 2 
   1       9.2146611000     -0.4661230638
   2       2.8435251000     -0.6600908911
 D 1 
   1       0.9955759000     -1.0000000000
 D 1 
   1       0.3649441000     -1.0000000000
 F 2 
   1       2.6420115000      0.5931563945
   2       0.7345613000      0.5931563945
 G 1 
   1       1.3931000000     -1.0000000000
  end;



           ************************************************************
           *        Program running with 2 parallel MPI-processes     *
           *              working on a common directory               *
           ************************************************************
------------------------------------------------------------------------------
                           ORCA GTO INTEGRAL CALCULATION
                           -- RI-GTO INTEGRALS CHOSEN --
------------------------------------------------------------------------------

                         BASIS SET STATISTICS AND STARTUP INFO

Gaussian basis set:
 # of primitive gaussian shells          ...   22
 # of primitive gaussian functions       ...   38
 # of contracted shells                  ...   12
 # of contracted basis functions         ...   24
 Highest angular momentum                ...    2
 Maximum contraction depth               ...    5
Auxiliary gaussian basis set:
 # of primitive gaussian shells          ...   40
 # of primitive gaussian functions       ...  102
 # of contracted shells                  ...   25
 # of contracted aux-basis functions     ...   71
 Highest angular momentum                ...    4
 Maximum contraction depth               ...    7
Ratio of auxiliary to basis functions    ...  2.96
Integral package used                  ... LIBINT
 One Electron integrals                  ... done
 Ordering auxiliary basis shells         ... done
 Integral threshhold             Thresh  ...  2.500e-11
 Primitive cut-off               TCut    ...  2.500e-12
 Pre-screening matrix                    ... done
 Shell pair data                         ... 
 Ordering of the shell pairs             ... done (   0.000 sec) 78 of 78 pairs
 Determination of significant pairs      ... done (   0.000 sec)
 Creation of shell pair data             ... done (   0.000 sec)
 Storage of shell pair data              ... done (   0.001 sec)
 Shell pair data done in (   0.002 sec)
 Computing two index integrals           ... done
 Cholesky decomposition of the V-matrix  ... done


Timings:
 Total evaluation time                   ...   0.125 sec (  0.002 min)
 One electron matrix time                ...   0.004 sec (  0.000 min) =  3.2%
 Schwartz matrix evaluation time         ...   0.100 sec (  0.002 min) = 80.2%
 Two index repulsion integral time       ...   0.000 sec (  0.000 min) =  0.3%
 Cholesky decomposition of V             ...   0.000 sec (  0.000 min) =  0.3%
 Three index repulsion integral time     ...   0.000 sec (  0.000 min) =  0.0%



           ************************************************************
           *        Program running with 2 parallel MPI-processes     *
           *              working on a common directory               *
           ************************************************************
-------------------------------------------------------------------------------
                                 ORCA SCF
-------------------------------------------------------------------------------

------------
SCF SETTINGS
------------
Hamiltonian:
 Density Functional     Method          .... DFT(GTOs)
 Exchange Functional    Exchange        .... PBE
   PBE kappa parameter   XKappa         ....  1.245000
   PBE mue parameter    XMuePBE         ....  0.219520
 Correlation Functional Correlation     .... PBE
   PBE beta parameter  CBetaPBE         ....  0.066725
 LDA part of GGA corr.  LDAOpt          .... PW91-LDA
 Gradients option       PostSCFGGA      .... off
   Density functional embedding theory  .... OFF
   NL short-range parameter             ....  3.700000
 RI-approximation to the Coulomb term is turned on
   Number of auxiliary basis functions  .... 71


General Settings:
 Integral files         IntName         .... H2O
 Hartree-Fock type      HFTyp           .... RHF
 Total Charge           Charge          ....    0
 Multiplicity           Mult            ....    1
 Number of Electrons    NEL             ....   10
 Basis Dimension        Dim             ....   24
 Nuclear Repulsion      ENuc            ....      9.1571776768 Eh

Convergence Acceleration:
 DIIS                   CNVDIIS         .... on
   Start iteration      DIISMaxIt       ....    12
   Startup error        DIISStart       ....  0.200000
   # of expansion vecs  DIISMaxEq       ....     5
   Bias factor          DIISBfac        ....   1.050
   Max. coefficient     DIISMaxC        ....  10.000
 Newton-Raphson         CNVNR           .... off
 SOSCF                  CNVSOSCF        .... on
   Start iteration      SOSCFMaxIt      ....   150
   Startup grad/error   SOSCFStart      ....  0.003300
 Level Shifting         CNVShift        .... on
   Level shift para.    LevelShift      ....    0.2500
   Turn off err/grad.   ShiftErr        ....    0.0010
 Zerner damping         CNVZerner       .... off
 Static damping         CNVDamp         .... on
   Fraction old density DampFac         ....    0.7000
   Max. Damping (<1)    DampMax         ....    0.9800
   Min. Damping (>=0)   DampMin         ....    0.0000
   Turn off err/grad.   DampErr         ....    0.1000
 Fernandez-Rico         CNVRico         .... off

SCF Procedure:
 Maximum # iterations   MaxIter         ....   125
 SCF integral mode      SCFMode         .... Direct
   Integral package                     .... LIBINT
 Reset frequency        DirectResetFreq ....    20
 Integral Threshold     Thresh          ....  2.500e-11 Eh
 Primitive CutOff       TCut            ....  2.500e-12 Eh

Convergence Tolerance:
 Convergence Check Mode ConvCheckMode   .... Total+1el-Energy
 Convergence forced     ConvForced      .... 0
 Energy Change          TolE            ....  1.000e-08 Eh
 1-El. energy change                    ....  1.000e-05 Eh
 Orbital Gradient       TolG            ....  1.000e-05
 Orbital Rotation angle TolX            ....  1.000e-05
 DIIS Error             TolErr          ....  5.000e-07


Diagonalization of the overlap matrix:
Smallest eigenvalue                        ... 3.894e-02
Time for diagonalization                   ...    0.000 sec
Threshold for overlap eigenvalues          ... 1.000e-08
Number of eigenvalues below threshold      ... 0
Time for construction of square roots      ...    0.000 sec
Total time needed                          ...    0.001 sec

-------------------
DFT GRID GENERATION
-------------------

General Integration Accuracy     IntAcc      ...  4.670
Radial Grid Type                 RadialGrid  ... Gauss-Chebyshev
Angular Grid (max. acc.)         AngularGrid ... Lebedev-302
Angular grid pruning method      GridPruning ... 3 (G Style)
Weight generation scheme         WeightScheme... Becke
Basis function cutoff            BFCut       ...    1.0000e-11
Integration weight cutoff        WCut        ...    1.0000e-14
Grids for H and He will be reduced by one unit

# of grid points (after initial pruning)     ...  13000 (   0.0 sec)
# of grid points (after weights+screening)   ...  12898 (   0.0 sec)
nearest neighbour list constructed           ...    0.0 sec
Grid point re-assignment to atoms done       ...    0.0 sec
Grid point division into batches done        ...    0.0 sec
Reduced shell lists constructed in    0.1 sec

Total number of grid points                  ...    12898
Total number of batches                      ...      203
Average number of points per batch           ...       63
Average number of grid points per atom       ...     4299
Average number of shells per batch           ...     9.89 (82.44%)
Average number of basis functions per batch  ...    19.54 (81.43%)
Average number of large shells per batch     ...     9.35 (94.50%)
Average number of large basis fcns per batch ...    18.36 (93.94%)
Maximum spatial batch extension              ...  16.88, 17.18, 16.88 au
Average spatial batch extension              ...   1.96,  2.03,  1.87 au

Time for grid setup =    0.068 sec

------------------------------
INITIAL GUESS: MODEL POTENTIAL
------------------------------
Loading Hartree-Fock densities                     ... done
Calculating cut-offs                               ... done
Setting up the integral package                    ... done
Initializing the effective Hamiltonian             ... done
Starting the Coulomb interaction                   ... done (   0.0 sec)
Reading the grid                                   ... done
Mapping shells                                     ... done
Starting the XC term evaluation                    ... done (   0.0 sec)
  promolecular density results
     # of electrons  =      9.999015872
     EX              =     -8.787856791
     EC              =     -0.315983055
     EX+EC           =     -9.103839846
Transforming the Hamiltonian                       ... done (   0.0 sec)
Diagonalizing the Hamiltonian                      ... done (   0.0 sec)
Back transforming the eigenvectors                 ... done (   0.0 sec)
Now organizing SCF variables                       ... done
                      ------------------
                      INITIAL GUESS DONE (   0.2 sec)
                      ------------------
----------------------
INITIAL GUESS ORBITALS
----------------------
                      0         1         2         3         4         5   
                 -18.97356  -1.04521  -0.60175  -0.46748  -0.40144  -0.01261
                   2.00000   2.00000   2.00000   2.00000   2.00000   0.00000
                  --------  --------  --------  --------  --------  --------
  0O   1s        -0.988749 -0.292627  0.000001 -0.091688 -0.000001 -0.120232
  0O   2s         0.039920 -0.607265  0.000003 -0.195638 -0.000000 -0.258426
  0O   3s        -0.014332 -0.257669 -0.000007 -0.272159 -0.000007 -0.865190
  0O   1pz       -0.000101  0.004401  0.506851 -0.026056  0.303378  0.010009
  0O   1px       -0.001297  0.056313 -0.222312 -0.333386  0.511101  0.128222
  0O   1py       -0.002024  0.087858  0.117104 -0.520125 -0.342802  0.200027
  0O   2pz       -0.000006 -0.000250  0.186453 -0.014055  0.194814  0.011914
  0O   2px       -0.000078 -0.003190 -0.081778 -0.179835  0.328210  0.152738
  0O   2py       -0.000122 -0.004978  0.043083 -0.280560 -0.220127  0.238281
  0O   1dz2       0.000780 -0.001919 -0.001122 -0.005972 -0.000424  0.004911
  0O   1dxz      -0.001000  0.002997 -0.008000 -0.000044 -0.003544 -0.003190
  0O   1dyz       0.000595 -0.001859 -0.013075  0.001118 -0.004611  0.001457
  0O   1dx2y2    -0.000136  0.000735  0.006620 -0.004722 -0.010800  0.001469
  0O   1dxy       0.000413 -0.001956  0.003755  0.010338 -0.004694 -0.002847
  1H   1s        -0.002587 -0.180547  0.299421  0.179072  0.000007  0.199134
  1H   2s         0.002445 -0.001915  0.043414  0.030209 -0.000003  0.761393
  1H   1pz        0.002309  0.026973 -0.015555 -0.024435  0.011518  0.010544
  1H   1px       -0.002089 -0.019772  0.022825  0.006063  0.019407 -0.005732
  1H   1py       -0.001072 -0.005608  0.020267 -0.012584 -0.013016  0.000782
  2H   1s        -0.002587 -0.180548 -0.299417  0.179074  0.000004  0.199136
  2H   2s         0.002445 -0.001916 -0.043412  0.030208 -0.000001  0.761262
  2H   1pz       -0.002471 -0.028173 -0.017971  0.023731  0.011520 -0.010709
  2H   1px        0.000007  0.004415 -0.008122 -0.015062  0.019406  0.003586
  2H   1py       -0.002177 -0.018350 -0.028014 -0.001455 -0.013016 -0.004132
                      6         7         8         9        10        11   
                   0.05646   0.46640   0.49234   0.73981   0.74622   0.85444
                   0.00000   0.00000   0.00000   0.00000   0.00000   0.00000
                  --------  --------  --------  --------  --------  --------
  0O   1s         0.000007 -0.000031  0.085156 -0.138711 -0.000112 -0.000024
  0O   2s         0.000018 -0.000107  0.307483 -0.626948 -0.000504 -0.000148
  0O   3s         0.000038  0.000085 -0.349503  0.258931  0.000205  0.000248
  0O   1pz       -0.363942 -0.256433 -0.015381 -0.032467  0.411526  0.664082
  0O   1px        0.159623  0.112524 -0.195906 -0.411377  0.693002 -0.291301
  0O   1py       -0.084098 -0.059158 -0.305741 -0.640584 -0.465527  0.153421
  0O   2pz       -0.482454 -0.267518  0.001646  0.047443 -0.461377 -1.609209
  0O   2px        0.211600  0.117362  0.022358  0.601881 -0.776810  0.705823
  0O   2py       -0.111480 -0.061788  0.034830  0.937695  0.522085 -0.371819
  0O   1dz2      -0.000575 -0.007508 -0.059369  0.016005  0.000063  0.000122
  0O   1dxz      -0.004097 -0.053718  0.071012 -0.014458  0.000412  0.000868
  0O   1dyz      -0.006696 -0.087739 -0.041557  0.007742  0.000557  0.001422
  0O   1dx2y2     0.003390  0.044428  0.006534  0.001753  0.001291 -0.000718
  0O   1dxy       0.001923  0.025210 -0.022480 -0.002164  0.000553 -0.000404
  1H   1s         0.215003  0.956873 -0.859869  0.357293  0.000318  0.373949
  1H   2s         1.149778 -0.946475  0.677011 -0.055083 -0.000050  0.847141
  1H   1pz        0.008084  0.024730 -0.158178 -0.015823 -0.010098 -0.193562
  1H   1px       -0.010643 -0.068498  0.076225  0.067425 -0.016938  0.126778
  1H   1py       -0.008715 -0.080239 -0.026345  0.086499  0.011475  0.017718
  2H   1s        -0.215050 -0.956289 -0.860475  0.357366  0.000289 -0.374012
  2H   2s        -1.149832  0.946067  0.677627 -0.055055 -0.000060 -0.847241
  2H   1pz        0.009159  0.033356  0.159236  0.024988 -0.010076 -0.199912
  2H   1px        0.003080  0.043005 -0.062971  0.049529 -0.016949  0.045798
  2H   1py        0.012699  0.093645  0.047036  0.095933  0.011479 -0.108640
                     12        13        14        15        16        17   
                   0.94043   1.19664   1.32895   1.43634   1.63596   2.05971
                   0.00000   0.00000   0.00000   0.00000   0.00000   0.00000
                  --------  --------  --------  --------  --------  --------
  0O   1s        -0.244738  0.000004 -0.073904  0.000001  0.000003 -0.000004
  0O   2s        -1.567973  0.000032 -0.619991  0.000010  0.000025 -0.000018
  0O   3s         2.882992 -0.000066  1.438350 -0.000023 -0.000060 -0.000015
  0O   1pz        0.005829 -0.000001  0.004420  0.000328  0.084009 -0.637888
  0O   1px        0.075139 -0.000003  0.056701  0.000548 -0.036852  0.279795
  0O   1py        0.117176 -0.000003  0.088466 -0.000375  0.019404 -0.147367
  0O   2pz       -0.028106 -0.000001 -0.045272 -0.253649 -0.813282 -0.185170
  0O   2px       -0.361216  0.000025 -0.578792 -0.427276  0.356762  0.081221
  0O   2py       -0.563432  0.000024 -0.903040  0.286602 -0.187854 -0.042777
  0O   1dz2      -0.049663 -0.140200  0.107305 -0.008085 -0.001361 -0.013984
  0O   1dxz       0.038427 -0.100865  0.010311 -0.067547 -0.009629 -0.099783
  0O   1dyz      -0.019280  0.072761 -0.027104 -0.087847 -0.015728 -0.163058
  0O   1dx2y2    -0.010243  0.038681  0.091967 -0.205770  0.007963  0.082554
  0O   1dxy       0.017972 -0.071619 -0.202455 -0.089437  0.004551  0.046840
  1H   1s        -0.495266  0.000021 -0.645321  0.000026  0.389797  0.195111
  1H   2s        -0.584368  0.000013 -0.152439 -0.000000  0.097468  0.357872
  1H   1pz        0.001817 -0.287979  0.366168  0.320354  0.440405 -0.560147
  1H   1px       -0.153315 -0.485149  0.117559  0.539701  0.168826  0.556183
  1H   1py       -0.226974  0.325374  0.499345 -0.361969  0.641506  0.333537
  2H   1s        -0.495200  0.000017 -0.645393  0.000004 -0.389714 -0.195089
  2H   2s        -0.584250  0.000009 -0.152399 -0.000001 -0.097473 -0.357866
  2H   1pz       -0.024841  0.287973 -0.324057  0.320365  0.385731 -0.607037
  2H   1px       -0.141598  0.485127  0.420279  0.539688 -0.531243 -0.044236
  2H   1py       -0.233120 -0.325388  0.339779 -0.361994 -0.450677 -0.603186
                     18        19        20        21        22        23   
                   2.07650   2.67637   2.77337   2.91062   3.30594   3.54227
                   0.00000   0.00000   0.00000   0.00000   0.00000   0.00000
                  --------  --------  --------  --------  --------  --------
  0O   1s        -0.141108  0.000000  0.000000  0.011788  0.082808  0.000001
  0O   2s        -0.723749  0.000000 -0.000003 -0.049432  0.202096 -0.000000
  0O   3s        -0.635354  0.000013  0.000023  0.739934  1.908776  0.000037
  0O   1pz        0.021794 -0.003453  0.000001 -0.003058 -0.016069 -0.443040
  0O   1px        0.278647 -0.005837 -0.000001 -0.039088 -0.205697  0.194318
  0O   1py        0.434745  0.003911 -0.000004 -0.060989 -0.320922 -0.102365
  0O   2pz        0.007937  0.140407 -0.000004 -0.027015 -0.034129 -1.073498
  0O   2px        0.101463  0.236535 -0.000010 -0.345841 -0.437051  0.470846
  0O   2py        0.158311 -0.158653 -0.000013 -0.539549 -0.681843 -0.248035
  0O   1dz2       0.108352 -0.032748  0.723493 -0.526941  0.650238  0.086106
  0O   1dxz      -0.216499 -0.273688  0.520526  0.046864 -0.798641  0.614208
  0O   1dyz       0.139776 -0.355960 -0.375482  0.061237  0.470055  1.003799
  0O   1dx2y2    -0.076878 -0.833759 -0.199638 -0.378602 -0.086852 -0.508242
  0O   1dxy       0.193279 -0.362392  0.369631  0.823126  0.282511 -0.288294
  1H   1s         0.343354 -0.000016 -0.000009 -0.414255 -1.135007  1.080910
  1H   2s         0.211400 -0.000003 -0.000003 -0.096781 -0.246195  0.294007
  1H   1pz       -0.633922 -0.190806 -0.182514  0.428292  0.557117 -0.575601
  1H   1px        0.522843 -0.321488 -0.307505 -0.019202 -0.543918  0.519370
  1H   1py        0.218534  0.215616  0.206252  0.350385 -0.317924  0.264972
  2H   1s         0.343366  0.000003 -0.000013 -0.414252 -1.134966 -1.080950
  2H   2s         0.211419 -0.000002 -0.000003 -0.096764 -0.246173 -0.294016
  2H   1pz        0.670945 -0.190821  0.182513 -0.402810 -0.602367 -0.615958
  2H   1px       -0.049467 -0.321484  0.307516  0.345322 -0.035340  0.003246
  2H   1py        0.520036  0.215622 -0.206236  0.158395 -0.585794 -0.540280
--------------
SCF ITERATIONS
--------------
               ***  Starting incremental Fock matrix formation  ***

                         ----------------------------
                         !        ITERATION     0   !
                         ----------------------------
   Total Energy        :     -76.246894871537 Eh
   Energy Change       :     -76.246894871537 Eh
   MAX-DP              :       0.088952499042
   RMS-DP              :       0.009517888148
   Actual Damping      :       0.7000
   Actual Level Shift  :       0.2500 Eh
   Int. Num. El.       :     9.99999091 (UP=    4.99999545 DN=    4.99999545)
   Exchange            :    -9.26483734
   Correlation         :    -0.33753343


                         ----------------------------
                         !        ITERATION     1   !
                         ----------------------------
   Total Energy        :     -76.290342232199 Eh
   Energy Change       :      -0.043447360662 Eh
   MAX-DP              :       0.047158767134
   RMS-DP              :       0.005179422940
   Actual Damping      :       0.7000
   Actual Level Shift  :       0.2500 Eh
   Int. Num. El.       :     9.99998993 (UP=    4.99999497 DN=    4.99999497)
   Exchange            :    -9.09077301
   Correlation         :    -0.33323720

                               ***Turning on DIIS***

                         ----------------------------
                         !        ITERATION     2   !
                         ----------------------------
   Total Energy        :     -76.303048023918 Eh
   Energy Change       :      -0.012705791719 Eh
   MAX-DP              :       0.040406922648
   RMS-DP              :       0.005268235438
   Actual Damping      :       0.0000
   Actual Level Shift  :       0.2500 Eh
   Int. Num. El.       :     9.99998957 (UP=    4.99999478 DN=    4.99999478)
   Exchange            :    -9.00446146
   Correlation         :    -0.33109651
   DIIS-Error          :       0.012652984319


                         ----------------------------
                         !        ITERATION     3   !
                         ----------------------------
   Total Energy        :     -76.327752395158 Eh
   Energy Change       :      -0.024704371240 Eh
   MAX-DP              :       0.026361300842
   RMS-DP              :       0.002935631330
   Actual Damping      :       0.0000
   Actual Level Shift  :       0.2500 Eh
   Int. Num. El.       :     9.99998960 (UP=    4.99999480 DN=    4.99999480)
   Exchange            :    -8.94105027
   Correlation         :    -0.32934770
   DIIS-Error          :       0.060528208932
   DIIS coefficients:
      0.77387   0.22613


                         ----------------------------
                         !        ITERATION     4   !
                         ----------------------------
   Total Energy        :     -76.331741177461 Eh
   Energy Change       :      -0.003988782302 Eh
   MAX-DP              :       0.005976336405
   RMS-DP              :       0.000723857232
   Actual Damping      :       0.0000
   Actual Level Shift  :       0.2500 Eh
   Int. Num. El.       :     9.99998983 (UP=    4.99999492 DN=    4.99999492)
   Exchange            :    -8.98915266
   Correlation         :    -0.33054478
   DIIS-Error          :       0.008240634260
   DIIS coefficients:
      0.22606  -0.06935   0.84329

                      *** Initiating the SOSCF procedure ***
                           *** Shutting down DIIS ***
                      *** Re-Reading the Fockian *** 
                      *** Removing any level shift *** 

                         ----------------------------
                         !        ITERATION     5   !
                         ----------------------------
   Total Energy        :     -76.331882422749 Eh
   Energy Change       :      -0.000141245288 Eh
   MAX-DP              :       0.002477560544
   RMS-DP              :       0.000254862138
   Orbital gradient    :       0.001129951009
   Orbital Rotation    :       0.001129951009
   Actual Damping      :       0.0000
   Int. Num. El.       :     9.99998984 (UP=    4.99999492 DN=    4.99999492)
   Exchange            :    -8.99527391
   Correlation         :    -0.33080246

               *** Restarting incremental Fock matrix formation ***

                         ----------------------------
                         !        ITERATION     6   !
                         ----------------------------
   Total Energy        :     -76.331892356382 Eh
   Energy Change       :      -0.000009933634 Eh
   MAX-DP              :       0.002310421233
   RMS-DP              :       0.000199501726
   Orbital gradient    :       0.000505125390
   Orbital Rotation    :       0.001555072815
   Actual Damping      :       0.0000
   Int. Num. El.       :     9.99998982 (UP=    4.99999491 DN=    4.99999491)
   Exchange            :    -8.99628501
   Correlation         :    -0.33086855


                         ----------------------------
                         !        ITERATION     7   !
                         ----------------------------
   Total Energy        :     -76.331893049297 Eh
   Energy Change       :      -0.000000692915 Eh
   MAX-DP              :       0.000546097550
   RMS-DP              :       0.000055282026
   Orbital gradient    :       0.000467988263
   Orbital Rotation    :       0.000261674963
   Actual Damping      :       0.0000
   Int. Num. El.       :     9.99998981 (UP=    4.99999490 DN=    4.99999490)
   Exchange            :    -8.99739680
   Correlation         :    -0.33091600


                         ----------------------------
                         !        ITERATION     8   !
                         ----------------------------
   Total Energy        :     -76.331893662518 Eh
   Energy Change       :      -0.000000613221 Eh
   MAX-DP              :       0.000363376445
   RMS-DP              :       0.000043937654
   Orbital gradient    :       0.000189684807
   Orbital Rotation    :       0.000325143020
   Actual Damping      :       0.0000
   Int. Num. El.       :     9.99998980 (UP=    4.99999490 DN=    4.99999490)
   Exchange            :    -8.99638870
   Correlation         :    -0.33089672


                         ----------------------------
                         !        ITERATION     9   !
                         ----------------------------
   Total Energy        :     -76.331893793656 Eh
   Energy Change       :      -0.000000131138 Eh
   MAX-DP              :       0.000089662444
   RMS-DP              :       0.000009343230
   Orbital gradient    :       0.000026530768
   Orbital Rotation    :       0.000076317404
   Actual Damping      :       0.0000
   Int. Num. El.       :     9.99998981 (UP=    4.99999490 DN=    4.99999490)
   Exchange            :    -8.99664672
   Correlation         :    -0.33089579


                         ----------------------------
                         !        ITERATION    10   !
                         ----------------------------
   Total Energy        :     -76.331893798513 Eh
   Energy Change       :      -0.000000004856 Eh
   MAX-DP              :       0.000005519313
   RMS-DP              :       0.000000576028
   Orbital gradient    :       0.000004265840
   Orbital Rotation    :       0.000003025506
   Actual Damping      :       0.0000
   Int. Num. El.       :     9.99998981 (UP=    4.99999490 DN=    4.99999490)
   Exchange            :    -8.99664666
   Correlation         :    -0.33089717

                 **** Energy Check signals convergence ****
              ***Rediagonalizing the Fockian in SOSCF/NRSCF***

               *****************************************************
               *                     SUCCESS                       *
               *           SCF CONVERGED AFTER  11 CYCLES          *
               *****************************************************

Setting up the final grid:

General Integration Accuracy     IntAcc      ...  5.010
Radial Grid Type                 RadialGrid  ... Gauss-Chebyshev
Angular Grid (max. acc.)         AngularGrid ... Lebedev-434
Angular grid pruning method      GridPruning ... 3 (G Style)
Weight generation scheme         WeightScheme... Becke
Basis function cutoff            BFCut       ...    1.0000e-11
Integration weight cutoff        WCut        ...    1.0000e-14
Grids for H and He will be reduced by one unit

# of grid points (after initial pruning)     ...  24226 (   0.0 sec)
# of grid points (after weights+screening)   ...  24050 (   0.0 sec)
nearest neighbour list constructed           ...    0.0 sec
Grid point re-assignment to atoms done       ...    0.0 sec
Grid point division into batches done        ...    0.2 sec
Reduced shell lists constructed in    0.2 sec

Total number of grid points                  ...    24050
Total number of batches                      ...      377
Average number of points per batch           ...       63
Average number of grid points per atom       ...     8017
Average number of shells per batch           ...     9.67 (80.61%)
Average number of basis functions per batch  ...    19.19 (79.96%)
Average number of large shells per batch     ...     9.04 (93.47%)
Average number of large basis fcns per batch ...    17.73 (92.38%)
Maximum spatial batch extension              ...  16.27, 16.27, 13.72 au
Average spatial batch extension              ...   1.63,  1.64,  1.55 au

Final grid set up in    0.2 sec
Final integration                            ... done (   0.0 sec)
Change in XC energy                          ...    -0.000010770
Integrated number of electrons               ...    10.000000671
Previous integrated no of electrons          ...     9.999989806

----------------
TOTAL SCF ENERGY
----------------

Total Energy       :          -76.33190457 Eh           -2077.09672 eV

Components:
Nuclear Repulsion  :            9.15717768 Eh             249.17947 eV
Electronic Energy  :          -85.48908225 Eh           -2326.27619 eV
One Electron Energy:         -123.02097171 Eh           -3347.57083 eV
Two Electron Energy:           37.53188946 Eh            1021.29463 eV

Virial components:
Potential Energy   :         -152.14244516 Eh           -4140.00641 eV
Kinetic Energy     :           75.81054059 Eh            2062.90969 eV
Virial Ratio       :            2.00687720


DFT components:
N(Alpha)           :        5.000000335383 electrons
N(Beta)            :        5.000000335383 electrons
N(Total)           :       10.000000670765 electrons
E(X)               :       -8.996654903352 Eh       
E(C)               :       -0.330896272351 Eh       
E(XC)              :       -9.327551175704 Eh       
DFET-embed. en.    :        0.000000000000 Eh       

---------------
SCF CONVERGENCE
---------------

  Last Energy change         ...   -8.2588e-10  Tolerance :   1.0000e-08
  Last MAX-Density change    ...    9.4900e-07  Tolerance :   1.0000e-07
  Last RMS-Density change    ...    1.2887e-07  Tolerance :   5.0000e-09
  Last Orbital Gradient      ...    8.1828e-07  Tolerance :   1.0000e-05
  Last Orbital Rotation      ...    1.0086e-06  Tolerance :   1.0000e-05

             **** THE GBW FILE WAS UPDATED (H2O.gbw) ****
             **** DENSITY FILE WAS UPDATED (H2O.scfp) ****
             **** ENERGY FILE WAS UPDATED (H2O.en.tmp) ****
             **** THE GBW FILE WAS UPDATED (H2O.gbw) ****
             **** DENSITY FILE WAS UPDATED (H2O.scfp) ****
----------------
ORBITAL ENERGIES
----------------

  NO   OCC          E(Eh)            E(eV) 
   0   2.0000     -18.745713      -510.0968 
   1   2.0000      -0.887889       -24.1607 
   2   2.0000      -0.467615       -12.7245 
   3   2.0000      -0.294867        -8.0237 
   4   2.0000      -0.226042        -6.1509 
   5   0.0000       0.029820         0.8115 
   6   0.0000       0.106028         2.8852 
   7   0.0000       0.533572        14.5192 
   8   0.0000       0.554569        15.0906 
   9   0.0000       0.871383        23.7115 
  10   0.0000       0.879344        23.9282 
  11   0.0000       0.962861        26.2008 
  12   0.0000       1.037930        28.2435 
  13   0.0000       1.273000        34.6401 
  14   0.0000       1.416514        38.5453 
  15   0.0000       1.517429        41.2913 
  16   0.0000       1.694837        46.1189 
  17   0.0000       2.159388        58.7599 
  18   0.0000       2.183258        59.4095 
  19   0.0000       2.842135        77.3384 
  20   0.0000       2.935539        79.8801 
  21   0.0000       3.063536        83.3630 
  22   0.0000       3.454511        94.0020 
  23   0.0000       3.693847       100.5147 
------------------
MOLECULAR ORBITALS
------------------
                      0         1         2         3         4         5   
                 -18.74571  -0.88789  -0.46762  -0.29487  -0.22604   0.02982
                   2.00000   2.00000   2.00000   2.00000   2.00000   0.00000
                  --------  --------  --------  --------  --------  --------
  0O   1s         0.988753  0.276189 -0.000001  0.109827  0.000001 -0.108362
  0O   2s        -0.039930  0.550459 -0.000005  0.217171  0.000001 -0.186254
  0O   3s         0.014121  0.256229  0.000008  0.362528  0.000007 -0.962564
  0O   1pz        0.000127 -0.005192 -0.449211  0.023216 -0.280767  0.010487
  0O   1px        0.001624 -0.066439  0.197030  0.297049 -0.473008  0.134467
  0O   1py        0.002534 -0.103655 -0.103787  0.463430  0.317255  0.209759
  0O   2pz        0.000001 -0.000186 -0.166713  0.014997 -0.217807  0.013700
  0O   2px        0.000017 -0.002385  0.073119  0.191880 -0.366947  0.175934
  0O   2py        0.000026 -0.003719 -0.038525  0.299346  0.246109  0.274445
  0O   1dz2      -0.000817  0.002117  0.001311  0.009187  0.000621  0.002954
  0O   1dxz       0.001053 -0.004106  0.009350 -0.000795  0.005191  0.001282
  0O   1dyz      -0.000627  0.002639  0.015281 -0.001083  0.006753 -0.001480
  0O   1dx2y2     0.000146 -0.001408 -0.007737  0.006617  0.015816  0.003276
  0O   1dxy      -0.000441  0.003557 -0.004388 -0.014390  0.006875 -0.007321
  1H   1s         0.002706  0.206506 -0.338037 -0.192047 -0.000010  0.139992
  1H   2s        -0.002428  0.013711 -0.101548 -0.067765  0.000003  0.815494
  1H   1pz       -0.002416 -0.028733  0.013320  0.021669 -0.013943  0.006279
  1H   1px        0.002179  0.020074 -0.020332 -0.000268 -0.023493 -0.002352
  1H   1py        0.001111  0.004501 -0.018526  0.018778  0.015756  0.002046
  2H   1s         0.002706  0.206507  0.338029 -0.192049 -0.000005  0.140002
  2H   2s        -0.002428  0.013713  0.101546 -0.067762  0.000003  0.815236
  2H   1pz        0.002585  0.029862  0.015507 -0.020273 -0.013945 -0.006215
  2H   1px       -0.000014 -0.005626  0.007689  0.018128 -0.023491  0.003122
  2H   1py        0.002266  0.018040  0.025188  0.009087  0.015756 -0.000847
                      6         7         8         9        10        11   
                   0.10603   0.53357   0.55457   0.87138   0.87934   0.96286
                   0.00000   0.00000   0.00000   0.00000   0.00000   0.00000
                  --------  --------  --------  --------  --------  --------
  0O   1s        -0.000013 -0.000056  0.100250  0.113646  0.000076  0.000025
  0O   2s        -0.000029 -0.000194  0.351228  0.454855  0.000305  0.000147
  0O   3s        -0.000073  0.000152 -0.338514  0.101761  0.000069 -0.000234
  0O   1pz        0.343382 -0.293131 -0.014312  0.034604 -0.427243 -0.670210
  0O   1px       -0.150597  0.128657 -0.181361  0.439217 -0.719509  0.293994
  0O   1py        0.079359 -0.067585 -0.283104  0.684188  0.483224 -0.154832
  0O   2pz        0.540328 -0.303179 -0.002107 -0.049627  0.449492  1.590580
  0O   2px       -0.236977  0.133018 -0.024706 -0.630684  0.756841 -0.697659
  0O   2py        0.124862 -0.070001 -0.038671 -0.982891 -0.508551  0.367506
  0O   1dz2      -0.000424 -0.006800 -0.056907 -0.010086  0.000079 -0.000755
  0O   1dxz      -0.003032 -0.048748  0.066185  0.007802  0.000719 -0.005386
  0O   1dyz      -0.004954 -0.079592 -0.038469 -0.003916  0.000925 -0.008805
  0O   1dx2y2     0.002509  0.040306  0.004871 -0.002086  0.002173  0.004455
  0O   1dxy       0.001422  0.022874 -0.018264  0.003658  0.000953  0.002524
  1H   1s        -0.116836  0.955719 -0.873181 -0.376114 -0.000276 -0.391381
  1H   2s        -1.256797 -0.854631  0.639015 -0.049007 -0.000031 -0.798287
  1H   1pz       -0.003079  0.036914 -0.172414  0.031901  0.010450  0.215762
  1H   1px        0.006017 -0.084103  0.087433 -0.095183  0.017508 -0.141483
  1H   1py        0.006247 -0.092724 -0.022233 -0.113661 -0.011871 -0.019997
  2H   1s         0.116894 -0.954791 -0.874169 -0.376174 -0.000251  0.391433
  2H   2s         1.256915  0.854003  0.639922 -0.049046 -0.000017  0.798382
  2H   1pz       -0.003790  0.047011  0.174250 -0.044193  0.010411  0.222861
  2H   1px       -0.003005  0.047267 -0.064560 -0.061808  0.017526 -0.050895
  2H   1py       -0.007836  0.112085  0.057954 -0.131246 -0.011879  0.121349
                     12        13        14        15        16        17   
                   1.03793   1.27300   1.41651   1.51743   1.69484   2.15939
                   0.00000   0.00000   0.00000   0.00000   0.00000   0.00000
                  --------  --------  --------  --------  --------  --------
  0O   1s        -0.262659 -0.000005 -0.081538 -0.000001  0.000004  0.000002
  0O   2s        -1.622558 -0.000036 -0.660832 -0.000012  0.000036  0.000011
  0O   3s         2.849463  0.000072  1.499824  0.000027 -0.000080  0.000003
  0O   1pz        0.002138  0.000001  0.004491  0.001396  0.090065  0.674470
  0O   1px        0.027907  0.000003  0.057582  0.002359 -0.039509 -0.295837
  0O   1py        0.043486  0.000003  0.089847 -0.001573  0.020801  0.155824
  0O   2pz       -0.022049  0.000002 -0.046535  0.260806 -0.834145  0.195185
  0O   2px       -0.283743 -0.000026 -0.594759  0.439322  0.365925 -0.085612
  0O   2py       -0.442560 -0.000024 -0.927966 -0.294687 -0.192661  0.045094
  0O   1dz2      -0.041419  0.120913  0.092931  0.006887 -0.001282  0.012134
  0O   1dxz       0.029713  0.086989  0.009141  0.057533 -0.009064  0.086575
  0O   1dyz      -0.014359 -0.062751 -0.023631  0.074822 -0.014805  0.141482
  0O   1dx2y2    -0.010288 -0.033360  0.079806  0.175261  0.007495 -0.071630
  0O   1dxy       0.019079  0.061767 -0.175706  0.076176  0.004285 -0.040638
  1H   1s        -0.462403 -0.000023 -0.656901 -0.000030  0.400354 -0.238493
  1H   2s        -0.554315 -0.000015 -0.162821 -0.000002  0.102970 -0.339850
  1H   1pz       -0.002006  0.292730  0.374124 -0.326954  0.438524  0.568075
  1H   1px       -0.153772  0.493153  0.117978 -0.550821  0.169603 -0.563823
  1H   1py       -0.231034 -0.330745  0.507007  0.369426  0.641006 -0.337910
  2H   1s        -0.462321 -0.000017 -0.656985 -0.000004 -0.400248  0.238480
  2H   2s        -0.554219 -0.000010 -0.162791  0.000002 -0.102974  0.339851
  2H   1pz       -0.021338 -0.292724 -0.331406 -0.326968  0.383865  0.615612
  2H   1px       -0.145263 -0.493132  0.427401 -0.550805 -0.530394  0.044642
  2H   1py       -0.235486  0.330756  0.343892  0.369454 -0.451055  0.611381
                     18        19        20        21        22        23   
                   2.18326   2.84214   2.93554   3.06354   3.45451   3.69385
                   0.00000   0.00000   0.00000   0.00000   0.00000   0.00000
                  --------  --------  --------  --------  --------  --------
  0O   1s        -0.148523 -0.000000  0.000000 -0.010777  0.079881  0.000001
  0O   2s        -0.740176 -0.000001 -0.000003  0.049842  0.191344  0.000001
  0O   3s        -0.713973 -0.000010  0.000033 -0.698913  1.854081  0.000042
  0O   1pz        0.022976  0.006175  0.000002  0.002544 -0.015743 -0.434194
  0O   1px        0.293879  0.010422 -0.000002  0.032525 -0.201531  0.190438
  0O   1py        0.458502 -0.006987 -0.000005  0.050749 -0.314422 -0.100321
  0O   2pz        0.009808 -0.131824 -0.000003  0.025757 -0.033111 -1.049404
  0O   2px        0.125464 -0.222074 -0.000012  0.329759 -0.424059  0.460276
  0O   2py        0.195753  0.148951 -0.000019  0.514460 -0.661572 -0.242472
  0O   1dz2       0.097594  0.033020  0.726963  0.527306  0.654735  0.086443
  0O   1dxz      -0.192724  0.275944  0.523020 -0.041805 -0.805876  0.616593
  0O   1dyz       0.124217  0.358887 -0.377285 -0.065025  0.474562  1.007700
  0O   1dx2y2    -0.067539  0.840618 -0.200603  0.382664 -0.088726 -0.510218
  0O   1dxy       0.170096  0.365378  0.371410 -0.832599  0.287455 -0.289412
  1H   1s         0.412271  0.000015 -0.000016  0.393131 -1.112474  1.066946
  1H   2s         0.210769  0.000002 -0.000005  0.090003 -0.233415  0.278953
  1H   1pz       -0.658649  0.179070 -0.174789 -0.405770  0.534745 -0.560619
  1H   1px        0.536586  0.301714 -0.294501  0.014101 -0.524335  0.504756
  1H   1py        0.217141 -0.202353  0.197529 -0.338057 -0.308527  0.256442
  2H   1s         0.412277 -0.000005 -0.000018  0.393125 -1.112428 -1.066996
  2H   2s         0.210778  0.000001 -0.000004  0.089988 -0.233394 -0.278962
  2H   1pz        0.696095  0.179085  0.174788  0.381010 -0.578517 -0.599765
  2H   1px       -0.057610  0.301714  0.294508 -0.330979 -0.036031  0.004186
  2H   1py        0.530152 -0.202362 -0.197511 -0.156309 -0.565716 -0.524548


-------
DENSITY
-------
                  0          1          2          3          4          5    
      0       2.131949   0.272803   0.249092   0.002483   0.031760   0.049550
      1       0.272803   0.703525   0.438420   0.004361   0.055744   0.086970
      2       0.249092   0.438420   0.394558   0.014164   0.181373   0.282968
      3       0.002483   0.004361   0.014164   0.562373   0.103077  -0.062310
      4       0.031760   0.055744   0.181373   0.103077   0.710424  -0.051922
      5       0.049550   0.086970   0.282968  -0.062310  -0.051922   0.673882
      6       0.003194   0.006310   0.010773   0.272783   0.149288  -0.089657
      7       0.040862   0.080713   0.137898   0.149296   0.490264  -0.069669
      8       0.063751   0.125923   0.215140  -0.089649  -0.069669   0.442379
      9       0.001571   0.006386   0.007723  -0.001122   0.005103   0.008194
     10      -0.000361  -0.004950  -0.002651  -0.011309  -0.001149   0.001472
     11      -0.000019   0.002485   0.000550  -0.017598  -0.001363  -0.000442
     12       0.000964   0.001312   0.004080  -0.001608  -0.013892   0.018067
     13      -0.002067  -0.002298  -0.008623  -0.000623  -0.017256  -0.008804
     14       0.077237   0.143719  -0.033348   0.292644  -0.274723  -0.150637
     15      -0.012113  -0.014144  -0.042178   0.087941  -0.082108  -0.044583
     16      -0.015889  -0.022028   0.000919  -0.002834   0.035123   0.014417
     17       0.015338   0.021809   0.010154   0.031238   0.011393  -0.015085
     18       0.008808   0.013022   0.015953   0.008622  -0.011645   0.030320
     19       0.077236   0.143713  -0.033338  -0.314751  -0.008318  -0.290969
     20      -0.012112  -0.014142  -0.042171  -0.094523  -0.002075  -0.086737
     21       0.017153   0.023863   0.000677  -0.007352   0.003299  -0.037035
     22       0.000846   0.001681   0.010260   0.007183   0.036770   0.001467
     23       0.016442   0.023626   0.015898  -0.031242  -0.001972   0.009463
                  6          7          8          9         10         11    
      0       0.003194   0.040862   0.063751   0.001571  -0.000361  -0.000019
      1       0.006310   0.080713   0.125923   0.006386  -0.004950   0.002485
      2       0.010773   0.137898   0.215140   0.007723  -0.002651   0.000550
      3       0.272783   0.149296  -0.089649  -0.001122  -0.011309  -0.017598
      4       0.149288   0.490264  -0.069669   0.005103  -0.001149  -0.001363
      5      -0.089657  -0.069669   0.442379   0.008194   0.001472  -0.000442
      6       0.150916   0.141224  -0.085383  -0.000433  -0.005401  -0.008070
      7       0.141224   0.353641  -0.071357   0.003251  -0.002728  -0.003149
      8      -0.085383  -0.071357   0.303352   0.005689   0.001389   0.001478
      9      -0.000433   0.003251   0.005689   0.000183  -0.000003   0.000041
     10      -0.005401  -0.002728   0.001389  -0.000003   0.000266   0.000335
     11      -0.008070  -0.003149   0.001478   0.000041   0.000335   0.000575
     12      -0.004111  -0.010192   0.012353   0.000115   0.000021  -0.000045
     13      -0.001964  -0.011226  -0.004920  -0.000252  -0.000018   0.000009
     14       0.106878  -0.124111  -0.090472  -0.003545  -0.007706  -0.008828
     15       0.031819  -0.040924  -0.032847  -0.001449  -0.001909  -0.002881
     16       0.002293   0.020633   0.005297   0.000298   0.000301   0.000023
     17       0.016997   0.014070  -0.010307  -0.000006  -0.000784  -0.000835
     18      -0.000125  -0.007088   0.020392   0.000333  -0.000247  -0.000372
     19      -0.118543  -0.025249  -0.142562  -0.001772   0.004937   0.011833
     20      -0.035897  -0.011222  -0.048493  -0.000917   0.001889   0.003326
     21       0.000285   0.004580  -0.020418  -0.000227  -0.000062   0.000484
     22       0.008215   0.025348  -0.001261   0.000300  -0.000083  -0.000151
     23      -0.014996  -0.004479   0.011121   0.000325   0.000477   0.001055
                 12         13         14         15         16         17    
      0       0.000964  -0.002067   0.077237  -0.012113  -0.015889   0.015338
      1       0.001312  -0.002298   0.143719  -0.014144  -0.022028   0.021809
      2       0.004080  -0.008623  -0.033348  -0.042178   0.000919   0.010154
      3      -0.001608  -0.000623   0.292644   0.087941  -0.002834   0.031238
      4      -0.013892  -0.017256  -0.274723  -0.082108   0.035123   0.011393
      5       0.018067  -0.008804  -0.150637  -0.044583   0.014417  -0.015085
      6      -0.004111  -0.001964   0.106878   0.031819   0.002293   0.016997
      7      -0.010192  -0.011226  -0.124111  -0.040924   0.020633   0.014070
      8       0.012353  -0.004920  -0.090472  -0.032847   0.005297  -0.010307
      9       0.000115  -0.000252  -0.003545  -0.001449   0.000298  -0.000006
     10       0.000021  -0.000018  -0.007706  -0.001909   0.000301  -0.000784
     11      -0.000045   0.000009  -0.008828  -0.002881   0.000023  -0.000835
     12       0.000712   0.000085   0.002108   0.000635  -0.000280  -0.000488
     13       0.000085   0.000573   0.009961   0.002941  -0.001135   0.000004
     14       0.002108   0.009961   0.387606   0.100332  -0.029208   0.022151
     15       0.000635   0.002941   0.100332   0.030196  -0.006418   0.004705
     16      -0.000280  -0.001135  -0.029208  -0.006418   0.003346  -0.001062
     17      -0.000488   0.000004   0.022151   0.004705  -0.001062   0.002746
     18       0.001021  -0.000130   0.007177   0.001336  -0.000383   0.000188
     19      -0.008353   0.004027  -0.069463  -0.036974  -0.011198  -0.005340
     20      -0.002507   0.001159  -0.036975  -0.011052  -0.001008  -0.003553
     21      -0.001033   0.000466   0.009651   0.000405  -0.001805   0.001246
     22      -0.000606  -0.000952  -0.014484  -0.004173   0.001969   0.000555
     23       0.000179  -0.000140  -0.013056  -0.005863  -0.000422  -0.001035
                 18         19         20         21         22         23    
      0       0.008808   0.077236  -0.012112   0.017153   0.000846   0.016442
      1       0.013022   0.143713  -0.014142   0.023863   0.001681   0.023626
      2       0.015953  -0.033338  -0.042171   0.000677   0.010260   0.015898
      3       0.008622  -0.314751  -0.094523  -0.007352   0.007183  -0.031242
      4      -0.011645  -0.008318  -0.002075   0.003299   0.036770  -0.001972
      5       0.030320  -0.290969  -0.086737  -0.037035   0.001467   0.009463
      6      -0.000125  -0.118543  -0.035897   0.000285   0.008215  -0.014996
      7      -0.007088  -0.025249  -0.011222   0.004580   0.025348  -0.004479
      8       0.020392  -0.142562  -0.048493  -0.020418  -0.001261   0.011121
      9       0.000333  -0.001772  -0.000917  -0.000227   0.000300   0.000325
     10      -0.000247   0.004937   0.001889  -0.000062  -0.000083   0.000477
     11      -0.000372   0.011833   0.003326   0.000484  -0.000151   0.001055
     12       0.001021  -0.008353  -0.002507  -0.001033  -0.000606   0.000179
     13      -0.000130   0.004027   0.001159   0.000466  -0.000952  -0.000140
     14       0.007177  -0.069463  -0.036975   0.009651  -0.014484  -0.013056
     15       0.001336  -0.036974  -0.011052   0.000405  -0.004173  -0.005863
     16      -0.000383  -0.011198  -0.001008  -0.001805   0.001969  -0.000422
     17       0.000188  -0.005340  -0.003553   0.001246   0.000555  -0.001035
     18       0.001931  -0.017873  -0.006189  -0.001501  -0.000395   0.000072
     19      -0.017873   0.387598   0.100329   0.030618  -0.004088   0.021001
     20      -0.006189   0.100329   0.030195   0.006703  -0.001049   0.004368
     21      -0.001501   0.030618   0.006703   0.003489  -0.000177   0.001062
     22      -0.000395  -0.004088  -0.001049  -0.000177   0.001942  -0.000227
     23       0.000072   0.021001   0.004368   0.001062  -0.000227   0.002592



                    ********************************
                    * MULLIKEN POPULATION ANALYSIS *
                    ********************************

-----------------------
MULLIKEN ATOMIC CHARGES
-----------------------
   0 O :   -0.279858
   1 H :    0.139926
   2 H :    0.139931
Sum of atomic charges:    0.0000000

------------------------
MULLIKEN ORBITAL CHARGES
------------------------
The uncorrected charge=density diagonal is given in parenthesis)
   0:   0O   1s           1.988648 (  2.131949)
   1:   0O   2s           1.067820 (  0.703525)
   2:   0O   3s           0.616084 (  0.394558)
   3:   0O   1pz          0.857513 (  0.562373)
   4:   0O   1px          1.027233 (  0.710424)
   5:   0O   1py          0.987531 (  0.673882)
   6:   0O   2pz          0.417745 (  0.150916)
   7:   0O   2px          0.675325 (  0.353641)
   8:   0O   2py          0.632497 (  0.303352)
   9:   0O   1dz2         0.000008 (  0.000183)
  10:   0O   1dxz         0.001772 (  0.000266)
  11:   0O   1dyz         0.003978 (  0.000575)
  12:   0O   1dx2y2       0.001966 (  0.000712)
  13:   0O   1dxy         0.001738 (  0.000573)
  14:   1H   1s           0.702729 (  0.387606)
  15:   1H   2s           0.084620 (  0.030196)
  16:   1H   1pz          0.027392 (  0.003346)
  17:   1H   1px          0.026024 (  0.002746)
  18:   1H   1py          0.019308 (  0.001931)
  19:   2H   1s           0.702723 (  0.387598)
  20:   2H   2s           0.084621 (  0.030195)
  21:   2H   1pz          0.028617 (  0.003489)
  22:   2H   1px          0.019151 (  0.001942)
  23:   2H   1py          0.024957 (  0.002592)
Sum of orbital charges :   10.0000000

--------------------------------
MULLIKEN REDUCED ORBITAL CHARGES
--------------------------------
  0 O s       :     3.672552  s :     3.672552
      pz      :     1.275258  p :     4.597844
      px      :     1.702558
      py      :     1.620028
      dz2     :     0.000008  d :     0.009462
      dxz     :     0.001772
      dyz     :     0.003978
      dx2y2   :     0.001966
      dxy     :     0.001738
  1 H s       :     0.787349  s :     0.787349
      pz      :     0.027392  p :     0.072725
      px      :     0.026024
      py      :     0.019308
  2 H s       :     0.787343  s :     0.787343
      pz      :     0.028617  p :     0.072725
      px      :     0.019151
      py      :     0.024957

------------------------
MULLIKEN OVERLAP CHARGES
------------------------
B(  0-O ,  1-H ) :   0.6569 B(  0-O ,  2-H ) :   0.6569 B(  1-H ,  2-H ) :  -0.0632 


-----------------------------------
MULLIKEN ORBITAL POPULATIONS PER MO
-----------------------------------
THRESHOLD FOR PRINTING IS 0.1%
                      0         1         2         3         4         5   
                 -18.74571  -0.88789  -0.46762  -0.29487  -0.22604   0.02982
                   2.00000   2.00000   2.00000   2.00000   2.00000   0.00000
                  --------  --------  --------  --------  --------  --------
  0O   1s             98.8       0.5       0.0       0.1       0.0       0.1
  0O   2s              1.5      45.9       0.0       6.0       0.0       3.4
  0O   3s             -0.2      23.0      -0.0       8.0       0.0     -16.5
  0O   1pz             0.0       0.0      31.7       0.1      11.1       0.0
  0O   1px             0.0       0.8       6.1      13.0      31.5       2.0
  0O   1py             0.0       1.8       1.7      31.7      14.2       4.8
  0O   2pz             0.0       0.0      12.8       0.1       8.0      -0.0
  0O   2px             0.0       0.0       2.5       8.5      22.8      -0.1
  0O   2py             0.0       0.1       0.7      20.6      10.3      -0.3
  0O   1dyz            0.0       0.0       0.2       0.0       0.0      -0.0
  1H   1s             -0.0      11.7      18.7       4.8       0.0       3.4
  1H   2s              0.0       0.8       2.8       0.6       0.0      49.7
  1H   1pz            -0.0       0.9       0.1       0.3       0.2       0.2
  1H   1px            -0.0       0.5       0.3      -0.0       0.6       0.1
  1H   1py            -0.0       0.0       0.3       0.4       0.3      -0.0
  2H   1s             -0.0      11.7      18.7       4.8       0.0       3.4
  2H   2s              0.0       0.8       2.8       0.6       0.0      49.7
  2H   1pz            -0.0       0.9       0.1       0.2       0.2       0.2
  2H   1px            -0.0       0.0       0.1       0.3       0.6       0.0
  2H   1py            -0.0       0.4       0.5       0.1       0.3       0.0

                      6         7         8         9        10        11   
                   0.10603   0.53357   0.55457   0.87138   0.87934   0.96286
                   0.00000   0.00000   0.00000   0.00000   0.00000   0.00000
                  --------  --------  --------  --------  --------  --------
  0O   2s              0.0       0.0       4.4       4.9       0.0       0.0
  0O   3s             -0.0      -0.0      -0.9      -0.9      -0.0       0.0
  0O   1pz            13.0       7.7       0.0       0.1       8.4      19.0
  0O   1px             2.5       1.5       2.5       9.0      24.0       3.7
  0O   1py             0.7       0.4       6.2      21.8      10.8       1.0
  0O   2pz            -5.9       3.6      -0.0       0.1      10.9      67.1
  0O   2px            -1.1       0.7      -0.1      17.2      30.9      12.9
  0O   2py            -0.3       0.2      -0.1      41.8      14.0       3.6
  0O   1dz2           -0.0       0.0       1.1       0.1      -0.0      -0.0
  0O   1dxz           -0.0       0.9       1.3       0.1      -0.0      -0.1
  0O   1dyz           -0.0       2.4       0.4       0.0      -0.0      -0.2
  0O   1dx2y2         -0.0       0.6       0.0       0.0      -0.0      -0.0
  0O   1dxy           -0.0       0.2       0.1      -0.0      -0.0      -0.0
  1H   1s              2.4      28.3      28.1      -0.5      -0.0      -3.8
  1H   2s             42.9       8.9       7.6      -0.0      -0.0      -4.4
  1H   1pz             0.1       0.1       5.4      -0.4       0.1       4.7
  1H   1px             0.1       1.5       1.3       0.9       0.3       0.3
  1H   1py             0.1       2.1       0.1       2.8       0.1      -0.3
  2H   1s              2.4      28.3      28.2      -0.5      -0.0      -3.8
  2H   2s             42.9       8.9       7.6      -0.0      -0.0      -4.4
  2H   1pz             0.1       0.3       5.4      -0.5       0.1       4.6
  2H   1px             0.0       0.6       0.8       1.2       0.3       0.8
  2H   1py             0.2       2.8       0.5       2.6       0.1      -0.7

                     12        13        14        15        16        17   
                   1.03793   1.27300   1.41651   1.51743   1.69484   2.15939
                   0.00000   0.00000   0.00000   0.00000   0.00000   0.00000
                  --------  --------  --------  --------  --------  --------
  0O   1s              0.3       0.0       0.0       0.0       0.0       0.0
  0O   2s             27.1       0.0       2.2       0.0       0.0       0.0
  0O   3s             75.2       0.0      11.6       0.0       0.0      -0.0
  0O   1pz             0.0       0.0      -0.0       0.0       0.0       7.8
  0O   1px             0.0       0.0      -0.0       0.0       0.0       1.5
  0O   1py             0.1       0.0      -0.1       0.0       0.0       0.4
  0O   2pz             0.0       0.0       0.0       0.6       5.6      -1.4
  0O   2px             0.4       0.0       3.9       1.8       1.1      -0.3
  0O   2py             0.9       0.0       9.4       0.8       0.3      -0.1
  0O   1dz2            0.9       4.3       2.4       0.0       0.0       0.0
  0O   1dxz            0.6       2.2      -0.0       0.7       0.0       2.3
  0O   1dyz            0.2       1.1       0.1       1.3       0.0       6.1
  0O   1dx2y2          0.0       0.3       1.6       6.9       0.0       1.6
  0O   1dxy            0.1       1.1       7.6       1.3       0.0       0.5
  1H   1s             -2.6      -0.0       0.4       0.0       0.4       0.4
  1H   2s             -7.2      -0.0      -1.0      -0.0      -0.2       0.1
  1H   1pz             0.0       8.9       7.5       8.5      15.9      17.4
  1H   1px             1.1      25.2       2.0      24.0       1.5      16.9
  1H   1py             5.8      11.4      21.9      10.8      28.9       6.0
  2H   1s             -2.6      -0.0       0.4      -0.0       0.4       0.4
  2H   2s             -7.2      -0.0      -1.0       0.0      -0.2       0.1
  2H   1pz            -0.3       8.9       5.3       8.5      12.5      20.4
  2H   1px             3.0      25.2      14.1      24.0      20.6       0.1
  2H   1py             4.3      11.4      12.0      10.8      13.2      19.8

                     18        19        20        21        22        23   
                   2.18326   2.84214   2.93554   3.06354   3.45451   3.69385
                   0.00000   0.00000   0.00000   0.00000   0.00000   0.00000
                  --------  --------  --------  --------  --------  --------
  0O   2s              4.3       0.0      -0.0      -0.0       0.3      -0.0
  0O   3s             -0.8       0.0       0.0       0.6       0.9       0.0
  0O   1pz             0.0       0.0       0.0      -0.0       0.0       1.2
  0O   1px             1.4       0.0       0.0      -0.0       0.4       0.2
  0O   1py             3.4       0.0       0.0      -0.0       1.0       0.1
  0O   2pz            -0.0      -0.0       0.0      -0.0      -0.0      -1.5
  0O   2px            -0.4      -0.0       0.0      -0.0      -0.2      -0.3
  0O   2py            -0.9      -0.0      -0.0      -0.1      -0.6      -0.1
  0O   1dz2            2.3       0.1      42.8      21.4      24.2       0.4
  0O   1dxz            7.7       6.5      22.2       0.2      36.8      18.6
  0O   1dyz            3.1      11.0      11.5       0.3      12.8      49.6
  0O   1dx2y2          0.7      60.6       3.3      11.2       0.5      12.7
  0O   1dxy            4.9      11.5      11.2      52.8       4.7       4.1
  1H   1s              0.9       0.0       0.0       0.3       3.6       3.7
  1H   2s             -0.0      -0.0      -0.0      -0.1      -0.3      -0.1
  1H   1pz            20.2       1.0       0.9       3.7       2.6       1.9
  1H   1px            13.7       2.9       2.5      -0.0       2.8       1.6
  1H   1py             2.4       1.3       1.1       3.0       1.1       0.5
  2H   1s              0.9       0.0       0.0       0.3       3.6       3.7
  2H   2s             -0.0      -0.0      -0.0      -0.1      -0.3      -0.1
  2H   1pz            22.6       1.0       0.9       3.2       3.1       2.2
  2H   1px             0.1       2.9       2.5       2.7       0.0      -0.0
  2H   1py            13.6       1.3       1.1       0.7       3.3       1.8



                     *******************************
                     * LOEWDIN POPULATION ANALYSIS *
                     *******************************

----------------------
LOEWDIN ATOMIC CHARGES
----------------------
   0 O :   -0.132302
   1 H :    0.066151
   2 H :    0.066151

-----------------------
LOEWDIN ORBITAL CHARGES
-----------------------
   0:   0O   1s           1.972256
   1:   0O   2s           0.850292
   2:   0O   3s           0.597307
   3:   0O   1pz          0.781588
   4:   0O   1px          0.977660
   5:   0O   1py          0.940678
   6:   0O   2pz          0.562168
   7:   0O   2px          0.720431
   8:   0O   2py          0.710741
   9:   0O   1dz2         0.000480
  10:   0O   1dxz         0.004810
  11:   0O   1dyz         0.009252
  12:   0O   1dx2y2       0.002640
  13:   0O   1dxy         0.001999
  14:   1H   1s           0.576595
  15:   1H   2s           0.177479
  16:   1H   1pz          0.059885
  17:   1H   1px          0.070598
  18:   1H   1py          0.049293
  19:   2H   1s           0.576594
  20:   2H   2s           0.177480
  21:   2H   1pz          0.064249
  22:   2H   1px          0.046106
  23:   2H   1py          0.069421

-------------------------------
LOEWDIN REDUCED ORBITAL CHARGES
-------------------------------
  0 O s       :     3.419854  s :     3.419854
      pz      :     1.343756  p :     4.693266
      px      :     1.698091
      py      :     1.651419
      dz2     :     0.000480  d :     0.019181
      dxz     :     0.004810
      dyz     :     0.009252
      dx2y2   :     0.002640
      dxy     :     0.001999
  1 H s       :     0.754074  s :     0.754074
      pz      :     0.059885  p :     0.179776
      px      :     0.070598
      py      :     0.049293
  2 H s       :     0.754073  s :     0.754073
      pz      :     0.064249  p :     0.179776
      px      :     0.046106
      py      :     0.069421

---------------------------------
LOEWDIN BOND ORDERS (THRESH 0.050000)
---------------------------------
B(  0-O ,  1-H ) :   1.1648 B(  0-O ,  2-H ) :   1.1648 B(  1-H ,  2-H ) :   0.0512 


----------------------------------
LOEWDIN ORBITAL POPULATIONS PER MO
----------------------------------
THRESHOLD FOR PRINTING IS 0.1%
                      0         1         2         3         4         5   
                 -18.74571  -0.88789  -0.46762  -0.29487  -0.22604   0.02982
                   2.00000   2.00000   2.00000   2.00000   2.00000   0.00000
                  --------  --------  --------  --------  --------  --------
  0O   1s             95.7       2.6       0.0       0.4       0.0       0.3
  0O   2s              3.9      32.1       0.0       6.5       0.0       6.8
  0O   3s              0.2      23.9       0.0       5.7       0.0       1.4
  0O   1pz             0.0       0.0      28.3       0.1      10.7       0.0
  0O   1px             0.0       0.5       5.4      12.6      30.3       1.7
  0O   1py             0.0       1.2       1.5      30.6      13.6       4.2
  0O   2pz             0.0       0.0      20.3       0.1       7.8       0.0
  0O   2px             0.0       0.2       3.9       9.9      22.0       0.1
  0O   2py             0.0       0.5       1.1      24.0       9.9       0.3
  0O   1dz2            0.0       0.0       0.0       0.0       0.0       0.1
  0O   1dxz            0.0       0.0       0.2       0.1       0.0       0.2
  0O   1dyz            0.0       0.0       0.4       0.0       0.0       0.1
  0O   1dx2y2          0.0       0.0       0.1       0.0       0.0       0.0
  1H   1s              0.0      10.0      15.5       3.3       0.0       1.1
  1H   2s              0.0       5.8       2.9       0.2       0.0      34.7
  1H   1pz             0.0       2.1       0.1       0.2       0.5       4.1
  1H   1px             0.0       1.4       0.4       0.1       1.5       2.3
  1H   1py             0.0       0.2       0.5       1.0       0.7       0.2
  2H   1s              0.0      10.0      15.5       3.3       0.0       1.1
  2H   2s              0.0       5.8       2.9       0.2       0.0      34.7
  2H   1pz             0.0       2.3       0.1       0.2       0.5       4.5
  2H   1px             0.0       0.0       0.1       0.6       1.5       0.1
  2H   1py             0.0       1.4       0.7       0.6       0.7       2.0

                      6         7         8         9        10        11   
                   0.10603   0.53357   0.55457   0.87138   0.87934   0.96286
                   0.00000   0.00000   0.00000   0.00000   0.00000   0.00000
                  --------  --------  --------  --------  --------  --------
  0O   1s              0.0       0.0       0.2       0.1       0.0       0.0
  0O   2s              0.0       0.0       1.9       5.4       0.0       0.0
  0O   3s              0.0       0.0       0.6       0.9       0.0       0.0
  0O   1pz            13.1       5.9       0.0       0.1       8.8      19.7
  0O   1px             2.5       1.1       2.1       9.7      25.0       3.8
  0O   1py             0.7       0.3       5.2      23.5      11.3       1.1
  0O   2pz             0.1       2.5       0.0       0.1      10.0      45.6
  0O   2px             0.0       0.5       0.0      13.9      28.3       8.8
  0O   2py             0.0       0.1       0.1      33.8      12.8       2.4
  0O   1dz2            0.0       0.0       1.8       0.5       0.0       0.0
  0O   1dxz            0.1       2.2       2.4       0.6       0.0       0.9
  0O   1dyz            0.4       5.7       0.8       0.2       0.0       2.4
  0O   1dx2y2          0.1       1.5       0.0       0.0       0.0       0.6
  0O   1dxy            0.0       0.5       0.2       0.1       0.0       0.2
  1H   1s              1.8      23.4      25.2       0.7       0.0       0.1
  1H   2s             32.8      10.9       8.8       0.0       0.0       2.5
  1H   1pz             2.5       0.2       6.5       0.8       0.4       3.1
  1H   1px             2.9       2.2       1.6       0.5       1.1       0.1
  1H   1py             1.3       3.1       0.2       3.5       0.5       1.5
  2H   1s              1.8      23.3      25.2       0.7       0.0       0.1
  2H   2s             32.8      10.9       8.8       0.0       0.0       2.5
  2H   1pz             3.0       0.4       6.6       0.5       0.4       2.8
  2H   1px             0.1       0.9       1.0       2.1       1.1       1.6
  2H   1py             3.6       4.1       0.6       2.2       0.5       0.2

                     12        13        14        15        16        17   
                   1.03793   1.27300   1.41651   1.51743   1.69484   2.15939
                   0.00000   0.00000   0.00000   0.00000   0.00000   0.00000
                  --------  --------  --------  --------  --------  --------
  0O   1s              0.6       0.0       0.0       0.0       0.0       0.0
  0O   2s             28.4       0.0       3.6       0.0       0.0       0.0
  0O   3s             48.7       0.0       7.3       0.0       0.0       0.0
  0O   1pz             0.0       0.0       0.0       0.0       0.1      11.1
  0O   1px             0.1       0.0       0.0       0.1       0.0       2.1
  0O   1py             0.2       0.0       0.1       0.1       0.0       0.6
  0O   2pz             0.0       0.0       0.0       1.6       7.9       0.1
  0O   2px             0.0       0.0       4.0       4.5       1.5       0.0
  0O   2py             0.0       0.0       9.6       2.0       0.4       0.0
  0O   1dz2            2.6       5.6       2.5       0.0       0.0       0.1
  0O   1dxz            2.6       2.9       0.2       0.9       0.1       4.3
  0O   1dyz            0.8       1.5       0.3       1.6       0.2      11.5
  0O   1dx2y2          0.0       0.4       2.4       8.7       0.1       2.9
  0O   1dxy            0.0       1.5      11.6       1.7       0.0       0.9
  1H   1s              0.0       0.0       1.9       0.0       0.9       0.2
[...]
Number of perturbations per batch  ...            5
Number of batches                  ...            1

Batching info for step 1
Memory available                   ...       1005.3 MB
Memory needed per perturbation     ...          0.0 MB
Number of perturbations per batch  ...            5
Number of batches                  ...            1

Batching info for step 2
Memory available                   ...       1005.3 MB
Memory needed per perturbation     ...          0.0 MB
Number of perturbations per batch  ...            1
Number of batches                  ...            5

Batching info for step 3
Memory available                   ...       1005.3 MB
Memory needed per perturbation     ...          0.0 MB
Number of perturbations per batch  ...            5
Number of batches                  ...            1

Batching info for step 4
Memory available                   ...       1005.3 MB
Memory needed per perturbation     ...          0.0 MB
Number of perturbations per batch  ...            5
Number of batches                  ...            1

Batching info for step 5
Memory available                   ...       1005.3 MB
Memory needed per perturbation     ...          0.0 MB
Number of perturbations per batch  ...            5
Number of batches                  ...            1

Batching info for step 6
Memory available                   ...       1005.3 MB
Memory needed per perturbation     ...          0.0 MB
Number of perturbations per batch  ...            5
Number of batches                  ...            1


----------------------------------------------
Forming right-hand sides of CP-SCF equations     ...
----------------------------------------------

------------------------
Batching info for step 0
------------------------
Number of perturbation per batch  ...            5
Number of batches                 ...            1
Storage mode                      ...       InCore

One electron integral derivatives                ... done   (      0.1 sec)

------------------------
Batching info for step 1
------------------------
Number of perturbation per batch  ...            5
Number of batches                 ...            1
Storage mode                      ...       InCore

Transforming the overlap derivative matrices     ... done   (      0.0 sec)

------------------------
Batching info for step 1
------------------------
Number of perturbation per batch  ...            5
Number of batches                 ...            1
Storage mode                      ...       InCore

Making the Q(x) pseudodensities                  ... done   (      0.0 sec)
Adding the E*S(x)*S(y) terms to the Hessian      ... done   (      0.0 sec)
Calculating energy weighted overlap derivatives  ... done   (      0.0 sec)

------------------------
Batching info for step 3
------------------------
Number of perturbation per batch  ...            5
Number of batches                 ...            1
Storage mode                      ...       InCore

Two electron integral derivatives (RI)           ... done   (      0.2 sec)

------------------------
Batching info for step 4
------------------------
Number of perturbation per batch  ...            5
Number of batches                 ...            1
Storage mode                      ...       InCore

Exchange-correlation integral derivatives        ... done   (      0.4 sec)
tr(F(y)Q(x)) contribution to the Hessian         ... done   (      0.0 sec)

------------------------
Batching info for step 5
------------------------
Number of perturbation per batch  ...            5
Number of batches                 ...            1
Storage mode                      ...       InCore

Response fock operator R(S(x)) (RI)              ... (RIJ)done   (      0.2 sec)

------------------------
Batching info for step 6
------------------------
Number of perturbation per batch  ...            5
Number of batches                 ...            1
Storage mode                      ...       InCore

XC Response fock operator R(S(x))                ... done   (      0.1 sec)
tr(F(y)S(x)) contribution to the Hessian         ... done   (      0.0 sec)
Transforming and finalizing RHSs                 ... done   (      0.0 sec)

----------------------------------------------
Solving the CP-SCF equations (RI)                ...
----------------------------------------------
     CP-SCF ITERATION   0: 
     CP-SCF ITERATION   1:      0.000448434907
     CP-SCF ITERATION   2:      0.000009320452
     CP-SCF ITERATION   3:      0.000000180691
     CP-SCF ITERATION   4:      0.000000003147

                                                 ... done   (      0.9 sec)
Forming perturbed density Hessian contributions  ... done   (      0.0 sec)
Making the perturbed densities                   ... done   (      0.0 sec)
2nd integral derivative contribs (RI)            ... done   (      0.2 sec)
Exchange-correlation Hessian                     ... done   (      0.8 sec)
Dispersion correction in the Hessian             ... 
The revPBE functional is recognized
Active option DFTDOPT                   ...         5   



------------------- 
Dispersion Gradient 
------------------- 
   1  :   -0.000146275   -0.000227101   -0.000012130
   2  :    0.000115398    0.000096532   -0.000084327
   3  :    0.000036296    0.000138783    0.000096680

  |G| =    0.000953523


The revPBE functional is recognized
Active option DFTDOPT                   ...         5   



------------------- 
Dispersion Gradient 
------------------- 
   1  :   -0.000145868   -0.000228706   -0.000010702
   2  :    0.000115642    0.000097452   -0.000085734
   3  :    0.000035194    0.000139239    0.000097019

  |G| =    0.000955556


The revPBE functional is recognized
Active option DFTDOPT                   ...         5   



------------------- 
Dispersion Gradient 
------------------- 
   1  :   -0.000146790   -0.000227423   -0.000010836
   2  :    0.000116095    0.000097316   -0.000085022
   3  :    0.000035709    0.000138322    0.000096736

  |G| =    0.000954248


The revPBE functional is recognized
Active option DFTDOPT                   ...         5   



------------------- 
Dispersion Gradient 
------------------- 
   1  :   -0.000145361   -0.000228380   -0.000011993
   2  :    0.000114951    0.000096668   -0.000085034
   3  :    0.000035784    0.000139705    0.000096963

  |G| =    0.000954839


The revPBE functional is recognized
Active option DFTDOPT                   ...         5   



------------------- 
Dispersion Gradient 
------------------- 
   1  :   -0.000146642   -0.000227779   -0.000010984
   2  :    0.000115975    0.000096770   -0.000085499
   3  :    0.000035753    0.000139027    0.000096997

  |G| =    0.000955427


The revPBE functional is recognized
Active option DFTDOPT                   ...         5   



------------------- 
Dispersion Gradient 
------------------- 
   1  :   -0.000145512   -0.000228027   -0.000011851
   2  :    0.000115069    0.000097209   -0.000084560
   3  :    0.000035739    0.000138997    0.000096706

  |G| =    0.000953670


The revPBE functional is recognized
Active option DFTDOPT                   ...         5   



------------------- 
Dispersion Gradient 
------------------- 
   1  :   -0.000145549   -0.000228028   -0.000011462
   2  :    0.000115485    0.000096999   -0.000085169
   3  :    0.000035232    0.000139116    0.000097027

  |G| =    0.000954068


The revPBE functional is recognized
Active option DFTDOPT                   ...         5   



------------------- 
Dispersion Gradient 
------------------- 
   1  :   -0.000146607   -0.000227780   -0.000011365
   2  :    0.000115559    0.000096984   -0.000084890
   3  :    0.000036260    0.000138906    0.000096673

  |G| =    0.000955024


The revPBE functional is recognized
Active option DFTDOPT                   ...         5   



------------------- 
Dispersion Gradient 
------------------- 
   1  :   -0.000146256   -0.000229006   -0.000011773
   2  :    0.000115514    0.000097137   -0.000084976
   3  :    0.000035924    0.000139755    0.000096909

  |G| =    0.000957250


The revPBE functional is recognized
Active option DFTDOPT                   ...         5   



------------------- 
Dispersion Gradient 
------------------- 
   1  :   -0.000145902   -0.000226801   -0.000011043
   2  :    0.000115530    0.000096847   -0.000085082
   3  :    0.000035570    0.000138272    0.000096788

  |G| =    0.000951834


Dispersion correction Hessian from Numerical Differentiation: 
                  0          1          2          3          4          5    
      0      -0.000041   0.000000  -0.000143   0.000000  -0.000113   0.000000
      1       0.000000   0.000000   0.000096   0.000000   0.000025   0.000000
      2      -0.000143   0.000096   0.000116   0.000000   0.000087   0.000000
      3       0.000000   0.000000   0.000000   0.000000   0.000091   0.000000
      4      -0.000113   0.000025   0.000087   0.000091  -0.000044   0.000000
      5       0.000000   0.000000   0.000000   0.000000   0.000000   0.000000
      6       0.000106  -0.000025  -0.000010  -0.000007   0.000001  -0.000028
      7       0.000000   0.000000   0.000000   0.000000   0.000000   0.000000
      8      -0.000035  -0.000221  -0.000073  -0.000002   0.000029   0.000011
                   6          7          8    
      0       0.000106   0.000000  -0.000035
      1      -0.000025   0.000000  -0.000221
      2      -0.000010   0.000000  -0.000073
      3      -0.000007   0.000000  -0.000002
      4       0.000001   0.000000   0.000029
      5      -0.000028   0.000000   0.000011
      6      -0.000103   0.000000   0.000035
      7       0.000000   0.000000   0.000148
      8       0.000035   0.000148   0.000012

done   (      0.5 sec)
gCP correction in the Hessian                    ...  
-----------------
gCP hessian 
from Numerical Differentiation: 
-----------------
                  0          1          2          3          4          5    
      0      -0.000218   0.000031  -0.000048   0.000085  -0.000028   0.000051
      1       0.000031  -0.000195   0.000029  -0.000028   0.000117   0.000029
      2      -0.000048   0.000029  -0.000153   0.000051   0.000029   0.000081
      3       0.000085  -0.000028   0.000051  -0.000155   0.000004  -0.000155
      4      -0.000028   0.000117   0.000029   0.000004  -0.000221   0.000026
      5       0.000051   0.000029   0.000081  -0.000155   0.000026   0.000042
      6       0.000133  -0.000003  -0.000003   0.000070   0.000024   0.000105
      7      -0.000003   0.000078  -0.000058   0.000024   0.000103  -0.000055
      8      -0.000003  -0.000058   0.000072   0.000105  -0.000055  -0.000123
                   6          7          8    
      0       0.000133  -0.000003  -0.000003
      1      -0.000003   0.000078  -0.000058
      2      -0.000003  -0.000058   0.000072
      3       0.000070   0.000024   0.000105
      4       0.000024   0.000103  -0.000055
      5       0.000105  -0.000055  -0.000123
      6      -0.000203  -0.000021  -0.000102
      7      -0.000021  -0.000181   0.000114
      8      -0.000102   0.000114   0.000051

done   (      0.0 sec)
Dipol derivatives                                ... done   (      0.1 sec)

-------
TIMINGS
-------

Total SCF Hessian time: 0 days 0 hours 0 min 3 sec 
                   F(y)            G[Q(x)]           CPSCF         Total
Table01         0.2  0.06         0.2  0.04         0.9  0.25         3.8 
Table01a        0.2  0.06,        0.2, 0.04,        0.9  0.25         3.8 
Table01b        0.2   5.8,        0.2,  4.0,        0.9  24.5         3.8 

Writing the Hessian file to the disk             ... done


Maximum memory used throughout the entire calculation: 131.4 MB

-----------------------
VIBRATIONAL FREQUENCIES
-----------------------

Scaling factor for frequencies =  1.000000000  (already applied!)

   0:         0.00 cm**-1
   1:         0.00 cm**-1
   2:         0.00 cm**-1
   3:         0.00 cm**-1
   4:         0.00 cm**-1
   5:         0.00 cm**-1
   6:      1619.07 cm**-1
   7:      3671.68 cm**-1
   8:      3769.05 cm**-1


------------
NORMAL MODES
------------

These modes are the Cartesian displacements weighted by the diagonal matrix
M(i,i)=1/sqrt(m[i]) where m[i] is the mass of the displaced atom
Thus, these vectors are normalized but *not* orthogonal

                  0          1          2          3          4          5    
      0       0.000000   0.000000   0.000000   0.000000   0.000000   0.000000
      1       0.000000   0.000000   0.000000   0.000000   0.000000   0.000000
      2       0.000000   0.000000   0.000000   0.000000   0.000000   0.000000
      3       0.000000   0.000000   0.000000   0.000000   0.000000   0.000000
      4       0.000000   0.000000   0.000000   0.000000   0.000000   0.000000
      5       0.000000   0.000000   0.000000   0.000000   0.000000   0.000000
      6       0.000000   0.000000   0.000000   0.000000   0.000000   0.000000
      7       0.000000   0.000000   0.000000   0.000000   0.000000   0.000000
      8       0.000000   0.000000   0.000000   0.000000   0.000000   0.000000
                   6          7          8    
      0       0.037749  -0.027359  -0.027136
      1       0.058895  -0.042700   0.014278
      2       0.002950  -0.002156   0.061849
      3      -0.128829   0.444993   0.455009
      4      -0.557337   0.218695   0.260461
      5      -0.412709  -0.502581  -0.472261
      6      -0.470328  -0.010755  -0.024308
      7      -0.377446   0.459040  -0.487076
      8       0.365886   0.536802  -0.509408


-----------
IR SPECTRUM
-----------

 Mode    freq (cm**-1)   T**2         TX         TY         TZ
-------------------------------------------------------------------
   6:      1619.07   45.410148  ( -3.633233  -5.668270  -0.283695)
   7:      3671.68    1.610303  (  0.683539   1.067728   0.055082)
   8:      3769.05   16.473512  (  1.594821  -0.840248  -3.636487)

The first frequency considered to be a vibration is 6
The total number of vibrations considered is 3


--------------------------
THERMOCHEMISTRY AT 298.15K
--------------------------

Temperature         ... 298.15 K
Pressure            ... 1.00 atm
Total Mass          ... 18.02 AMU

Throughout the following assumptions are being made:
  (1) The electronic state is orbitally nondegenerate
  (2) There are no thermally accessible electronically excited states
  (3) Hindered rotations indicated by low frequency modes are not
      treated as such but are treated as vibrations and this may
      cause some error
  (4) All equations used are the standard statistical mechanics
      equations for an ideal gas
  (5) All vibrations are strictly harmonic

freq.    1619.07  E(vib)   ...       0.00 
freq.    3671.68  E(vib)   ...       0.00 
freq.    3769.05  E(vib)   ...       0.00 

------------
INNER ENERGY
------------

The inner energy is: U= E(el) + E(ZPE) + E(vib) + E(rot) + E(trans)
    E(el)   - is the total energy from the electronic structure calculation
              = E(kin-el) + E(nuc-el) + E(el-el) + E(nuc-nuc)
    E(ZPE)  - the the zero temperature vibrational energy from the frequency calculation
    E(vib)  - the the finite temperature correction to E(ZPE) due to population
              of excited vibrational states
    E(rot)  - is the rotational thermal energy
    E(trans)- is the translational thermal energy

Summary of contributions to the inner energy U:
Electronic energy                ...    -76.33275738 Eh
Zero point energy                ...      0.02063975 Eh      12.95 kcal/mol
Thermal vibrational correction   ...      0.00000299 Eh       0.00 kcal/mol
Thermal rotational correction    ...      0.00141627 Eh       0.89 kcal/mol
Thermal translational correction ...      0.00141627 Eh       0.89 kcal/mol
-----------------------------------------------------------------------
Total thermal energy                    -76.30928210 Eh


Summary of corrections to the electronic energy:
(perhaps to be used in another calculation)
Total thermal correction                  0.00283553 Eh       1.78 kcal/mol
Non-thermal (ZPE) correction              0.02063975 Eh      12.95 kcal/mol
-----------------------------------------------------------------------
Total correction                          0.02347528 Eh      14.73 kcal/mol


--------
ENTHALPY
--------

The enthalpy is H = U + kB*T
                kB is Boltzmann's constant
Total free energy                 ...    -76.30928210 Eh 
Thermal Enthalpy correction       ...      0.00094421 Eh       0.59 kcal/mol
-----------------------------------------------------------------------
Total Enthalpy                    ...    -76.30833789 Eh


Note: Rotational entropy computed according to Herzberg 
Infrared and Raman Spectra, Chapter V,1, Van Nostrand Reinhold, 1945 
Point Group:  Cs, Symmetry Number:   1  
Rotational constants in cm-1:    24.907617    14.554902     9.186639 

Vibrational entropy computed according to the QRRHO of S. Grimme
Chem.Eur.J. 2012 18 9955


-------
ENTROPY
-------

The entropy contributions are T*S = T*(S(el)+S(vib)+S(rot)+S(trans))
     S(el)   - electronic entropy
     S(vib)  - vibrational entropy
     S(rot)  - rotational entropy
     S(trans)- translational entropy
The entropies will be listed as mutliplied by the temperature to get
units of energy

Electronic entropy                ...      0.00000000 Eh      0.00 kcal/mol
Vibrational entropy               ...      0.00000337 Eh      0.00 kcal/mol
Rotational entropy                ...      0.00568175 Eh      3.57 kcal/mol
Translational entropy             ...      0.01644380 Eh     10.32 kcal/mol
-----------------------------------------------------------------------
Final entropy term                ...      0.02212892 Eh     13.89 kcal/mol

In case the symmetry of your molecule has not been determined correctly
or in case you have a reason to use a different symmetry number we print 
out the resulting rotational entropy values for sn=1,12 :
 --------------------------------------------------------
|  sn= 1 | S(rot)=       0.00568175 Eh      3.57 kcal/mol|
|  sn= 2 | S(rot)=       0.00502730 Eh      3.15 kcal/mol|
|  sn= 3 | S(rot)=       0.00464447 Eh      2.91 kcal/mol|
|  sn= 4 | S(rot)=       0.00437284 Eh      2.74 kcal/mol|
|  sn= 5 | S(rot)=       0.00416215 Eh      2.61 kcal/mol|
|  sn= 6 | S(rot)=       0.00399001 Eh      2.50 kcal/mol|
|  sn= 7 | S(rot)=       0.00384446 Eh      2.41 kcal/mol|
|  sn= 8 | S(rot)=       0.00371839 Eh      2.33 kcal/mol|
|  sn= 9 | S(rot)=       0.00360718 Eh      2.26 kcal/mol|
|  sn=10 | S(rot)=       0.00350770 Eh      2.20 kcal/mol|
|  sn=11 | S(rot)=       0.00341771 Eh      2.14 kcal/mol|
|  sn=12 | S(rot)=       0.00333555 Eh      2.09 kcal/mol|
 --------------------------------------------------------


-------------------
GIBBS FREE ENERGY
-------------------

The Gibbs free energy is G = H - T*S

Total enthalpy                    ...    -76.30833789 Eh 
Total entropy correction          ...     -0.02212892 Eh    -13.89 kcal/mol
-----------------------------------------------------------------------
Final Gibbs free energy         ...    -76.33046682 Eh

For completeness - the Gibbs free energy minus the electronic energy
G-E(el)                           ...      0.00229057 Eh      1.44 kcal/mol


Timings for individual modules:

Sum of individual times         ...       19.017 sec (=   0.317 min)
GTO integral calculation        ...        2.737 sec (=   0.046 min)  14.4 %
SCF iterations                  ...        8.525 sec (=   0.142 min)  44.8 %
SCF Gradient evaluation         ...        3.523 sec (=   0.059 min)  18.5 %
Geometry relaxation             ...        0.105 sec (=   0.002 min)   0.6 %
Analytical frequency calculation...        4.127 sec (=   0.069 min)  21.7 %
                             ****ORCA TERMINATED NORMALLY****
TOTAL RUN TIME: 0 days 0 hours 0 minutes 19 seconds 967 msec
