
                                 *****************
                                 * O   R   C   A *
                                 *****************

           --- An Ab Initio, DFT and Semiempirical electronic structure package ---

                  #######################################################
                  #                        -***-                        #
                  #          Department of theory and spectroscopy      #
                  #               Directorship: Frank Neese             #
                  #        Max Planck Institute fuer Kohlenforschung    #
                  #                Kaiser Wilhelm Platz 1               #
                  #                 D-45470 Muelheim/Ruhr               #
                  #                      Germany                        #
                  #                                                     #
                  #                  All rights reserved                #
                  #                        -***-                        #
                  #######################################################


                         Program Version 4.2.1 -  RELEASE  -


 With contributions from (in alphabetic order):
   Daniel Aravena         : Magnetic Suceptibility
   Michael Atanasov       : Ab Initio Ligand Field Theory (pilot matlab implementation)
   Alexander A. Auer      : GIAO ZORA, VPT2
   Ute Becker             : Parallelization
   Giovanni Bistoni       : ED, misc. LED, open-shell LED, HFLD
   Martin Brehm           : Molecular dynamics
   Dmytro Bykov           : SCF Hessian
   Vijay G. Chilkuri      : MRCI spin determinant printing, contributions to CSF-ICE
   Dipayan Datta          : RHF DLPNO-CCSD density
   Achintya Kumar Dutta   : EOM-CC, STEOM-CC
   Dmitry Ganyushin       : Spin-Orbit,Spin-Spin,Magnetic field MRCI
   Miquel Garcia          : C-PCM Hessian, Gaussian charge scheme
   Yang Guo               : DLPNO-NEVPT2, CIM, IAO-localization
   Andreas Hansen         : Spin unrestricted coupled pair/coupled cluster methods
   Benjamin Helmich-Paris : CASSCF linear response (MC-RPA)
   Lee Huntington         : MR-EOM, pCC
   Robert Izsak           : Overlap fitted RIJCOSX, COSX-SCS-MP3, EOM
   Christian Kollmar      : KDIIS, OOCD, Brueckner-CCSD(T), CCSD density
   Simone Kossmann        : Meta GGA functionals, TD-DFT gradient, OOMP2, MP2 Hessian
   Martin Krupicka        : AUTO-CI
   Lucas Lang             : DCDCAS
   Dagmar Lenk            : GEPOL surface, SMD
   Dimitrios Liakos       : Extrapolation schemes; Compound Job, initial MDCI parallelization
   Dimitrios Manganas     : Further ROCIS development; embedding schemes
   Dimitrios Pantazis     : SARC Basis sets
   Taras Petrenko         : DFT Hessian,TD-DFT gradient, ASA, ECA, R-Raman, ABS, FL, XAS/XES, NRVS
   Peter Pinski           : DLPNO-MP2, DLPNO-MP2 Gradient
   Christoph Reimann      : Effective Core Potentials
   Marius Retegan         : Local ZFS, SOC
   Christoph Riplinger    : Optimizer, TS searches, QM/MM, DLPNO-CCSD(T), (RO)-DLPNO pert. Triples
   Tobias Risthaus        : Range-separated hybrids, TD-DFT gradient, RPA, STAB
   Michael Roemelt        : Original ROCIS implementation
   Masaaki Saitow         : Open-shell DLPNO-CCSD energy and density
   Barbara Sandhoefer     : DKH picture change effects
   Avijit Sen             : IP-ROCIS
   Kantharuban Sivalingam : CASSCF convergence, NEVPT2, FIC-MRCI
   Bernardo de Souza      : ESD, SOC TD-DFT
   Georgi Stoychev        : AutoAux, RI-MP2 NMR
   Willem Van den Heuvel  : Paramagnetic NMR
   Boris Wezisla          : Elementary symmetry handling
   Frank Wennmohs         : Technical directorship


 We gratefully acknowledge several colleagues who have allowed us to
 interface, adapt or use parts of their codes:
   Stefan Grimme, W. Hujo, H. Kruse,             : VdW corrections, initial TS optimization,
                  C. Bannwarth                     DFT functionals, gCP, sTDA/sTD-DF
   Ed Valeev, F. Pavosevic, A. Kumar             : LibInt (2-el integral package), F12 methods
   Garnet Chan, S. Sharma, J. Yang, R. Olivares  : DMRG
   Ulf Ekstrom                                   : XCFun DFT Library
   Mihaly Kallay                                 : mrcc  (arbitrary order and MRCC methods)
   Andreas Klamt, Michael Diedenhofen            : otool_cosmo (COSMO solvation model)
   Jiri Pittner, Ondrej Demel                    : Mk-CCSD
   Frank Weinhold                                : gennbo (NPA and NBO analysis)
   Christopher J. Cramer and Donald G. Truhlar   : smd solvation model
   Lars Goerigk                                  : TD-DFT with DH, B97 family of functionals
   V. Asgeirsson, H. Jonsson                     : NEB implementation
   FAccTs GmbH                                   : IRC, NEB, NEB-TS, Multilevel, MM, QM/MM, CI optimization
   S Lehtola, MJT Oliveira, MAL Marques          : LibXC Library


 Your calculation uses the libint2 library for the computation of 2-el integrals
 For citations please refer to: http://libint.valeyev.net

 Your ORCA version has been built with support for libXC version: 4.2.3
 For citations please refer to: https://tddft.org/programs/libxc/

 This ORCA versions uses:
   CBLAS   interface :  Fast vector & matrix operations
   LAPACKE interface :  Fast linear algebra routines
   SCALAPACK package :  Parallel linear algebra routines


----- Orbital basis set information -----
Your calculation utilizes the basis: 6-311G(d,p)
   H, Li - Ne  : R. Krishnan, J. S. Binkley, R. Seeger and J. A. Pople, J. Chem. Phys. 72, 650 (1980).
   Na - Ar     : A. D. McLean and G. S. Chandler J. Chem. Phys. 72, 5639, (1980).
   K  - Ca     : J.-P. Blaudeau, M. P. McGrath, L. A. Curtiss and L. Radom, J. Chem. Phys. 107, 5016 (1997).
   Ga - Kr     : L. A. Curtiss, M. P. McGrath, J.-P. Blandeau, N. E. Davis, R. C. Binning and L. Radom, J. Chem. Phys. 103, 6104 (1995).
   Pol./Diff.
   H, Li - Cl  : T. Clark, J. Chandrasekhar and P. v. R. Schleyer, J. Comp. Chem. 4, 294 (1983).
   H - Ne      : M. J. Frisch, J. A. Pople and J. S. Binkley, J. Chem. Phys. 80, 3265 (1984).

================================================================================
                                        WARNINGS
                       Please study these warnings very carefully!
================================================================================


WARNING: Geometry Optimization
  ===> : Switching off AutoStart
         For restart on a previous wavefunction, please use MOREAD

WARNING: Post HF methods need fully converged wavefunctions
  ===> : Setting SCFConvForced true
         You can overwrite this default with %scf ConvForced false 


INFO   : the flag for use of LIBINT has been found!

================================================================================
                                       INPUT FILE
================================================================================
NAME = CH3·.inp
|  1> ! UHF MP2 6-311G(d,p) Opt Freq NoFrozenCore TightOpt TightSCF Grid4 FinalGrid5 PrintBasis PrintMOs NBO
|  2> %maxcore 3000
|  3> 
|  4> *xyz 0 2
|  5> C        0.000000000      0.000000000      0.000000000
|  6> H        1.071911000      0.000000000      0.000000000
|  7> H       -0.535955000      0.928302000      0.000000000
|  8> H       -0.535955000     -0.928302000      0.000000000
|  9> *
| 10> 
| 11> %pal
| 12>  nprocs 12
| 13> end
| 14> 
| 15>                          ****END OF INPUT****
================================================================================

                       *****************************
                       * Geometry Optimization Run *
                       *****************************

Geometry optimization settings:
Update method            Update   .... BFGS
Choice of coordinates    CoordSys .... Z-matrix Internals
Initial Hessian          InHess   .... Almoef's Model

Convergence Tolerances:
Energy Change            TolE     ....  1.0000e-06 Eh
Max. Gradient            TolMAXG  ....  1.0000e-04 Eh/bohr
RMS Gradient             TolRMSG  ....  3.0000e-05 Eh/bohr
Max. Displacement        TolMAXD  ....  1.0000e-03 bohr
RMS Displacement         TolRMSD  ....  6.0000e-04 bohr
Strict Convergence                ....  False
------------------------------------------------------------------------------
                        ORCA OPTIMIZATION COORDINATE SETUP
------------------------------------------------------------------------------

The optimization will be done in new redundant internal coordinates
Making redundant internal coordinates   ...  (new redundants) done
Evaluating the initial hessian          ...  (Almloef) done
Evaluating the coordinates              ...  done
Calculating the B-matrix                .... done
Calculating the G-matrix                .... done
Diagonalizing the G-matrix              .... done
The first mode is                       ....    1
The number of degrees of freedom        ....    6

    -----------------------------------------------------------------
                    Redundant Internal Coordinates


    -----------------------------------------------------------------
         Definition                    Initial Value    Approx d2E/dq
    -----------------------------------------------------------------
      1. B(H   1,C   0)                  1.0719         0.384842   
      2. B(H   2,C   0)                  1.0719         0.384843   
      3. B(H   3,C   0)                  1.0719         0.384843   
      4. A(H   1,C   0,H   3)          120.0000         0.297003   
      5. A(H   2,C   0,H   3)          120.0000         0.297003   
      6. A(H   1,C   0,H   2)          120.0000         0.297003   
      7. I(H   1,H   3,H   2,C   0)      0.0000         0.023978   
    -----------------------------------------------------------------

Number of atoms                         .... 4
Number of degrees of freedom            .... 7

         *************************************************************
         *                GEOMETRY OPTIMIZATION CYCLE   1            *
         *************************************************************
---------------------------------
CARTESIAN COORDINATES (ANGSTROEM)
---------------------------------
  C      0.000000    0.000000    0.000000
  H      1.071911    0.000000    0.000000
  H     -0.535955    0.928302    0.000000
  H     -0.535955   -0.928302    0.000000

----------------------------
CARTESIAN COORDINATES (A.U.)
----------------------------
  NO LB      ZA    FRAG     MASS         X           Y           Z
   0 C     6.0000    0    12.011    0.000000    0.000000    0.000000
   1 H     1.0000    0     1.008    2.025618    0.000000    0.000000
   2 H     1.0000    0     1.008   -1.012808    1.754237    0.000000
   3 H     1.0000    0     1.008   -1.012808   -1.754237    0.000000

--------------------------------
INTERNAL COORDINATES (ANGSTROEM)
--------------------------------
 C      0   0   0     0.000000000000     0.00000000     0.00000000
 H      1   0   0     1.071911000000     0.00000000     0.00000000
 H      1   2   0     1.071910614384   119.99998104     0.00000000
 H      1   2   3     1.071910614384   119.99998104   180.00000000

---------------------------
INTERNAL COORDINATES (A.U.)
---------------------------
 C      0   0   0     0.000000000000     0.00000000     0.00000000
 H      1   0   0     2.025618229938     0.00000000     0.00000000
 H      1   2   0     2.025617501229   119.99998104     0.00000000
 H      1   2   3     2.025617501229   119.99998104   180.00000000

---------------------
BASIS SET INFORMATION
---------------------
There are 2 groups of distinct atoms

 Group   1 Type C   : 11s5p1d contracted to 4s3p1d pattern {6311/311/1}
 Group   2 Type H   : 5s1p contracted to 3s1p pattern {311/1}

Atom   0C    basis set group =>   1
Atom   1H    basis set group =>   2
Atom   2H    basis set group =>   2
Atom   3H    basis set group =>   2

-------------------------
BASIS SET IN INPUT FORMAT
-------------------------

 # Basis set for element : H 
 NewGTO H 
 S 3 
   1      33.8650000000      0.0254938145
   2       5.0947900000      0.1903731086
   3       1.1587900000      0.8521614860
 S 1 
   1       0.3258400000      1.0000000000
 S 1 
   1       0.1027410000      1.0000000000
 P 1 
   1       0.7500000000      1.0000000000
  end;

 # Basis set for element : C 
 NewGTO C 
 S 6 
   1    4563.2400000000      0.0019666502
   2     682.0240000000      0.0152306019
   3     154.9730000000      0.0761269097
   4      44.4553000000      0.2608010331
   5      13.0290000000      0.6164620782
   6       1.8277300000      0.2210060280
 S 3 
   1      20.9642000000      0.1146600807
   2       4.8033100000      0.9199996477
   3       1.4593300000     -0.0030306821
 P 3 
   1      20.9642000000      0.0402486927
   2       4.8033100000      0.2375939567
   3       1.4593300000      0.8158538515
 S 1 
   1       0.4834560000      1.0000000000
 P 1 
   1       0.4834560000      1.0000000000
 S 1 
   1       0.1455850000      1.0000000000
 P 1 
   1       0.1455850000      1.0000000000
 D 1 
   1       0.6260000000      1.0000000000
  end;



           ************************************************************
           *        Program running with 12 parallel MPI-processes    *
           *              working on a common directory               *
           ************************************************************
------------------------------------------------------------------------------
                           ORCA GTO INTEGRAL CALCULATION
------------------------------------------------------------------------------

                         BASIS SET STATISTICS AND STARTUP INFO

 # of primitive gaussian shells          ...   35
 # of primitive gaussian functions       ...   55
 # of contracted shells                  ...   20
 # of contracted basis functions         ...   36
 Highest angular momentum                ...    2
 Maximum contraction depth               ...    6
 Integral package used                   ... LIBINT
 Integral threshhold            Thresh   ...  2.500e-11
 Primitive cut-off              TCut     ...  2.500e-12


------------------------------ INTEGRAL EVALUATION ----------------------------


 * One electron integrals 
 Pre-screening matrix                    ... done
 Shell pair data                         ... done (   0.000 sec)



           ************************************************************
           *        Program running with 12 parallel MPI-processes    *
           *              working on a common directory               *
           ************************************************************
-------------------------------------------------------------------------------
                                 ORCA SCF
-------------------------------------------------------------------------------

------------
SCF SETTINGS
------------
Hamiltonian:
 Ab initio Hamiltonian  Method          .... Hartree-Fock(GTOs)


General Settings:
 Integral files         IntName         .... CH3·
 Hartree-Fock type      HFTyp           .... UHF
 Total Charge           Charge          ....    0
 Multiplicity           Mult            ....    2
 Number of Electrons    NEL             ....    9
 Basis Dimension        Dim             ....   36
 Nuclear Repulsion      ENuc            ....      9.7412509664 Eh

Convergence Acceleration:
 DIIS                   CNVDIIS         .... on
   Start iteration      DIISMaxIt       ....    12
   Startup error        DIISStart       ....  0.200000
   # of expansion vecs  DIISMaxEq       ....     5
   Bias factor          DIISBfac        ....   1.050
   Max. coefficient     DIISMaxC        ....  10.000
 Newton-Raphson         CNVNR           .... off
 SOSCF                  CNVSOSCF        .... off
 Level Shifting         CNVShift        .... on
   Level shift para.    LevelShift      ....    0.2500
   Turn off err/grad.   ShiftErr        ....    0.0010
 Zerner damping         CNVZerner       .... off
 Static damping         CNVDamp         .... on
   Fraction old density DampFac         ....    0.7000
   Max. Damping (<1)    DampMax         ....    0.9800
   Min. Damping (>=0)   DampMin         ....    0.0000
   Turn off err/grad.   DampErr         ....    0.1000
 Fernandez-Rico         CNVRico         .... off

SCF Procedure:
 Maximum # iterations   MaxIter         ....   125
 SCF integral mode      SCFMode         .... Direct
   Integral package                     .... LIBINT
 Reset frequency        DirectResetFreq ....    20
 Integral Threshold     Thresh          ....  2.500e-11 Eh
 Primitive CutOff       TCut            ....  2.500e-12 Eh

Convergence Tolerance:
 Convergence Check Mode ConvCheckMode   .... Total+1el-Energy
 Convergence forced     ConvForced      .... 1
 Energy Change          TolE            ....  1.000e-08 Eh
 1-El. energy change                    ....  1.000e-05 Eh
 DIIS Error             TolErr          ....  5.000e-07


Diagonalization of the overlap matrix:
Smallest eigenvalue                        ... 2.228e-02
Time for diagonalization                   ...    0.001 sec
Threshold for overlap eigenvalues          ... 1.000e-08
Number of eigenvalues below threshold      ... 0
Time for construction of square roots      ...    0.001 sec
Total time needed                          ...    0.001 sec

-------------------
DFT GRID GENERATION
-------------------

General Integration Accuracy     IntAcc      ...  4.670
Radial Grid Type                 RadialGrid  ... Gauss-Chebyshev
Angular Grid (max. acc.)         AngularGrid ... Lebedev-302
Angular grid pruning method      GridPruning ... 3 (G Style)
Weight generation scheme         WeightScheme... Becke
Basis function cutoff            BFCut       ...    1.0000e-11
Integration weight cutoff        WCut        ...    1.0000e-14
Grids for H and He will be reduced by one unit

# of grid points (after initial pruning)     ...  16394 (   0.0 sec)
# of grid points (after weights+screening)   ...  16145 (   0.0 sec)
nearest neighbour list constructed           ...    0.0 sec
Grid point re-assignment to atoms done       ...    0.0 sec
Grid point division into batches done        ...    0.1 sec
Reduced shell lists constructed in    0.1 sec

Total number of grid points                  ...    16145
Total number of batches                      ...      253
Average number of points per batch           ...       63
Average number of grid points per atom       ...     4036
Average number of shells per batch           ...    19.13 (95.65%)
Average number of basis functions per batch  ...    34.43 (95.65%)
Average number of large shells per batch     ...    18.61 (97.27%)
Average number of large basis fcns per batch ...    33.74 (97.98%)
Maximum spatial batch extension              ...   2.89,  2.57, 19.60 au
Average spatial batch extension              ...   0.12,  0.13,  0.26 au

Time for grid setup =    0.104 sec

------------------------------
INITIAL GUESS: MODEL POTENTIAL
------------------------------
Loading Hartree-Fock densities                     ... done
Calculating cut-offs                               ... done
Setting up the integral package                    ... done
Initializing the effective Hamiltonian             ... done
Starting the Coulomb interaction                   ... done (   0.0 sec)
Reading the grid                                   ... done
Mapping shells                                     ... done
Starting the XC term evaluation                    ... done (   0.0 sec)
Transforming the Hamiltonian                       ... done (   0.0 sec)
Diagonalizing the Hamiltonian                      ... done (   0.0 sec)
Back transforming the eigenvectors                 ... done (   0.0 sec)
Now organizing SCF variables                       ... done
                      ------------------
                      INITIAL GUESS DONE (   0.2 sec)
                      ------------------
--------------
SCF ITERATIONS
--------------
ITER       Energy         Delta-E        Max-DP      RMS-DP      [F,P]     Damp
               ***  Starting incremental Fock matrix formation  ***
  0    -39.5123978665   0.000000000000 0.02675033  0.00107685  0.2351061 0.7000
  1    -39.5326308866  -0.020233020169 0.01955471  0.00084596  0.1573907 0.7000
                               ***Turning on DIIS***
  2    -39.5455017619  -0.012870875307 0.04100993  0.00186393  0.0984604 0.0000
  3    -39.5140532081   0.031448553858 0.01321705  0.00058138  0.0257626 0.0000
  4    -39.5686118409  -0.054558632843 0.00516855  0.00025477  0.0043371 0.0000
  5    -39.5732426068  -0.004630765890 0.00345947  0.00018169  0.0023542 0.0000
  6    -39.5734245332  -0.000181926383 0.00206826  0.00011525  0.0012745 0.0000
  7    -39.5730858069   0.000338726264 0.00147915  0.00009083  0.0006044 0.0000
  8    -39.5729475188   0.000138288100 0.00042942  0.00003239  0.0001554 0.0000
  9    -39.5729157192   0.000031799620 0.00013795  0.00001018  0.0000349 0.0000
 10    -39.5729074131   0.000008306112 0.00007107  0.00000478  0.0000106 0.0000
 11    -39.5729077342  -0.000000321141 0.00002887  0.00000184  0.0000027 0.0000
                            ***DIIS convergence achieved***

               *****************************************************
               *                     SUCCESS                       *
               *           SCF CONVERGED AFTER  12 CYCLES          *
               *****************************************************


----------------
TOTAL SCF ENERGY
----------------

Total Energy       :          -39.57290789 Eh           -1076.83357 eV

Components:
Nuclear Repulsion  :            9.74125097 Eh             265.07291 eV
Electronic Energy  :          -49.31415885 Eh           -1341.90648 eV
One Electron Energy:          -71.70790272 Eh           -1951.27123 eV
Two Electron Energy:           22.39374387 Eh             609.36475 eV

Virial components:
Potential Energy   :          -79.14816046 Eh           -2153.73094 eV
Kinetic Energy     :           39.57525258 Eh            1076.89737 eV
Virial Ratio       :            1.99994075


---------------
SCF CONVERGENCE
---------------

  Last Energy change         ...   -1.5225e-07  Tolerance :   1.0000e-08
  Last MAX-Density change    ...    1.0119e-05  Tolerance :   1.0000e-07
  Last RMS-Density change    ...    6.4836e-07  Tolerance :   5.0000e-09
  Last DIIS Error            ...    7.6735e-07  Tolerance :   5.0000e-07

             **** THE GBW FILE WAS UPDATED (CH3·.gbw) ****
             **** DENSITY FILE WAS UPDATED (CH3·.scfp) ****
             **** ENERGY FILE WAS UPDATED (CH3·.en.tmp) ****
----------------------
UHF SPIN CONTAMINATION
----------------------

Expectation value of <S**2>     :     0.761185
Ideal value S*(S+1) for S=0.5   :     0.750000
Deviation                       :     0.011185

             **** THE GBW FILE WAS UPDATED (CH3·.gbw) ****
             **** DENSITY FILE WAS UPDATED (CH3·.scfp) ****
----------------
ORBITAL ENERGIES
----------------
                 SPIN UP ORBITALS
  NO   OCC          E(Eh)            E(eV) 
   0   1.0000     -11.229106      -305.5595 
   1   1.0000      -0.948974       -25.8229 
   2   1.0000      -0.581442       -15.8218 
   3   1.0000      -0.581441       -15.8218 
   4   1.0000      -0.384221       -10.4552 
   5   0.0000       0.163705         4.4546 
   6   0.0000       0.229505         6.2451 
   7   0.0000       0.229505         6.2452 
   8   0.0000       0.450006        12.2453 
   9   0.0000       0.450007        12.2453 
  10   0.0000       0.515407        14.0249 
  11   0.0000       0.576588        15.6898 
  12   0.0000       0.816053        22.2059 
  13   0.0000       0.816053        22.2059 
  14   0.0000       0.884114        24.0580 
  15   0.0000       1.275165        34.6990 
  16   0.0000       1.275166        34.6990 
  17   0.0000       1.643232        44.7146 
  18   0.0000       1.643232        44.7146 
  19   0.0000       1.667956        45.3874 
  20   0.0000       1.745322        47.4926 
  21   0.0000       1.916633        52.1542 
  22   0.0000       2.149745        58.4975 
  23   0.0000       2.149745        58.4975 
  24   0.0000       2.242562        61.0232 
  25   0.0000       2.242563        61.0232 
  26   0.0000       2.601504        70.7905 
  27   0.0000       2.729492        74.2733 
  28   0.0000       2.729493        74.2733 
  29   0.0000       2.995404        81.5091 
  30   0.0000       2.995404        81.5091 
  31   0.0000       3.014808        82.0371 
  32   0.0000       3.044765        82.8523 
  33   0.0000       4.141986       112.7092 
  34   0.0000       4.141986       112.7092 
  35   0.0000      25.080328       682.4704 

                 SPIN DOWN ORBITALS
  NO   OCC          E(Eh)            E(eV) 
   0   1.0000     -11.205456      -304.9160 
   1   1.0000      -0.857015       -23.3206 
   2   1.0000      -0.566380       -15.4120 
   3   1.0000      -0.566379       -15.4120 
   4   0.0000       0.135703         3.6927 
   5   0.0000       0.175647         4.7796 
   6   0.0000       0.234508         6.3813 
   7   0.0000       0.234508         6.3813 
   8   0.0000       0.454086        12.3563 
   9   0.0000       0.454087        12.3563 
  10   0.0000       0.562087        15.2952 
  11   0.0000       0.711668        19.3655 
  12   0.0000       0.832905        22.6645 
  13   0.0000       0.832905        22.6645 
  14   0.0000       0.920424        25.0460 
  15   0.0000       1.336728        36.3742 
  16   0.0000       1.336728        36.3742 
  17   0.0000       1.649109        44.8745 
  18   0.0000       1.649109        44.8745 
  19   0.0000       1.663250        45.2593 
  20   0.0000       1.829703        49.7888 
  21   0.0000       1.931731        52.5651 
  22   0.0000       2.147151        58.4270 
  23   0.0000       2.147151        58.4270 
  24   0.0000       2.282030        62.0972 
  25   0.0000       2.282030        62.0972 
  26   0.0000       2.602289        70.8119 
  27   0.0000       2.732168        74.3461 
  28   0.0000       2.732168        74.3461 
  29   0.0000       3.005267        81.7775 
  30   0.0000       3.005267        81.7775 
  31   0.0000       3.023829        82.2826 
  32   0.0000       3.131999        85.2260 
  33   0.0000       4.162673       113.2721 
  34   0.0000       4.162673       113.2721 
  35   0.0000      25.096300       682.9050 
------------------
MOLECULAR ORBITALS
------------------
                      0         1         2         3         4         5   
                 -11.22911  -0.94897  -0.58144  -0.58144  -0.38422   0.16370
                   1.00000   1.00000   1.00000   1.00000   1.00000   0.00000
                  --------  --------  --------  --------  --------  --------
  0C   1s         0.562901 -0.108271 -0.000000  0.000000  0.000000 -0.049469
  0C   2s         0.466440 -0.179749 -0.000000  0.000000  0.000000 -0.079956
  0C   1pz       -0.000000 -0.000000 -0.000000  0.000000  0.259417 -0.000000
  0C   1px        0.000000 -0.000000 -0.000000 -0.198537  0.000000  0.000000
  0C   1py       -0.000000 -0.000000 -0.198537  0.000000  0.000000 -0.000000
  0C   3s         0.006066  0.460961  0.000000 -0.000000  0.000000  0.099488
  0C   2pz        0.000000  0.000000 -0.000000  0.000000  0.430292 -0.000000
  0C   2px       -0.000000 -0.000000 -0.000000 -0.314525 -0.000000  0.000000
  0C   2py        0.000000  0.000000 -0.314525  0.000000 -0.000000  0.000000
  0C   4s        -0.000933  0.352428 -0.000000 -0.000000 -0.000000  1.985201
  0C   3pz       -0.000000 -0.000000  0.000000  0.000000  0.491334  0.000000
  0C   3px        0.000000 -0.000000 -0.000000 -0.195100 -0.000000  0.000000
  0C   3py        0.000000 -0.000000 -0.195100  0.000000 -0.000000 -0.000000
  0C   1dz2       0.000281  0.004914 -0.000000  0.000000  0.000000  0.003830
  0C   1dxz      -0.000000 -0.000000  0.000000  0.000000 -0.000000 -0.000000
  0C   1dyz      -0.000000 -0.000000  0.000000 -0.000000 -0.000000  0.000000
  0C   1dx2y2    -0.000000 -0.000000 -0.000000 -0.030642 -0.000000 -0.000000
  0C   1dxy      -0.000000 -0.000000  0.030642 -0.000000  0.000000 -0.000000
  1H   1s         0.000395  0.088947 -0.000000 -0.161863  0.000000 -0.023304
  1H   2s        -0.000267  0.104489 -0.000000 -0.242348  0.000000  0.034928
  1H   3s         0.000341 -0.001267 -0.000000 -0.082880  0.000000 -0.989416
  1H   1pz        0.000000  0.000000  0.000000 -0.000000  0.018710 -0.000000
  1H   1px        0.000177 -0.019935  0.000000  0.018481 -0.000000 -0.001780
  1H   1py        0.000000  0.000000 -0.010441  0.000000 -0.000000  0.000000
  2H   1s         0.000395  0.088947 -0.140177  0.080931 -0.000000 -0.023304
  2H   2s        -0.000267  0.104489 -0.209879  0.121174  0.000000  0.034928
  2H   3s         0.000341 -0.001267 -0.071776  0.041440  0.000000 -0.989416
  2H   1pz       -0.000000  0.000000  0.000000  0.000000  0.018710 -0.000000
  2H   1px       -0.000089  0.009968 -0.012524 -0.003210  0.000000  0.000890
  2H   1py        0.000154 -0.017265  0.011251 -0.012524 -0.000000 -0.001541
  3H   1s         0.000395  0.088947  0.140177  0.080931 -0.000000 -0.023304
  3H   2s        -0.000267  0.104489  0.209879  0.121174  0.000000  0.034928
  3H   3s         0.000341 -0.001267  0.071776  0.041440  0.000000 -0.989416
  3H   1pz       -0.000000  0.000000  0.000000 -0.000000  0.018710 -0.000000
  3H   1px       -0.000089  0.009968  0.012524 -0.003210 -0.000000  0.000890
  3H   1py       -0.000154  0.017265  0.011251  0.012524 -0.000000  0.001541
                      6         7         8         9        10        11   
                   0.22951   0.22951   0.45001   0.45001   0.51541   0.57659
                   0.00000   0.00000   0.00000   0.00000   0.00000   0.00000
                  --------  --------  --------  --------  --------  --------
  0C   1s         0.000000  0.000000 -0.000000 -0.000000  0.022454 -0.000000
  0C   2s         0.000000  0.000000 -0.000000 -0.000000  0.042099 -0.000000
  0C   1pz       -0.000000  0.000000 -0.000000 -0.000000  0.000000  0.213171
  0C   1px        0.000000  0.135262 -0.001936  0.000000 -0.000000 -0.000000
  0C   1py       -0.135262  0.000000  0.000000  0.001936 -0.000000  0.000000
  0C   3s        -0.000000  0.000000  0.000000  0.000000  0.061200  0.000000
  0C   2pz       -0.000000  0.000000 -0.000000 -0.000000  0.000000  0.907662
  0C   2px        0.000000  0.042910 -0.076147  0.000000  0.000000 -0.000000
  0C   2py       -0.042910  0.000000  0.000000  0.076148 -0.000000  0.000000
  0C   4s        -0.000000 -0.000001  0.000003  0.000000 -2.156177  0.000000
  0C   3pz        0.000000 -0.000000  0.000000  0.000000 -0.000000 -1.192279
  0C   3px        0.000001  1.144392 -1.849456  0.000000 -0.000002  0.000000
  0C   3py       -1.144392  0.000001  0.000000  1.849459  0.000000  0.000000
  0C   1dz2      -0.000000 -0.000000 -0.000000 -0.000000 -0.024775  0.000000
  0C   1dxz      -0.000000 -0.000000  0.000000  0.000000  0.000000 -0.000000
  0C   1dyz      -0.000000 -0.000000 -0.000000  0.000000  0.000000  0.000000
  0C   1dx2y2    -0.000000 -0.034835 -0.047925  0.000000  0.000000 -0.000000
  0C   1dxy      -0.034835  0.000000 -0.000000 -0.047926  0.000000  0.000000
  1H   1s        -0.000000 -0.010573  0.051586 -0.000000  0.059522 -0.000000
  1H   2s         0.000000  0.211874  1.399455 -0.000000  1.123314 -0.000000
  1H   3s        -0.000001 -2.231662  0.222427 -0.000000 -0.061966 -0.000000
  1H   1pz        0.000000 -0.000000 -0.000000 -0.000000  0.000000  0.028789
  1H   1px       -0.000000 -0.043720 -0.085651  0.000000 -0.037718 -0.000000
  1H   1py        0.000331 -0.000000  0.000000  0.037146 -0.000000  0.000000
  2H   1s         0.009157  0.005287 -0.025793 -0.044675  0.059522 -0.000000
  2H   2s        -0.183489 -0.105937 -0.699729 -1.211966  1.123312 -0.000000
  2H   3s         1.932677  1.115831 -0.111214 -0.192630 -0.061966  0.000000
  2H   1pz        0.000000 -0.000000  0.000000 -0.000000  0.000000  0.028789
  2H   1px       -0.018788 -0.011179 -0.049272 -0.021003  0.018859  0.000000
  2H   1py        0.032873  0.018788  0.021003  0.073525 -0.032665 -0.000000
  3H   1s        -0.009157  0.005287 -0.025793  0.044675  0.059522 -0.000000
  3H   2s         0.183489 -0.105937 -0.699729  1.211966  1.123312 -0.000000
  3H   3s        -1.932676  1.115832 -0.111214  0.192630 -0.061966  0.000000
  3H   1pz       -0.000000 -0.000000  0.000000 -0.000000  0.000000  0.028789
  3H   1px        0.018788 -0.011179 -0.049272  0.021003  0.018859  0.000000
  3H   1py        0.032873 -0.018788 -0.021003  0.073525  0.032665  0.000000
                     12        13        14        15        16        17   
                   0.81605   0.81605   0.88411   1.27517   1.27517   1.64323
                   0.00000   0.00000   0.00000   0.00000   0.00000   0.00000
                  --------  --------  --------  --------  --------  --------
  0C   1s        -0.000000 -0.000000  0.118494 -0.000000 -0.000000  0.000000
  0C   2s        -0.000000 -0.000000  0.246417  0.000000 -0.000000  0.000000
  0C   1pz        0.000000  0.000000  0.000000  0.000000  0.000000  0.000000
  0C   1px        0.253989 -0.000000  0.000000  0.000000 -0.000000  0.000000
  0C   1py       -0.000000 -0.253989 -0.000000  0.000000  0.000000 -0.064217
  0C   3s         0.000002  0.000000 -1.842388 -0.000000  0.000000 -0.000000
  0C   2pz        0.000000  0.000000  0.000000 -0.000000 -0.000000  0.000000
  0C   2px        1.080612 -0.000000  0.000001  0.000000  0.000000  0.000000
  0C   2py       -0.000000 -1.080612 -0.000000 -0.000000  0.000000 -0.143692
  0C   4s        -0.000004 -0.000000  3.900755  0.000000 -0.000000 -0.000000
  0C   3pz       -0.000000 -0.000000 -0.000000  0.000000  0.000000  0.000000
  0C   3px       -1.693180  0.000000 -0.000001 -0.000000 -0.000000  0.000000
  0C   3py        0.000000  1.693180  0.000000 -0.000000 -0.000000 -1.206741
  0C   1dz2       0.000000  0.000000 -0.135936  0.000000  0.000000  0.000000
  0C   1dxz       0.000000 -0.000000 -0.000000 -0.000000 -0.565555  0.000000
  0C   1dyz       0.000000 -0.000000  0.000000 -0.565555  0.000000 -0.000000
  0C   1dx2y2    -0.051265  0.000000 -0.000000  0.000000 -0.000000  0.000000
  0C   1dxy      -0.000000 -0.051265 -0.000000  0.000000 -0.000000  0.719565
  1H   1s        -0.052372  0.000000  0.038816 -0.000000 -0.000000  0.000000
  1H   2s        -0.632862  0.000000 -0.127613  0.000000 -0.000000 -0.000000
  1H   3s         1.714159 -0.000000 -0.894371  0.000000  0.000000 -0.000000
  1H   1pz       -0.000000 -0.000000 -0.000000 -0.000000 -0.475642 -0.000000
  1H   1px       -0.041549  0.000000  0.168250  0.000000  0.000000 -0.000000
  1H   1py       -0.000000 -0.057912 -0.000000 -0.000000  0.000000  0.469880
  2H   1s         0.026186  0.045356  0.038816 -0.000000  0.000000 -0.167460
  2H   2s         0.316432  0.548076 -0.127612  0.000000 -0.000000  1.120759
  2H   3s        -0.857078 -1.484505 -0.894374 -0.000000  0.000000  0.070173
  2H   1pz       -0.000000  0.000000 -0.000000 -0.411918  0.237821 -0.000000
  2H   1px        0.033047 -0.043068 -0.084125  0.000000  0.000000  0.166090
  2H   1py        0.043068  0.016683  0.145709 -0.000000  0.000000  0.182214
  3H   1s         0.026186 -0.045356  0.038816  0.000000 -0.000000  0.167460
  3H   2s         0.316432 -0.548076 -0.127612 -0.000000  0.000000 -1.120759
  3H   3s        -0.857078  1.484505 -0.894374 -0.000000 -0.000000 -0.070173
  3H   1pz       -0.000000  0.000000 -0.000000  0.411918  0.237821 -0.000000
  3H   1px        0.033047  0.043068 -0.084125 -0.000000  0.000000 -0.166090
  3H   1py       -0.043068  0.016683 -0.145709 -0.000000  0.000000  0.182214
                     18        19        20        21        22        23   
                   1.64323   1.66796   1.74532   1.91663   2.14974   2.14975
                   0.00000   0.00000   0.00000   0.00000   0.00000   0.00000
                  --------  --------  --------  --------  --------  --------
  0C   1s         0.000000  0.000000  0.006810 -0.000000 -0.000000  0.000000
  0C   2s         0.000000  0.000000  0.012802 -0.000000 -0.000000  0.000000
  0C   1pz       -0.000000 -0.000000  0.000000  0.179677 -0.000000 -0.000000
  0C   1px        0.064217  0.000000  0.000000 -0.000000  0.000000 -0.243529
  0C   1py        0.000000  0.000000 -0.000000 -0.000000 -0.243529 -0.000000
  0C   3s        -0.000001 -0.000000 -0.162449  0.000000  0.000000 -0.000002
  0C   2pz        0.000000  0.000000  0.000000  0.169649  0.000000  0.000000
  0C   2px        0.143692 -0.000000 -0.000001  0.000000 -0.000000  0.879746
  0C   2py        0.000000  0.000001  0.000000  0.000000  0.879749  0.000000
  0C   4s        -0.000001  0.000000  1.417258 -0.000000 -0.000000 -0.000001
  0C   3pz        0.000000 -0.000000  0.000000  0.391220 -0.000000 -0.000000
  0C   3px        1.206739  0.000000  0.000000 -0.000000  0.000000 -0.324959
  0C   3py        0.000000  0.000008 -0.000000  0.000000 -0.324958 -0.000000
  0C   1dz2       0.000000 -0.000000 -1.042612  0.000000  0.000000 -0.000000
  0C   1dxz      -0.000000 -0.000000 -0.000000  0.000000  0.000000  0.000000
  0C   1dyz      -0.000000  0.000000 -0.000000 -0.000000 -0.000000  0.000000
  0C   1dx2y2     0.719565  0.000000 -0.000000  0.000000 -0.000000  0.939492
  0C   1dxy      -0.000000 -0.000005 -0.000000 -0.000000 -0.939493 -0.000000
  1H   1s         0.193366  0.000000  0.183439  0.000000 -0.000000  0.663786
  1H   2s        -1.294139 -0.000000 -0.896048 -0.000000  0.000000 -1.653421
  1H   3s        -0.081028 -0.000000  0.032800  0.000000 -0.000000  0.834372
  1H   1pz       -0.000000  0.000000 -0.000000 -0.659019 -0.000000 -0.000000
  1H   1px       -0.086322 -0.000000 -0.043703  0.000000 -0.000000  0.517879
  1H   1py       -0.000000 -0.594091  0.000000 -0.000000  0.692528  0.000000
  2H   1s        -0.096683  0.000001  0.183439  0.000000  0.574856 -0.331894
  2H   2s         0.647070 -0.000008 -0.896049 -0.000000 -1.431908  0.826713
  2H   3s         0.040514 -0.000000  0.032800  0.000000  0.722587 -0.417186
  2H   1pz       -0.000000 -0.000000 -0.000000 -0.659019  0.000000 -0.000000
  2H   1px       -0.373993  0.514494  0.021851 -0.000000  0.075625  0.648867
  2H   1py       -0.166087  0.297043 -0.037847  0.000000  0.561543  0.075625
  3H   1s        -0.096683 -0.000001  0.183439  0.000000 -0.574856 -0.331894
  3H   2s         0.647070  0.000008 -0.896049  0.000000  1.431908  0.826713
  3H   3s         0.040514  0.000000  0.032800  0.000000 -0.722587 -0.417186
  3H   1pz       -0.000000  0.000000 -0.000000 -0.659019  0.000000  0.000000
  3H   1px       -0.373993 -0.514494  0.021851  0.000000 -0.075625  0.648867
  3H   1py        0.166087  0.297043  0.037847 -0.000000  0.561543 -0.075625
                     24        25        26        27        28        29   
                   2.24256   2.24256   2.60150   2.72949   2.72949   2.99540
                   0.00000   0.00000   0.00000   0.00000   0.00000   0.00000
                  --------  --------  --------  --------  --------  --------
  0C   1s        -0.000000  0.000000 -0.020674 -0.000000  0.000000 -0.000002
  0C   2s         0.000000 -0.000000 -0.005452 -0.000000  0.000000 -0.000007
  0C   1pz        0.000000  0.000000  0.000000 -0.000000  0.000000  0.000000
  0C   1px        0.000000 -0.000000  0.000001 -0.233433 -0.000000  0.906594
  0C   1py        0.000000  0.000000 -0.000000  0.000000 -0.233432 -0.000000
  0C   3s         0.000000  0.000000 -0.334225  0.000002 -0.000000  0.000052
  0C   2pz       -0.000000 -0.000000 -0.000000  0.000000 -0.000000 -0.000000
  0C   2px       -0.000000  0.000000 -0.000000 -1.855532 -0.000000 -0.843324
  0C   2py       -0.000000 -0.000000 -0.000000  0.000000 -1.855535  0.000000
  0C   4s         0.000000  0.000000 -0.175253 -0.000001 -0.000000  0.000053
  0C   3pz        0.000000 -0.000000  0.000000 -0.000000  0.000000  0.000000
  0C   3px        0.000000 -0.000000  0.000001 -0.763502 -0.000000  0.337947
  0C   3py        0.000000  0.000000 -0.000000  0.000000 -0.763503 -0.000000
  0C   1dz2      -0.000000 -0.000000 -0.356928  0.000000  0.000000 -0.000024
  0C   1dxz       1.029781  0.000000  0.000000 -0.000000  0.000000 -0.000000
  0C   1dyz       0.000000 -1.029781 -0.000000  0.000000  0.000000  0.000000
  0C   1dx2y2    -0.000000  0.000000  0.000001 -0.545947 -0.000000  0.844434
  0C   1dxy       0.000000  0.000000  0.000000 -0.000000  0.545945  0.000000
  1H   1s        -0.000000  0.000000 -0.895502 -0.353243 -0.000000 -0.670488
  1H   2s         0.000000 -0.000000  1.073285  2.283358  0.000000  0.591245
  1H   3s        -0.000000  0.000000 -0.297146 -0.086923 -0.000000 -0.550978
  1H   1pz       -0.838546 -0.000000 -0.000000 -0.000000 -0.000000  0.000000
  1H   1px       -0.000000  0.000000 -0.061433 -1.562415 -0.000000  0.252781
  1H   1py       -0.000000 -0.000000  0.000000 -0.000000  0.443453 -0.000000
  2H   1s        -0.000000 -0.000000 -0.895500  0.176621 -0.305917  0.335248
  2H   2s         0.000000  0.000000  1.073283 -1.141679  1.977447 -0.295681
  2H   3s        -0.000000 -0.000000 -0.297144  0.043461 -0.075277  0.275485
  2H   1pz        0.419273  0.726202 -0.000000 -0.000000  0.000000  0.000000
  2H   1px       -0.000000  0.000000  0.030717 -0.058014  0.868566  0.467722
  2H   1py       -0.000000  0.000000 -0.053203  0.868566 -1.060948  0.124145
  3H   1s         0.000000 -0.000000 -0.895500  0.176621  0.305917  0.335248
  3H   2s        -0.000000 -0.000000  1.073283 -1.141679 -1.977447 -0.295681
  3H   3s         0.000000 -0.000000 -0.297144  0.043461  0.075277  0.275485
  3H   1pz        0.419273 -0.726202 -0.000000 -0.000000  0.000000  0.000000
  3H   1px       -0.000000  0.000000  0.030717 -0.058014 -0.868566  0.467722
  3H   1py       -0.000000 -0.000000  0.053203 -0.868566 -1.060948 -0.124145
                     30        31        32        33        34        35   
                   2.99540   3.01481   3.04476   4.14199   4.14199  25.08033
                   0.00000   0.00000   0.00000   0.00000   0.00000   0.00000
                  --------  --------  --------  --------  --------  --------
  0C   1s         0.000000 -0.102241 -0.000000 -0.000000  0.000000 -2.039644
  0C   2s         0.000000 -0.273613 -0.000000 -0.000000  0.000000  2.235781
  0C   1pz       -0.000000 -0.000000  1.316395 -0.000000  0.000000 -0.000000
  0C   1px       -0.000000 -0.000023 -0.000000  1.111938 -0.000000 -0.000000
  0C   1py       -0.906594  0.000000 -0.000000 -0.000000 -1.111938 -0.000000
  0C   3s        -0.000000  2.061124  0.000000  0.000002 -0.000000 -0.746576
  0C   2pz        0.000000  0.000000 -1.506904  0.000000 -0.000000  0.000000
  0C   2px        0.000000  0.000021  0.000000 -3.378657  0.000000  0.000000
  0C   2py        0.843322 -0.000000  0.000000  0.000000  3.378660  0.000000
  0C   4s        -0.000000  2.125949  0.000000  0.000000 -0.000000  0.056452
  0C   3pz       -0.000000 -0.000000  0.472856  0.000000  0.000000  0.000000
  0C   3px       -0.000000 -0.000008 -0.000000  0.475849 -0.000000 -0.000000
  0C   3py       -0.337947  0.000000  0.000000 -0.000000 -0.475850  0.000000
  0C   1dz2       0.000000 -0.978390 -0.000000 -0.000000  0.000000  0.158520
  0C   1dxz       0.000000 -0.000000  0.000000  0.000000  0.000000 -0.000000
  0C   1dyz       0.000000  0.000000  0.000000  0.000000 -0.000000 -0.000000
  0C   1dx2y2    -0.000000 -0.000022 -0.000000 -1.529248  0.000000  0.000000
  0C   1dxy       0.844435 -0.000000  0.000000 -0.000000 -1.529247 -0.000000
  1H   1s         0.000000  0.061459  0.000000  0.977123 -0.000000  0.004510
  1H   2s        -0.000000 -1.514761 -0.000000  1.357547 -0.000000  0.259532
  1H   3s         0.000000 -0.126012 -0.000000 -0.482853  0.000000 -0.068248
  1H   1pz       -0.000000 -0.000000  0.168487 -0.000000  0.000000 -0.000000
  1H   1px       -0.000000  1.152662  0.000000 -1.408321  0.000000 -0.189940
  1H   1py       -0.539396  0.000000 -0.000000  0.000000  0.099890 -0.000000
  2H   1s         0.580662  0.061433  0.000000 -0.488562 -0.846214  0.004510
  2H   2s        -0.512065 -1.514739 -0.000000 -0.678774 -1.175671  0.259532
  2H   3s         0.477158 -0.126032 -0.000000  0.241427  0.418164 -0.068249
  2H   1pz       -0.000000 -0.000000  0.168488 -0.000000  0.000000 -0.000000
  2H   1px       -0.124120 -0.576346 -0.000000 -0.426998 -0.566567  0.094970
  2H   1py       -0.324415  0.998238  0.000000  0.566567  1.081214 -0.164493
  3H   1s        -0.580662  0.061433  0.000000 -0.488562  0.846214  0.004510
  3H   2s         0.512065 -1.514739 -0.000000 -0.678774  1.175671  0.259532
  3H   3s        -0.477158 -0.126032 -0.000000  0.241427 -0.418164 -0.068249
  3H   1pz        0.000000 -0.000000  0.168488  0.000000  0.000000 -0.000000
  3H   1px        0.124120 -0.576346 -0.000000 -0.426998  0.566567  0.094970
  3H   1py       -0.324415 -0.998238 -0.000000 -0.566567  1.081214  0.164493

                      0         1         2         3         4         5   
                 -11.20546  -0.85701  -0.56638  -0.56638   0.13570   0.17565
                   1.00000   1.00000   1.00000   1.00000   0.00000   0.00000
                  --------  --------  --------  --------  --------  --------
  0C   1s        -0.563768  0.100924  0.000000 -0.000000  0.000000  0.049537
  0C   2s        -0.466788  0.166543  0.000000 -0.000000  0.000000  0.078775
  0C   1pz        0.000000 -0.000000  0.000000  0.000000 -0.187446  0.000000
  0C   1px       -0.000000  0.000000  0.000000  0.188814 -0.000000 -0.000000
  0C   1py       -0.000000 -0.000000  0.188814 -0.000000  0.000000  0.000000
  0C   3s        -0.002387 -0.417029 -0.000000  0.000000 -0.000000 -0.071312
  0C   2pz       -0.000000  0.000000  0.000000  0.000000 -0.186474  0.000000
  0C   2px        0.000000  0.000000  0.000000  0.275885 -0.000000 -0.000000
  0C   2py       -0.000000 -0.000000  0.275885 -0.000000 -0.000000 -0.000000
  0C   4s        -0.000155 -0.247613 -0.000000  0.000000 -0.000000 -2.035848
  0C   3pz       -0.000000  0.000000  0.000000  0.000000 -0.770980  0.000000
  0C   3px       -0.000000  0.000000  0.000000  0.162808 -0.000000 -0.000000
  0C   3py       -0.000000 -0.000000  0.162808 -0.000000 -0.000000  0.000000
  0C   1dz2       0.000964  0.032588  0.000000 -0.000000  0.000000  0.016246
  0C   1dxz       0.000000  0.000000 -0.000000 -0.000000 -0.000000 -0.000000
  0C   1dyz       0.000000  0.000000  0.000000 -0.000000  0.000000 -0.000000
  0C   1dx2y2     0.000000  0.000000  0.000000  0.026106 -0.000000  0.000000
  0C   1dxy       0.000000  0.000000 -0.026106  0.000000  0.000000  0.000000
  1H   1s        -0.000351 -0.099304  0.000000  0.174096  0.000000  0.015771
  1H   2s         0.000070 -0.148538  0.000000  0.282178  0.000000 -0.060885
  1H   3s        -0.000059 -0.017722  0.000000  0.106424  0.000000  1.010212
  1H   1pz       -0.000000 -0.000000  0.000000  0.000000 -0.022211  0.000000
  1H   1px        0.000043  0.020304 -0.000000 -0.022962 -0.000000  0.001790
  1H   1py       -0.000000  0.000000  0.012404 -0.000000 -0.000000 -0.000000
  2H   1s        -0.000351 -0.099304  0.150772 -0.087048  0.000000  0.015771
  2H   2s         0.000070 -0.148538  0.244373 -0.141089  0.000000 -0.060885
  2H   3s        -0.000059 -0.017722  0.092166 -0.053212  0.000000  1.010211
  2H   1pz        0.000000 -0.000000  0.000000 -0.000000 -0.022211  0.000000
  2H   1px       -0.000021 -0.010152  0.015314  0.003563  0.000000 -0.000895
  2H   1py        0.000037  0.017584 -0.014120  0.015314 -0.000000  0.001550
  3H   1s        -0.000351 -0.099304 -0.150772 -0.087048  0.000000  0.015771
  3H   2s         0.000070 -0.148538 -0.244373 -0.141089 -0.000000 -0.060885
  3H   3s        -0.000059 -0.017722 -0.092166 -0.053212  0.000000  1.010211
  3H   1pz        0.000000 -0.000000  0.000000 -0.000000 -0.022211  0.000000
  3H   1px       -0.000021 -0.010152 -0.015314  0.003563 -0.000000 -0.000895
  3H   1py       -0.000037 -0.017584 -0.014120 -0.015314 -0.000000 -0.001550
                      6         7         8         9        10        11   
                   0.23451   0.23451   0.45409   0.45409   0.56209   0.71167
                   0.00000   0.00000   0.00000   0.00000   0.00000   0.00000
                  --------  --------  --------  --------  --------  --------
  0C   1s         0.000000  0.000000 -0.000000  0.000000 -0.032003 -0.000000
  0C   2s         0.000000  0.000000 -0.000000  0.000000 -0.057998 -0.000000
  0C   1pz        0.000000 -0.000000 -0.000000  0.000000 -0.000000  0.241086
  0C   1px        0.000000  0.135674 -0.010790  0.000000  0.000000 -0.000000
  0C   1py       -0.135673  0.000000 -0.000000 -0.010790  0.000000 -0.000000
  0C   3s        -0.000000  0.000000  0.000000 -0.000000 -0.016903  0.000000
  0C   2pz        0.000000  0.000000 -0.000000 -0.000000 -0.000000  1.013637
  0C   2px        0.000000  0.027040 -0.079777  0.000000 -0.000000 -0.000000
  0C   2py       -0.027040  0.000000 -0.000000 -0.079777  0.000000 -0.000000
  0C   4s        -0.000000 -0.000001  0.000002 -0.000000  2.250043 -0.000000
  0C   3pz        0.000000 -0.000000  0.000000  0.000000  0.000000 -1.045662
  0C   3px        0.000000  1.160010 -1.853608  0.000000  0.000001  0.000000
  0C   3py       -1.160010  0.000000 -0.000000 -1.853611 -0.000000  0.000000
  0C   1dz2      -0.000000 -0.000000 -0.000000  0.000000 -0.026417  0.000000
  0C   1dxz      -0.000000 -0.000000 -0.000000  0.000000 -0.000000 -0.000000
  0C   1dyz      -0.000000 -0.000000 -0.000000  0.000000 -0.000000  0.000000
  0C   1dx2y2    -0.000000 -0.035248 -0.050147  0.000000 -0.000000  0.000000
  0C   1dxy      -0.035248  0.000000  0.000000  0.050147 -0.000000  0.000000
  1H   1s        -0.000000 -0.003070  0.050055 -0.000000 -0.055996 -0.000000
  1H   2s         0.000000  0.241251  1.388879 -0.000000 -1.139699  0.000000
  1H   3s        -0.000001 -2.253183  0.230325 -0.000000  0.041157 -0.000000
  1H   1pz        0.000000 -0.000000 -0.000000  0.000000 -0.000000  0.045045
  1H   1px       -0.000000 -0.048413 -0.080784  0.000000  0.032029 -0.000000
  1H   1py       -0.000307  0.000000 -0.000000 -0.040961  0.000000 -0.000000
  2H   1s         0.002658  0.001535 -0.025027  0.043349 -0.055996 -0.000000
  2H   2s        -0.208929 -0.120625 -0.694440  1.202806 -1.139698 -0.000000
  2H   3s         1.951315  1.126592 -0.115163  0.199470  0.041157  0.000000
  2H   1pz        0.000000 -0.000000 -0.000000 -0.000000 -0.000000  0.045045
  2H   1px       -0.021096 -0.011873 -0.050917  0.017244 -0.016015  0.000000
  2H   1py        0.036233  0.021096  0.017244 -0.070828  0.027738 -0.000000
  3H   1s        -0.002658  0.001535 -0.025027 -0.043349 -0.055996 -0.000000
  3H   2s         0.208929 -0.120626 -0.694440 -1.202806 -1.139698 -0.000000
  3H   3s        -1.951314  1.126593 -0.115163 -0.199470  0.041157  0.000000
  3H   1pz       -0.000000 -0.000000  0.000000  0.000000 -0.000000  0.045045
  3H   1px        0.021096 -0.011873 -0.050917 -0.017244 -0.016015  0.000000
  3H   1py        0.036233 -0.021096 -0.017244 -0.070828 -0.027738  0.000000
                     12        13        14        15        16        17   
                   0.83290   0.83290   0.92042   1.33673   1.33673   1.64911
                   0.00000   0.00000   0.00000   0.00000   0.00000   0.00000
                  --------  --------  --------  --------  --------  --------
  0C   1s        -0.000000 -0.000000 -0.119766  0.000000  0.000000 -0.000000
  0C   2s        -0.000000 -0.000000 -0.248810 -0.000000  0.000000 -0.000000
  0C   1pz        0.000000 -0.000000 -0.000000  0.000000 -0.000000 -0.000000
  0C   1px        0.257928 -0.000000 -0.000000 -0.000000  0.000000 -0.000000
  0C   1py       -0.000000 -0.257928  0.000000 -0.000000  0.000000  0.064071
  0C   3s         0.000001  0.000000  1.837690  0.000000 -0.000000  0.000000
  0C   2pz        0.000000 -0.000000 -0.000000  0.000000  0.000000 -0.000000
  0C   2px        1.079062 -0.000000 -0.000001 -0.000000 -0.000000 -0.000000
  0C   2py       -0.000000 -1.079062  0.000000  0.000000  0.000000  0.134284
  0C   4s        -0.000003 -0.000000 -3.859723 -0.000000  0.000000  0.000000
  0C   3pz       -0.000000  0.000000  0.000000 -0.000000 -0.000000 -0.000000
  0C   3px       -1.683466  0.000000  0.000001  0.000000  0.000000 -0.000000
  0C   3py        0.000000  1.683466 -0.000000 -0.000000 -0.000000  1.210058
  0C   1dz2       0.000000  0.000000  0.117197 -0.000000 -0.000000 -0.000000
  0C   1dxz       0.000000  0.000000  0.000000  0.000000  0.519095 -0.000000
  0C   1dyz       0.000000  0.000000 -0.000000  0.519094 -0.000000 -0.000000
  0C   1dx2y2    -0.054576  0.000000  0.000000  0.000000  0.000000 -0.000000
  0C   1dxy      -0.000000 -0.054576  0.000000 -0.000000 -0.000000 -0.702829
  1H   1s        -0.047126  0.000000 -0.034763  0.000000  0.000000 -0.000000
  1H   2s        -0.607297  0.000000  0.136757 -0.000000 -0.000000  0.000000
  1H   3s         1.683835 -0.000000  0.872429 -0.000000 -0.000000  0.000000
  1H   1pz       -0.000000  0.000000  0.000000  0.000000  0.512544  0.000000
  1H   1px       -0.052737  0.000000 -0.176312 -0.000000 -0.000000  0.000000
  1H   1py       -0.000000 -0.059990  0.000000  0.000000  0.000000 -0.479737
  2H   1s         0.023563  0.040813 -0.034763 -0.000000  0.000000  0.170877
  2H   2s         0.303649  0.525935  0.136756  0.000000 -0.000000 -1.110632
  2H   3s        -0.841917 -1.458244  0.872431  0.000000  0.000000 -0.074201
  2H   1pz       -0.000000  0.000000  0.000000  0.443876 -0.256272  0.000000
  2H   1px        0.031808 -0.048812  0.088156  0.000000  0.000000 -0.167022
  2H   1py        0.048812  0.024555 -0.152691  0.000000 -0.000000 -0.190466
  3H   1s         0.023563 -0.040813 -0.034763 -0.000000 -0.000000 -0.170877
  3H   2s         0.303649 -0.525935  0.136756  0.000000  0.000000  1.110632
  3H   3s        -0.841917  1.458244  0.872431 -0.000000 -0.000000  0.074201
  3H   1pz       -0.000000 -0.000000  0.000000 -0.443876 -0.256272  0.000000
  3H   1px        0.031808  0.048812  0.088156 -0.000000 -0.000000  0.167022
  3H   1py       -0.048812  0.024555  0.152691  0.000000 -0.000000 -0.190466
                     18        19        20        21        22        23   
                   1.64911   1.66325   1.82970   1.93173   2.14715   2.14715
                   0.00000   0.00000   0.00000   0.00000   0.00000   0.00000
                  --------  --------  --------  --------  --------  --------
  0C   1s        -0.000000  0.000000 -0.016003 -0.000000 -0.000000 -0.000000
  0C   2s        -0.000000  0.000000 -0.028962 -0.000000 -0.000000 -0.000000
  0C   1pz       -0.000000  0.000000 -0.000000  0.174086 -0.000000  0.000000
  0C   1px       -0.064071  0.000000 -0.000000 -0.000000  0.000000  0.245827
  0C   1py       -0.000000  0.000001  0.000000 -0.000000 -0.245827  0.000000
  0C   3s         0.000001 -0.000000  0.221923  0.000000  0.000000  0.000002
  0C   2pz       -0.000000  0.000000 -0.000000  0.214391  0.000000 -0.000000
  0C   2px       -0.134283  0.000000  0.000001  0.000000 -0.000000 -0.885790
  0C   2py       -0.000000  0.000002 -0.000000  0.000000  0.885793 -0.000000
  0C   4s         0.000001  0.000000 -1.348455 -0.000000  0.000000  0.000001
  0C   3pz       -0.000000  0.000000 -0.000000  0.375288 -0.000000  0.000000
  0C   3px       -1.210055  0.000000 -0.000000 -0.000000  0.000000  0.315431
  0C   3py       -0.000000  0.000013  0.000000  0.000000 -0.315430  0.000000
  0C   1dz2      -0.000000  0.000000  1.024171  0.000000  0.000000  0.000000
  0C   1dxz       0.000000 -0.000000  0.000000  0.000000 -0.000000 -0.000000
  0C   1dyz       0.000000  0.000000  0.000000 -0.000000 -0.000000 -0.000000
  0C   1dx2y2    -0.702829  0.000000  0.000000 -0.000000 -0.000000 -0.942171
  0C   1dxy       0.000000 -0.000008  0.000000 -0.000000 -0.942172  0.000000
  1H   1s        -0.197312  0.000000 -0.213806  0.000000 -0.000000 -0.670068
  1H   2s         1.282446 -0.000000  0.876947  0.000000  0.000000  1.675291
  1H   3s         0.085678 -0.000000 -0.038301  0.000000 -0.000000 -0.836953
  1H   1pz        0.000000 -0.000000  0.000000 -0.659696  0.000000  0.000000
  1H   1px        0.094037 -0.000000  0.047946  0.000000 -0.000000 -0.522868
  1H   1py        0.000000 -0.594093 -0.000000  0.000000  0.684188 -0.000000
  2H   1s         0.098656  0.000002 -0.213806  0.000000  0.580297  0.335035
  2H   2s        -0.641224 -0.000012  0.876949 -0.000000 -1.450848 -0.837647
  2H   3s        -0.042839 -0.000001 -0.038301  0.000000  0.724822  0.418477
  2H   1pz        0.000000 -0.000000  0.000000 -0.659696  0.000000  0.000000
  2H   1px        0.383317  0.514494 -0.023972 -0.000000  0.069853 -0.643859
  2H   1py        0.167016  0.297042  0.041521  0.000000  0.563200 -0.069853
  3H   1s         0.098656 -0.000002 -0.213806 -0.000000 -0.580297  0.335035
  3H   2s        -0.641224  0.000012  0.876949  0.000000  1.450848 -0.837648
  3H   3s        -0.042839  0.000001 -0.038301  0.000000 -0.724822  0.418477
  3H   1pz        0.000000 -0.000000  0.000000 -0.659696 -0.000000 -0.000000
  3H   1px        0.383317 -0.514494 -0.023972  0.000000 -0.069853 -0.643859
  3H   1py       -0.167016  0.297042 -0.041521 -0.000000  0.563200  0.069853
                     24        25        26        27        28        29   
                   2.28203   2.28203   2.60229   2.73217   2.73217   3.00527
                   0.00000   0.00000   0.00000   0.00000   0.00000   0.00000
                  --------  --------  --------  --------  --------  --------
  0C   1s         0.000000  0.000000  0.018732 -0.000000  0.000000  0.000003
  0C   2s         0.000000 -0.000000  0.001456 -0.000000  0.000000  0.000007
  0C   1pz        0.000000 -0.000000 -0.000000  0.000000  0.000000  0.000000
  0C   1px       -0.000000 -0.000000 -0.000001 -0.227474 -0.000000 -0.903396
  0C   1py       -0.000000  0.000000  0.000000  0.000000 -0.227474  0.000000
  0C   3s         0.000000  0.000000  0.359248  0.000002 -0.000000 -0.000054
  0C   2pz       -0.000000 -0.000000  0.000000  0.000000 -0.000000 -0.000000
  0C   2px       -0.000000  0.000000  0.000000 -1.866942 -0.000000  0.799888
  0C   2py        0.000000 -0.000000  0.000000  0.000000 -1.866945 -0.000000
  0C   4s         0.000000  0.000000  0.164425 -0.000001 -0.000000 -0.000055
  0C   3pz        0.000000 -0.000000 -0.000000  0.000000  0.000000  0.000000
  0C   3px        0.000000 -0.000000 -0.000000 -0.758054 -0.000000 -0.341849
  0C   3py       -0.000000 -0.000000  0.000000  0.000000 -0.758055  0.000000
  0C   1dz2      -0.000000 -0.000000  0.385786  0.000000  0.000000  0.000025
  0C   1dxz       1.053965  0.000000 -0.000000  0.000000  0.000000 -0.000000
  0C   1dyz       0.000000 -1.053965  0.000000  0.000000  0.000000 -0.000000
  0C   1dx2y2    -0.000000  0.000000 -0.000001 -0.532044 -0.000000 -0.866221
  0C   1dxy      -0.000000  0.000000 -0.000000 -0.000000  0.532043 -0.000000
  1H   1s        -0.000000  0.000000  0.888502 -0.355047 -0.000000  0.667895
  1H   2s         0.000000 -0.000000 -1.066120  2.285398  0.000000 -0.550726
  1H   3s        -0.000000  0.000000  0.295699 -0.092508 -0.000000  0.542068
  1H   1pz       -0.816513 -0.000000  0.000000 -0.000000 -0.000000  0.000000
  1H   1px       -0.000000  0.000000  0.070519 -1.557739 -0.000000 -0.276352
  1H   1py        0.000000 -0.000000 -0.000000 -0.000000  0.450981  0.000000
  2H   1s         0.000000 -0.000000  0.888500  0.177523 -0.307479 -0.333952
  2H   2s        -0.000000  0.000000 -1.066118 -1.142699  1.979214  0.275424
  2H   3s         0.000000 -0.000000  0.295697  0.046254 -0.080114 -0.271030
  2H   1pz        0.408256  0.707121  0.000000 -0.000000 -0.000000 -0.000000
  2H   1px       -0.000000  0.000000 -0.035260 -0.051199  0.869801 -0.470430
  2H   1py        0.000000 -0.000000  0.061072  0.869801 -1.055559 -0.112103
  3H   1s        -0.000000  0.000000  0.888500  0.177523  0.307479 -0.333952
  3H   2s         0.000000 -0.000000 -1.066118 -1.142699 -1.979214  0.275424
  3H   3s        -0.000000  0.000000  0.295697  0.046254  0.080114 -0.271030
  3H   1pz        0.408256 -0.707121  0.000000  0.000000  0.000000 -0.000000
  3H   1px       -0.000000  0.000000 -0.035260 -0.051199 -0.869801 -0.470430
  3H   1py        0.000000 -0.000000 -0.061072 -0.869801 -1.055559  0.112103
                     30        31        32        33        34        35   
                   3.00527   3.02383   3.13200   4.16267   4.16267  25.09630
                   0.00000   0.00000   0.00000   0.00000   0.00000   0.00000
                  --------  --------  --------  --------  --------  --------
  0C   1s        -0.000000  0.102282 -0.000000  0.000000  0.000000 -2.039543
  0C   2s        -0.000000  0.275114 -0.000000  0.000000  0.000000  2.235823
  0C   1pz       -0.000000  0.000000  1.324521 -0.000000  0.000000 -0.000000
  0C   1px        0.000000  0.000024  0.000000 -1.115958 -0.000000 -0.000000
  0C   1py        0.903396 -0.000000  0.000000  0.000000 -1.115958 -0.000000
  0C   3s         0.000000 -2.067125  0.000000 -0.000002 -0.000000 -0.746023
  0C   2pz        0.000000 -0.000000 -1.483357  0.000000 -0.000000  0.000000
  0C   2px       -0.000000 -0.000021 -0.000000  3.385686  0.000000  0.000000
  0C   2py       -0.799886  0.000000 -0.000000 -0.000000  3.385689  0.000000
  0C   4s         0.000000 -2.116059  0.000000 -0.000000 -0.000000  0.056407
  0C   3pz       -0.000000  0.000000  0.459264 -0.000000 -0.000000  0.000000
  0C   3px        0.000000  0.000008  0.000000 -0.472389 -0.000000 -0.000000
  0C   3py        0.341849 -0.000000  0.000000  0.000000 -0.472390  0.000000
  0C   1dz2      -0.000000  0.988643 -0.000000  0.000000  0.000000  0.158151
  0C   1dxz       0.000000  0.000000  0.000000 -0.000000  0.000000 -0.000000
  0C   1dyz      -0.000000 -0.000000 -0.000000 -0.000000 -0.000000 -0.000000
  0C   1dx2y2     0.000000  0.000023  0.000000  1.527986  0.000000  0.000000
  0C   1dxy      -0.866221  0.000000 -0.000000  0.000000 -1.527985 -0.000000
  1H   1s        -0.000000 -0.057028  0.000000 -0.971448 -0.000000  0.004503
  1H   2s         0.000000  1.513512 -0.000000 -1.365361 -0.000000  0.259229
  1H   3s        -0.000000  0.123995 -0.000000  0.485059  0.000000 -0.068172
  1H   1pz       -0.000000  0.000000  0.161716  0.000000  0.000000 -0.000000
  1H   1px        0.000000 -1.150969  0.000000  1.406428  0.000000 -0.189716
  1H   1py        0.535152 -0.000000  0.000000 -0.000000  0.096624 -0.000000
  2H   1s        -0.578416 -0.057001  0.000000  0.485725 -0.841300  0.004503
  2H   2s         0.476976  1.513491 -0.000000  0.682681 -1.182438  0.259230
  2H   3s        -0.469442  0.124016 -0.000000 -0.242530  0.420074 -0.068173
  2H   1pz       -0.000000  0.000000  0.161716  0.000000  0.000000 -0.000000
  2H   1px        0.112076  0.575501 -0.000000  0.424075 -0.567161  0.094858
  2H   1py        0.341031 -0.996772  0.000000 -0.567162  1.078978 -0.164299
  3H   1s         0.578416 -0.057001  0.000000  0.485725  0.841300  0.004503
  3H   2s        -0.476976  1.513491 -0.000000  0.682681  1.182438  0.259230
  3H   3s         0.469442  0.124016 -0.000000 -0.242530 -0.420074 -0.068173
  3H   1pz       -0.000000  0.000000  0.161716 -0.000000  0.000000 -0.000000
  3H   1px       -0.112076  0.575501 -0.000000  0.424075  0.567162  0.094858
  3H   1py        0.341031  0.996772 -0.000000  0.567162  1.078978  0.164299



                    ********************************
                    * MULLIKEN POPULATION ANALYSIS *
                    ********************************

--------------------------------------------
MULLIKEN ATOMIC CHARGES AND SPIN POPULATIONS
--------------------------------------------
   0 C :   -0.336834    1.274717
   1 H :    0.112278   -0.091572
   2 H :    0.112278   -0.091572
   3 H :    0.112278   -0.091572
Sum of atomic charges         :    0.0000000
Sum of atomic spin populations:    1.0000000

-----------------------------------------------------
MULLIKEN REDUCED ORBITAL CHARGES AND SPIN POPULATIONS
-----------------------------------------------------
CHARGE
  0 C s       :     3.273488  s :     3.273488
      pz      :     0.982842  p :     3.034222
      px      :     1.025690
      py      :     1.025690
      dz2     :     0.004796  d :     0.029124
      dxz     :     0.000000
      dyz     :    -0.000000
      dx2y2   :     0.012164
      dxy     :     0.012164
  1 H s       :     0.860312  s :     0.860312
      pz      :     0.005719  p :     0.027410
      px      :     0.017393
      py      :     0.004298
  2 H s       :     0.860312  s :     0.860312
      pz      :     0.005719  p :     0.027410
      px      :     0.007571
      py      :     0.014119
  3 H s       :     0.860312  s :     0.860312
      pz      :     0.005719  p :     0.027410
      px      :     0.007571
      py      :     0.014119

SPIN
  0 C s       :     0.146287  s :     0.146287
      pz      :     0.982842  p :     1.133230
      px      :     0.075194
      py      :     0.075194
      dz2     :    -0.005768  d :    -0.004799
      dxz     :     0.000000
      dyz     :     0.000000
      dx2y2   :     0.000484
      dxy     :     0.000484
  1 H s       :    -0.097050  s :    -0.097050
      pz      :     0.005719  p :     0.005478
      px      :     0.000007
      py      :    -0.000248
  2 H s       :    -0.097050  s :    -0.097050
      pz      :     0.005719  p :     0.005478
      px      :    -0.000184
      py      :    -0.000057
  3 H s       :    -0.097050  s :    -0.097050
      pz      :     0.005719  p :     0.005478
      px      :    -0.000184
      py      :    -0.000057


                     *******************************
                     * LOEWDIN POPULATION ANALYSIS *
                     *******************************

-------------------------------------------
LOEWDIN ATOMIC CHARGES AND SPIN POPULATIONS
-------------------------------------------
   0 C :    0.038911    1.045518
   1 H :   -0.012970   -0.015173
   2 H :   -0.012970   -0.015173
   3 H :   -0.012970   -0.015173

----------------------------------------------------
LOEWDIN REDUCED ORBITAL CHARGES AND SPIN POPULATIONS
----------------------------------------------------
CHARGE
  0 C s       :     2.857865  s :     2.857865
      pz      :     0.939099  p :     3.054633
      px      :     1.057767
      py      :     1.057767
      dz2     :     0.004414  d :     0.048592
      dxz     :     0.000000
      dyz     :     0.000000
      dx2y2   :     0.022089
      dxy     :     0.022089
  1 H s       :     0.934206  s :     0.934206
      pz      :     0.020300  p :     0.078764
      px      :     0.046749
      py      :     0.011714
  2 H s       :     0.934207  s :     0.934207
      pz      :     0.020300  p :     0.078764
      px      :     0.020473
      py      :     0.037990
  3 H s       :     0.934207  s :     0.934207
      pz      :     0.020300  p :     0.078764
      px      :     0.020473
      py      :     0.037990

SPIN
  0 C s       :     0.050306  s :     0.050306
      pz      :     0.939099  p :     1.004153
      px      :     0.032527
      py      :     0.032527
      dz2     :    -0.004229  d :    -0.008941
      dxz     :     0.000000
      dyz     :    -0.000000
      dx2y2   :    -0.002356
      dxy     :    -0.002356
  1 H s       :    -0.042858  s :    -0.042858
      pz      :     0.020300  p :     0.027685
      px      :     0.006575
      py      :     0.000810
  2 H s       :    -0.042858  s :    -0.042858
      pz      :     0.020300  p :     0.027685
      px      :     0.002251
      py      :     0.005134
  3 H s       :    -0.042858  s :    -0.042858
      pz      :     0.020300  p :     0.027685
      px      :     0.002251
      py      :     0.005134


                      *****************************
                      * MAYER POPULATION ANALYSIS *
                      *****************************

  NA   - Mulliken gross atomic population
  ZA   - Total nuclear charge
  QA   - Mulliken gross atomic charge
  VA   - Mayer's total valence
  BVA  - Mayer's bonded valence
  FA   - Mayer's free valence

  ATOM       NA         ZA         QA         VA         BVA        FA
  0 C      6.3368     6.0000    -0.3368     3.9205     2.9221     0.9984
  1 H      0.8877     1.0000     0.1123     0.9716     0.9622     0.0094
  2 H      0.8877     1.0000     0.1123     0.9716     0.9622     0.0094
  3 H      0.8877     1.0000     0.1123     0.9716     0.9622     0.0094

  Mayer bond orders larger than 0.100000
B(  0-C ,  1-H ) :   0.9740 B(  0-C ,  2-H ) :   0.9740 B(  0-C ,  3-H ) :   0.9740 


Now starting NBO....

 *********************************** NBO 7.0 ***********************************
             N A T U R A L   A T O M I C   O R B I T A L   A N D
          N A T U R A L   B O N D   O R B I T A L   A N A L Y S I S
 *********************** Giovanni  F. Caramori (I101916) ***********************
  (c) Copyright 1996-2020 Board of Regents of the University of Wisconsin System
      on behalf of the Theoretical Chemistry Institute.  All rights reserved.

          Cite this program [NBO 7.0.8 (11-Feb-2020)] as:

          NBO 7.0.  E. D. Glendening, J. K. Badenhoop, A. E. Reed,
          J. E. Carpenter, J. A. Bohmann, C. M. Morales, P. Karafiloglou,
          C. R. Landis, and F. Weinhold, Theoretical Chemistry Institute,
          University of Wisconsin, Madison, WI (2018)

       /NPA    / : Natural Population Analysis
       /NBO    / : Natural Bond Orbital Analysis
       /AONBO  / : Checkpoint the AO to NBO transformation
       /ARCHIVE/ : Write the archive file to lfn47

 Job title: ORCA Job: CH3·


 NATURAL POPULATIONS:  Natural atomic orbital occupancies

  NAO Atom No lang   Type(AO)    Occupancy     Spin
 -----------------------------------------------------
   1    C  1  s      Cor( 1s)     2.00000     0.00000
   2    C  1  s      Val( 2s)     1.17785     0.07826
   3    C  1  s      Ryd( 3s)     0.00009    -0.00001
   4    C  1  s      Ryd( 4s)     0.00000     0.00000
   5    C  1  px     Val( 2p)     1.10787     0.04075
   6    C  1  px     Ryd( 3p)     0.00089     0.00012
   7    C  1  px     Ryd( 4p)     0.00000     0.00000
   8    C  1  py     Val( 2p)     1.10787     0.04075
   9    C  1  py     Ryd( 3p)     0.00089     0.00012
  10    C  1  py     Ryd( 4p)     0.00000     0.00000
  11    C  1  pz     Val( 2p)     0.99563     0.99563
  12    C  1  pz     Ryd( 3p)     0.00395     0.00395
  13    C  1  pz     Ryd( 4p)     0.00000     0.00000
  14    C  1  dxy    Ryd( 3d)     0.00350     0.00015
  15    C  1  dxz    Ryd( 3d)     0.00000     0.00000
  16    C  1  dyz    Ryd( 3d)     0.00000     0.00000
  17    C  1  dx2y2  Ryd( 3d)     0.00350     0.00015
  18    C  1  dz2    Ryd( 3d)     0.00215    -0.00186

  19    H  2  s      Val( 1s)     0.86391    -0.05267
  20    H  2  s      Ryd( 2s)     0.00047     0.00000
  21    H  2  s      Ryd( 3s)     0.00001     0.00000
  22    H  2  px     Ryd( 2p)     0.00074    -0.00014
  23    H  2  py     Ryd( 2p)     0.00000     0.00000
  24    H  2  pz     Ryd( 2p)     0.00014     0.00014

  25    H  3  s      Val( 1s)     0.86391    -0.05267
  26    H  3  s      Ryd( 2s)     0.00047     0.00000
  27    H  3  s      Ryd( 3s)     0.00001     0.00000
  28    H  3  px     Ryd( 2p)     0.00019    -0.00003
  29    H  3  py     Ryd( 2p)     0.00055    -0.00011
  30    H  3  pz     Ryd( 2p)     0.00014     0.00014

  31    H  4  s      Val( 1s)     0.86391    -0.05267
  32    H  4  s      Ryd( 2s)     0.00047     0.00000
  33    H  4  s      Ryd( 3s)     0.00001     0.00000
  34    H  4  px     Ryd( 2p)     0.00019    -0.00003
  35    H  4  py     Ryd( 2p)     0.00055    -0.00011
  36    H  4  pz     Ryd( 2p)     0.00014     0.00014


 Summary of Natural Population Analysis:

                                     Natural Population                 Natural
             Natural    ---------------------------------------------    Spin
  Atom No    Charge        Core      Valence    Rydberg      Total      Density
 -------------------------------------------------------------------------------
    C  1   -0.40420      2.00000     4.38922    0.01498     6.40420     1.15801
    H  2    0.13473      0.00000     0.86391    0.00135     0.86527    -0.05267
    H  3    0.13473      0.00000     0.86391    0.00135     0.86527    -0.05267
    H  4    0.13473      0.00000     0.86391    0.00135     0.86527    -0.05267
 ===============================================================================
 * Total *  0.00000      2.00000     6.98096    0.01904     9.00000     1.00000

                                 Natural Population
 ---------------------------------------------------------
   Core                       2.00000 ( 99.9999% of    2)
   Valence                    6.98096 ( 99.7280% of    7)
   Natural Minimal Basis      8.98096 ( 99.7884% of    9)
   Natural Rydberg Basis      0.01904 (  0.2116% of    9)
 ---------------------------------------------------------

    Atom No         Natural Electron Configuration
 ----------------------------------------------------------------------------
      C  1      [core]2s( 1.18)2p( 3.21)3p( 0.01)3d( 0.01)
      H  2            1s( 0.86)
      H  3            1s( 0.86)
      H  4            1s( 0.86)


 ***************************************************
 *******         Alpha spin orbitals         *******
 ***************************************************


 NATURAL POPULATIONS:  Natural atomic orbital occupancies

  NAO Atom No lang   Type(AO)    Occupancy      Energy
 -------------------------------------------------------
   1    C  1  s      Cor( 1s)     1.00000     -11.22888
   2    C  1  s      Val( 2s)     0.62805      -0.36269
   3    C  1  s      Ryd( 3s)     0.00004       1.17783
   4    C  1  s      Ryd( 4s)     0.00000      24.50916
   5    C  1  px     Val( 2p)     0.57431      -0.05625
   6    C  1  px     Ryd( 3p)     0.00050       0.82434
   7    C  1  px     Ryd( 4p)     0.00000       3.69115
   8    C  1  py     Val( 2p)     0.57431      -0.05625
   9    C  1  py     Ryd( 3p)     0.00050       0.82434
  10    C  1  py     Ryd( 4p)     0.00000       3.69115
  11    C  1  pz     Val( 2p)     0.99563      -0.37921
  12    C  1  pz     Ryd( 3p)     0.00395       0.58059
  13    C  1  pz     Ryd( 4p)     0.00000       3.02555
  14    C  1  dxy    Ryd( 3d)     0.00183       2.26858
  15    C  1  dxz    Ryd( 3d)     0.00000       1.68999
  16    C  1  dyz    Ryd( 3d)     0.00000       1.68999
  17    C  1  dx2y2  Ryd( 3d)     0.00183       2.26858
  18    C  1  dz2    Ryd( 3d)     0.00014       1.92148

  19    H  2  s      Val( 1s)     0.40562       0.11080
  20    H  2  s      Ryd( 2s)     0.00023       0.46520
  21    H  2  s      Ryd( 3s)     0.00000       2.35833
  22    H  2  px     Ryd( 2p)     0.00030       2.76282
  23    H  2  py     Ryd( 2p)     0.00000       2.02634
  24    H  2  pz     Ryd( 2p)     0.00014       1.86077

  25    H  3  s      Val( 1s)     0.40562       0.11080
  26    H  3  s      Ryd( 2s)     0.00023       0.46520
  27    H  3  s      Ryd( 3s)     0.00000       2.35833
  28    H  3  px     Ryd( 2p)     0.00008       2.21046
  29    H  3  py     Ryd( 2p)     0.00022       2.57870
  30    H  3  pz     Ryd( 2p)     0.00014       1.86077

  31    H  4  s      Val( 1s)     0.40562       0.11080
  32    H  4  s      Ryd( 2s)     0.00023       0.46520
  33    H  4  s      Ryd( 3s)     0.00000       2.35833
  34    H  4  px     Ryd( 2p)     0.00008       2.21046
  35    H  4  py     Ryd( 2p)     0.00022       2.57870
  36    H  4  pz     Ryd( 2p)     0.00014       1.86077


 Summary of Natural Population Analysis:

                                     Natural Population
             Natural    ---------------------------------------------
  Atom No    Charge        Core      Valence    Rydberg      Total
 --------------------------------------------------------------------
    C  1   -0.78111      1.00000     2.77230    0.00880     3.78111
    H  2    0.09370      0.00000     0.40562    0.00068     0.40630
    H  3    0.09370      0.00000     0.40562    0.00068     0.40630
    H  4    0.09370      0.00000     0.40562    0.00068     0.40630
 ====================================================================
 * Total * -0.50000      1.00000     3.98916    0.01084     5.00000

                                 Natural Population
 ---------------------------------------------------------
   Core                       1.00000 ( 99.9999% of    1)
   Valence                    3.98916 ( 99.7290% of    4)
   Natural Minimal Basis      4.98916 ( 99.7832% of    5)
   Natural Rydberg Basis      0.01084 (  0.2168% of    5)
 ---------------------------------------------------------

    Atom No         Natural Electron Configuration
 ----------------------------------------------------------------------------
      C  1      [core]2s( 0.63)2p( 2.14)
      H  2            1s( 0.41)
      H  3            1s( 0.41)
      H  4            1s( 0.41)


 NATURAL BOND ORBITAL ANALYSIS, alpha spin orbitals:

                            Occupancies       Lewis Structure    Low   High
         Max    Occ     -------------------  -----------------   occ   occ
  Cycle  Ctr   Thresh    Lewis   non-Lewis     CR  BD  nC  LP    (L)   (NL)
 ============================================================================
    1     2     0.95     4.99700   0.00300      1   3   0   1     0      0
 ----------------------------------------------------------------------------

 Structure accepted: No low occupancy Lewis orbitals

 -------------------------------------------------------
   Core                      1.00000 (100.000% of   1)
   Valence Lewis             3.99700 ( 99.925% of   4)
  ==================      =============================
   Total Lewis               4.99700 ( 99.940% of   5)
  -----------------------------------------------------
   Valence non-Lewis         0.00187 (  0.037% of   5)
   Rydberg non-Lewis         0.00113 (  0.023% of   5)
  ==================      =============================
   Total non-Lewis           0.00300 (  0.060% of   5)
 -------------------------------------------------------


     (Occupancy)   Bond orbital / Coefficients / Hybrids
 ------------------ Lewis ------------------------------------------------------
   1. (1.00000) CR ( 1) C  1            s(100.00%)
                                         1.0000  0.0000  0.0000  0.0000  0.0000
                                         0.0000  0.0000  0.0000  0.0000  0.0000
                                         0.0000  0.0000  0.0000  0.0000  0.0000
                                         0.0000  0.0000  0.0000
   2. (0.99958) LP ( 1) C  1            s(  0.00%)p 1.00(100.00%)
                                         0.0000  0.0000  0.0000  0.0000  0.0000
                                         0.0000  0.0000  0.0000  0.0000  0.0000
                                         0.9980 -0.0628  0.0000  0.0000  0.0000
                                         0.0000  0.0000  0.0000
   3. (0.99914) BD ( 1) C  1- H  2
               ( 59.41%)   0.7708* C  1 s( 33.33%)p 1.99( 66.46%)d 0.01(  0.22%)
                                         0.0000  0.5773 -0.0048  0.0000  0.8148
                                         0.0242  0.0011  0.0000  0.0000  0.0000
                                         0.0000  0.0000  0.0000  0.0000  0.0000
                                         0.0000  0.0460 -0.0087
               ( 40.59%)   0.6371* H  2 s( 99.93%)p 0.00(  0.07%)
                                         0.9996 -0.0083 -0.0032 -0.0267  0.0000
                                         0.0000
   4. (0.99914) BD ( 1) C  1- H  3
               ( 59.41%)   0.7708* C  1 s( 33.33%)p 1.99( 66.46%)d 0.01(  0.22%)
[...]
  32. (0.00128) RY ( 1) H  4            s( 86.14%)p 0.16( 13.86%)
                                         0.0075  0.9276 -0.0291 -0.1862 -0.3225
                                         0.0000
  33. (0.00049) RY ( 2) H  4            s(  0.00%)p 1.00(100.00%)
                                         0.0000  0.0000  0.0000  0.8660 -0.5000
                                         0.0000
  34. (0.00048) RY ( 3) H  4            s(  0.00%)p 1.00(100.00%)
                                         0.0000  0.0000  0.0000  0.0000  0.0000
                                         1.0000
  35. (0.00025) RY ( 4) H  4            s( 82.60%)p 0.21( 17.40%)
                                        -0.0104  0.1954  0.8875  0.2086  0.3613
                                         0.0000
  36. (0.00010) RY ( 5) H  4            s( 31.35%)p 2.19( 68.65%)


 NHO DIRECTIONALITY AND BOND BENDING (deviation from line of nuclear centers at
                                      the position of maximum hybrid amplitude)

         [Thresholds for printing:  angular deviation  >  1.0 degree]
                                    p- or d-character  > 25.0%
                                    orbital occupancy  >  0.10e

                        Line of Centers        Hybrid 1             Hybrid 2
                        ---------------  -------------------  ------------------
           NBO            Theta   Phi    Theta   Phi    Dev   Theta   Phi    Dev
 ===============================================================================
    None exceeding thresholds


 NATURAL BOND ORBITALS (Summary):

           NBO                 Occupancy
 ========================================
 Molecular unit  1  (CH3)
 ------ Lewis ---------------------------
    1. CR ( 1) C  1             0.99960
    2. BD ( 1) C  1- H  2       0.98679
    3. BD ( 1) C  1- H  3       0.98679
    4. BD ( 1) C  1- H  4       0.98679
 ------ non-Lewis -----------------------
    5. LV ( 1) C  1             0.00312
    6. BD*( 1) C  1- H  2       0.00597
    7. BD*( 1) C  1- H  3       0.00597
    8. BD*( 1) C  1- H  4       0.00597
    9. RY ( 1) C  1             0.00283
   10. RY ( 2) C  1             0.00283
   11. RY ( 3) C  1             0.00144
   12. RY ( 4) C  1             0.00099
   13. RY ( 5) C  1             0.00099
   14. RY ( 6) C  1             0.00065
   15. RY ( 7) C  1             0.00065
   16. RY ( 8) C  1             0.00024
   17. RY ( 9) C  1             0.00018
   18. RY (10) C  1             0.00015
   19. RY (11) C  1             0.00013
   20. RY (12) C  1             0.00013
   21. RY (13) C  1             0.00004
   22. RY ( 1) H  2             0.00128
   23. RY ( 2) H  2             0.00049
   24. RY ( 3) H  2             0.00048
   25. RY ( 4) H  2             0.00025
   26. RY ( 5) H  2             0.00010
   27. RY ( 1) H  3             0.00128
   28. RY ( 2) H  3             0.00049
   29. RY ( 3) H  3             0.00048
   30. RY ( 4) H  3             0.00025
   31. RY ( 5) H  3             0.00010
   32. RY ( 1) H  4             0.00128
   33. RY ( 2) H  4             0.00049
   34. RY ( 3) H  4             0.00048
   35. RY ( 4) H  4             0.00025
   36. RY ( 5) H  4             0.00010
          -------------------------------
                 Total Lewis    3.95997  ( 98.9992%)
           Valence non-Lewis    0.02103  (  0.5257%)
           Rydberg non-Lewis    0.01900  (  0.4751%)
          -------------------------------
               Total unit  1    4.00000  (100.0000%)
              Charge unit  1    0.50000

 $CHOOSE
  ALPHA
   LONE 1 1 END
   BOND S 1 2 S 1 3 S 1 4 END
  END
  BETA
   BOND S 1 2 S 1 3 S 1 4 END
  END
 $END

 NBO analysis completed in 0.07 CPU seconds (0 wall seconds)
 Maximum scratch memory used by NBO was 276887 words (2.11 MB)
Stopping NBO...Storing NBOs: CH3·.pmp2re.nbo

                                *** returned from   NBO  program ***


----------------------------------
MP2 DERIVATIVE INTEGRAL GENERATION
----------------------------------


Input Wavefunction Amplitudes       ... CH3·.mp2tbb.tmp
Input Correlated Electron Density   ... CH3·.pmp2re
Input Energy Weighted Density       ... CH3·.wmp2.tmp
Input SCF Electron Density          ... CH3·.scfp

One-Electron Terms    ...
                        ... One-Electron Terms done
Prescreening matrices              ... done

Batch handling in the gradient evaluation:
Memory available                      ... 3000.0 MB
Memory per occupied orbital in Q2     ...    0.1 MB
Memory per occupied orbital in Q3     ...    0.0 MB
Total memory requirement per |i>      ...    0.1 MB
Max. Number of orbitals possible      ...  31297
Number of orbitals treated per batch  ...      9
Number of batches to be done          ...      1
Batch   0: i=    0 ...     8

---------------------------------------
MP2 TOTAL ENERGY:      -39.725672325 Eh
---------------------------------------

-----------------------------------
NORM OF THE MP2 GRADIENT:  0.000003
-----------------------------------

-------------------------   --------------------
FINAL SINGLE POINT ENERGY       -39.725672324720
-------------------------   --------------------

                                *** OPTIMIZATION RUN DONE ***

                            ***************************************
                            *     ORCA property calculations      *
                            ***************************************

                                    ---------------------
                                    Active property flags
                                    ---------------------
   (+) Dipole Moment


------------------------------------------------------------------------------
                       ORCA ELECTRIC PROPERTIES CALCULATION
------------------------------------------------------------------------------

Dipole Moment Calculation                       ... on
Quadrupole Moment Calculation                   ... off
Polarizability Calculation                      ... off
GBWName                                         ... CH3·.gbw
Electron density file                           ... CH3·.scfp
The origin for moment calculation is the CENTER OF MASS  = ( 0.000000, -0.000000  0.000000)

-------------
DIPOLE MOMENT
-------------
                                X             Y             Z
Electronic contribution:     -0.00000      -0.00000       0.00000
Nuclear contribution   :      0.00000       0.00000      -0.00000
                        -----------------------------------------
Total Dipole Moment    :      0.00000      -0.00000      -0.00000
                        -----------------------------------------
Magnitude (a.u.)       :      0.00000
Magnitude (Debye)      :      0.00000



--------------------
Rotational spectrum 
--------------------
 
Rotational constants in cm-1:     9.579373     9.579369     4.789686 
Rotational constants in MHz : 287182.367689 287182.269108 143591.159199 

 Dipole components along the rotational axes: 
x,y,z [a.u.] :    -0.000000    -0.000000    -0.000000 
x,y,z [Debye]:    -0.000000    -0.000000    -0.000000 

 

                         *** MP2 UNRELAXED DENSITY ***

------------------------------------------------------------------------------
                       ORCA ELECTRIC PROPERTIES CALCULATION
------------------------------------------------------------------------------

Dipole Moment Calculation                       ... on
Quadrupole Moment Calculation                   ... off
Polarizability Calculation                      ... off
GBWName                                         ... CH3·.gbw
Electron density file                           ... CH3·.pmp2ur
The origin for moment calculation is the CENTER OF MASS  = ( 0.000000, -0.000000  0.000000)

-------------
DIPOLE MOMENT
-------------
                                X             Y             Z
Electronic contribution:     -0.00000      -0.00000       0.00000
Nuclear contribution   :      0.00000       0.00000      -0.00000
                        -----------------------------------------
Total Dipole Moment    :      0.00000      -0.00000      -0.00000
                        -----------------------------------------
Magnitude (a.u.)       :      0.00000
Magnitude (Debye)      :      0.00000



--------------------
Rotational spectrum 
--------------------
 
Rotational constants in cm-1:     9.579373     9.579369     4.789686 
Rotational constants in MHz : 287182.367689 287182.269108 143591.159199 

 Dipole components along the rotational axes: 
x,y,z [a.u.] :    -0.000000    -0.000000    -0.000000 
x,y,z [Debye]:    -0.000000    -0.000000    -0.000000 

 

                           *** MP2 RELAXED DENSITY ***

------------------------------------------------------------------------------
                       ORCA ELECTRIC PROPERTIES CALCULATION
------------------------------------------------------------------------------

Dipole Moment Calculation                       ... on
Quadrupole Moment Calculation                   ... off
Polarizability Calculation                      ... off
GBWName                                         ... CH3·.gbw
Electron density file                           ... CH3·.pmp2re
The origin for moment calculation is the CENTER OF MASS  = ( 0.000000, -0.000000  0.000000)

-------------
DIPOLE MOMENT
-------------
                                X             Y             Z
Electronic contribution:     -0.00000      -0.00000       0.00000
Nuclear contribution   :      0.00000       0.00000      -0.00000
                        -----------------------------------------
Total Dipole Moment    :      0.00000      -0.00000      -0.00000
                        -----------------------------------------
Magnitude (a.u.)       :      0.00000
Magnitude (Debye)      :      0.00000



--------------------
Rotational spectrum 
--------------------
 
Rotational constants in cm-1:     9.579373     9.579369     4.789686 
Rotational constants in MHz : 287182.367689 287182.269108 143591.159199 

 Dipole components along the rotational axes: 
x,y,z [a.u.] :    -0.000000    -0.000000    -0.000000 
x,y,z [Debye]:    -0.000000    -0.000000    -0.000000 

 
------------------------------------------------------------------------------
                         ORCA MP2 H E S S I A N CALCULATION
------------------------------------------------------------------------------

Calculating analytic MP2 second derivatives ... (>CH3·.last_mp2) done

-----------------------
VIBRATIONAL FREQUENCIES
-----------------------

Scaling factor for frequencies =  1.000000000  (already applied!)

   0:         0.00 cm**-1
   1:         0.00 cm**-1
   2:         0.00 cm**-1
   3:         0.00 cm**-1
   4:         0.00 cm**-1
   5:         0.00 cm**-1
   6:       423.04 cm**-1
   7:      1446.44 cm**-1
   8:      1446.46 cm**-1
   9:      3178.95 cm**-1
  10:      3371.77 cm**-1
  11:      3371.79 cm**-1


------------
NORMAL MODES
------------

These modes are the Cartesian displacements weighted by the diagonal matrix
M(i,i)=1/sqrt(m[i]) where m[i] is the mass of the displaced atom
Thus, these vectors are normalized but *not* orthogonal

                  0          1          2          3          4          5    
      0       0.000000   0.000000   0.000000   0.000000   0.000000   0.000000
      1       0.000000   0.000000   0.000000   0.000000   0.000000   0.000000
      2       0.000000   0.000000   0.000000   0.000000   0.000000   0.000000
      3       0.000000   0.000000   0.000000   0.000000   0.000000   0.000000
      4       0.000000   0.000000   0.000000   0.000000   0.000000   0.000000
      5       0.000000   0.000000   0.000000   0.000000   0.000000   0.000000
      6       0.000000   0.000000   0.000000   0.000000   0.000000   0.000000
      7       0.000000   0.000000   0.000000   0.000000   0.000000   0.000000
      8       0.000000   0.000000   0.000000   0.000000   0.000000   0.000000
      9       0.000000   0.000000   0.000000   0.000000   0.000000   0.000000
     10       0.000000   0.000000   0.000000   0.000000   0.000000   0.000000
     11       0.000000   0.000000   0.000000   0.000000   0.000000   0.000000
                  6          7          8          9         10         11    
      0      -0.000000  -0.092531  -0.000000   0.000004  -0.000000   0.100206
      1      -0.000000  -0.000000   0.092529   0.000000   0.100208   0.000000
      2       0.143847  -0.000000   0.000000   0.000000   0.000000  -0.000000
      3      -0.000000  -0.074525  -0.000000   0.577316   0.000001  -0.812252
      4       0.000000   0.000001  -0.809569   0.000000   0.016195   0.000000
      5      -0.571346  -0.000000  -0.000000  -0.000000  -0.000000   0.000000
      6       0.000000   0.588546  -0.382830  -0.288684   0.358717  -0.190885
      7      -0.000000   0.382826  -0.146486   0.500014  -0.605120   0.358700
      8      -0.571346   0.000000   0.000000  -0.000000   0.000000  -0.000000
      9       0.000000   0.588545   0.382832  -0.288684  -0.358716  -0.190885
     10       0.000000  -0.382826  -0.146487  -0.500014  -0.605120  -0.358701
     11      -0.571346   0.000000  -0.000000  -0.000000  -0.000000  -0.000000


-----------
IR SPECTRUM
-----------

 Mode    freq (cm**-1)   T**2         TX         TY         TZ
-------------------------------------------------------------------
   6:       423.04   82.603682  (  0.000000   0.000000  -9.088657)
   7:      1446.44    3.031752  (  1.741193   0.000003  -0.000000)
   8:      1446.46    3.020801  (  0.000003  -1.738045  -0.000000)
   9:      3178.95    0.000000  ( -0.000430  -0.000000  -0.000000)
  10:      3371.77    4.116829  ( -0.000002   2.028997   0.000000)
  11:      3371.79    4.120772  (  2.029969   0.000002   0.000000)

The first frequency considered to be a vibration is 6
The total number of vibrations considered is 6


--------------------------
THERMOCHEMISTRY AT 298.15K
--------------------------

Temperature         ... 298.15 K
Pressure            ... 1.00 atm
Total Mass          ... 15.03 AMU

Throughout the following assumptions are being made:
  (1) The electronic state is orbitally nondegenerate
      but the spin degeneracy is treated
  (2) There are no thermally accessible electronically excited states
  (3) Hindered rotations indicated by low frequency modes are not
      treated as such but are treated as vibrations and this may
      cause some error
  (4) All equations used are the standard statistical mechanics
      equations for an ideal gas
  (5) All vibrations are strictly harmonic

freq.     423.04  E(vib)   ...       0.18 
freq.    1446.44  E(vib)   ...       0.00 
freq.    1446.46  E(vib)   ...       0.00 
freq.    3178.95  E(vib)   ...       0.00 
freq.    3371.77  E(vib)   ...       0.00 
freq.    3371.79  E(vib)   ...       0.00 

------------
INNER ENERGY
------------

The inner energy is: U= E(el) + E(ZPE) + E(vib) + E(rot) + E(trans)
    E(el)   - is the total energy from the electronic structure calculation
              = E(kin-el) + E(nuc-el) + E(el-el) + E(nuc-nuc)
    E(ZPE)  - the the zero temperature vibrational energy from the frequency calculation
    E(vib)  - the the finite temperature correction to E(ZPE) due to population
              of excited vibrational states
    E(rot)  - is the rotational thermal energy
    E(trans)- is the translational thermal energy

Summary of contributions to the inner energy U:
Electronic energy                ...    -39.72567232 Eh
Zero point energy                ...      0.03015940 Eh      18.93 kcal/mol
Thermal vibrational correction   ...      0.00029991 Eh       0.19 kcal/mol
Thermal rotational correction    ...      0.00141627 Eh       0.89 kcal/mol
Thermal translational correction ...      0.00141627 Eh       0.89 kcal/mol
-----------------------------------------------------------------------
Total thermal energy                    -39.69238047 Eh


Summary of corrections to the electronic energy:
(perhaps to be used in another calculation)
Total thermal correction                  0.00313245 Eh       1.97 kcal/mol
Non-thermal (ZPE) correction              0.03015940 Eh      18.93 kcal/mol
-----------------------------------------------------------------------
Total correction                          0.03329185 Eh      20.89 kcal/mol


--------
ENTHALPY
--------

The enthalpy is H = U + kB*T
                kB is Boltzmann's constant
Total free energy                 ...    -39.69238047 Eh 
Thermal Enthalpy correction       ...      0.00094421 Eh       0.59 kcal/mol
-----------------------------------------------------------------------
Total Enthalpy                    ...    -39.69143626 Eh


Note: Rotational entropy computed according to Herzberg 
Infrared and Raman Spectra, Chapter V,1, Van Nostrand Reinhold, 1945 
Point Group:  D3h, Symmetry Number:   6  
Rotational constants in cm-1:     9.579373     9.579369     4.789686 

Vibrational entropy computed according to the QRRHO of S. Grimme
Chem.Eur.J. 2012 18 9955


-------
ENTROPY
-------

The entropy contributions are T*S = T*(S(el)+S(vib)+S(rot)+S(trans))
     S(el)   - electronic entropy
     S(vib)  - vibrational entropy
     S(rot)  - rotational entropy
     S(trans)- translational entropy
The entropies will be listed as mutliplied by the temperature to get
units of energy

Electronic entropy                ...      0.00065446 Eh      0.41 kcal/mol
Vibrational entropy               ...      0.00043379 Eh      0.27 kcal/mol
Rotational entropy                ...      0.00494607 Eh      3.10 kcal/mol
Translational entropy             ...      0.01618771 Eh     10.16 kcal/mol
-----------------------------------------------------------------------
Final entropy term                ...      0.02222202 Eh     13.94 kcal/mol

In case the symmetry of your molecule has not been determined correctly
or in case you have a reason to use a different symmetry number we print 
out the resulting rotational entropy values for sn=1,12 :
 --------------------------------------------------------
|  sn= 1 | S(rot)=       0.00663781 Eh      4.17 kcal/mol|
|  sn= 2 | S(rot)=       0.00598336 Eh      3.75 kcal/mol|
|  sn= 3 | S(rot)=       0.00560053 Eh      3.51 kcal/mol|
|  sn= 4 | S(rot)=       0.00532890 Eh      3.34 kcal/mol|
|  sn= 5 | S(rot)=       0.00511821 Eh      3.21 kcal/mol|
|  sn= 6 | S(rot)=       0.00494607 Eh      3.10 kcal/mol|
|  sn= 7 | S(rot)=       0.00480052 Eh      3.01 kcal/mol|
|  sn= 8 | S(rot)=       0.00467445 Eh      2.93 kcal/mol|
|  sn= 9 | S(rot)=       0.00456324 Eh      2.86 kcal/mol|
|  sn=10 | S(rot)=       0.00446376 Eh      2.80 kcal/mol|
|  sn=11 | S(rot)=       0.00437377 Eh      2.74 kcal/mol|
|  sn=12 | S(rot)=       0.00429161 Eh      2.69 kcal/mol|
 --------------------------------------------------------


-------------------
GIBBS FREE ENERGY
-------------------

The Gibbs free energy is G = H - T*S

Total enthalpy                    ...    -39.69143626 Eh 
Total entropy correction          ...     -0.02222202 Eh    -13.94 kcal/mol
-----------------------------------------------------------------------
Final Gibbs free energy         ...    -39.71365828 Eh

For completeness - the Gibbs free energy minus the electronic energy
G-E(el)                           ...      0.01201404 Eh      7.54 kcal/mol


Timings for individual modules:

Sum of individual times         ...       23.636 sec (=   0.394 min)
GTO integral calculation        ...        2.173 sec (=   0.036 min)   9.2 %
SCF iterations                  ...        8.070 sec (=   0.134 min)  34.1 %
MP2 module                      ...        6.116 sec (=   0.102 min)  25.9 %
Geometry relaxation             ...        0.046 sec (=   0.001 min)   0.2 %
Analytical frequency calculation...        7.231 sec (=   0.121 min)  30.6 %
                             ****ORCA TERMINATED NORMALLY****
TOTAL RUN TIME: 0 days 0 hours 0 minutes 24 seconds 183 msec
