
                                 *****************
                                 * O   R   C   A *
                                 *****************

           --- An Ab Initio, DFT and Semiempirical electronic structure package ---

                  #######################################################
                  #                        -***-                        #
                  #          Department of theory and spectroscopy      #
                  #               Directorship: Frank Neese             #
                  #        Max Planck Institute fuer Kohlenforschung    #
                  #                Kaiser Wilhelm Platz 1               #
                  #                 D-45470 Muelheim/Ruhr               #
                  #                      Germany                        #
                  #                                                     #
                  #                  All rights reserved                #
                  #                        -***-                        #
                  #######################################################


                         Program Version 4.2.1 -  RELEASE  -


 With contributions from (in alphabetic order):
   Daniel Aravena         : Magnetic Suceptibility
   Michael Atanasov       : Ab Initio Ligand Field Theory (pilot matlab implementation)
   Alexander A. Auer      : GIAO ZORA, VPT2
   Ute Becker             : Parallelization
   Giovanni Bistoni       : ED, misc. LED, open-shell LED, HFLD
   Martin Brehm           : Molecular dynamics
   Dmytro Bykov           : SCF Hessian
   Vijay G. Chilkuri      : MRCI spin determinant printing, contributions to CSF-ICE
   Dipayan Datta          : RHF DLPNO-CCSD density
   Achintya Kumar Dutta   : EOM-CC, STEOM-CC
   Dmitry Ganyushin       : Spin-Orbit,Spin-Spin,Magnetic field MRCI
   Miquel Garcia          : C-PCM Hessian, Gaussian charge scheme
   Yang Guo               : DLPNO-NEVPT2, CIM, IAO-localization
   Andreas Hansen         : Spin unrestricted coupled pair/coupled cluster methods
   Benjamin Helmich-Paris : CASSCF linear response (MC-RPA)
   Lee Huntington         : MR-EOM, pCC
   Robert Izsak           : Overlap fitted RIJCOSX, COSX-SCS-MP3, EOM
   Christian Kollmar      : KDIIS, OOCD, Brueckner-CCSD(T), CCSD density
   Simone Kossmann        : Meta GGA functionals, TD-DFT gradient, OOMP2, MP2 Hessian
   Martin Krupicka        : AUTO-CI
   Lucas Lang             : DCDCAS
   Dagmar Lenk            : GEPOL surface, SMD
   Dimitrios Liakos       : Extrapolation schemes; Compound Job, initial MDCI parallelization
   Dimitrios Manganas     : Further ROCIS development; embedding schemes
   Dimitrios Pantazis     : SARC Basis sets
   Taras Petrenko         : DFT Hessian,TD-DFT gradient, ASA, ECA, R-Raman, ABS, FL, XAS/XES, NRVS
   Peter Pinski           : DLPNO-MP2, DLPNO-MP2 Gradient
   Christoph Reimann      : Effective Core Potentials
   Marius Retegan         : Local ZFS, SOC
   Christoph Riplinger    : Optimizer, TS searches, QM/MM, DLPNO-CCSD(T), (RO)-DLPNO pert. Triples
   Tobias Risthaus        : Range-separated hybrids, TD-DFT gradient, RPA, STAB
   Michael Roemelt        : Original ROCIS implementation
   Masaaki Saitow         : Open-shell DLPNO-CCSD energy and density
   Barbara Sandhoefer     : DKH picture change effects
   Avijit Sen             : IP-ROCIS
   Kantharuban Sivalingam : CASSCF convergence, NEVPT2, FIC-MRCI
   Bernardo de Souza      : ESD, SOC TD-DFT
   Georgi Stoychev        : AutoAux, RI-MP2 NMR
   Willem Van den Heuvel  : Paramagnetic NMR
   Boris Wezisla          : Elementary symmetry handling
   Frank Wennmohs         : Technical directorship


 We gratefully acknowledge several colleagues who have allowed us to
 interface, adapt or use parts of their codes:
   Stefan Grimme, W. Hujo, H. Kruse,             : VdW corrections, initial TS optimization,
                  C. Bannwarth                     DFT functionals, gCP, sTDA/sTD-DF
   Ed Valeev, F. Pavosevic, A. Kumar             : LibInt (2-el integral package), F12 methods
   Garnet Chan, S. Sharma, J. Yang, R. Olivares  : DMRG
   Ulf Ekstrom                                   : XCFun DFT Library
   Mihaly Kallay                                 : mrcc  (arbitrary order and MRCC methods)
   Andreas Klamt, Michael Diedenhofen            : otool_cosmo (COSMO solvation model)
   Jiri Pittner, Ondrej Demel                    : Mk-CCSD
   Frank Weinhold                                : gennbo (NPA and NBO analysis)
   Christopher J. Cramer and Donald G. Truhlar   : smd solvation model
   Lars Goerigk                                  : TD-DFT with DH, B97 family of functionals
   V. Asgeirsson, H. Jonsson                     : NEB implementation
   FAccTs GmbH                                   : IRC, NEB, NEB-TS, Multilevel, MM, QM/MM, CI optimization
   S Lehtola, MJT Oliveira, MAL Marques          : LibXC Library


 Your calculation uses the libint2 library for the computation of 2-el integrals
 For citations please refer to: http://libint.valeyev.net

 Your ORCA version has been built with support for libXC version: 4.2.3
 For citations please refer to: https://tddft.org/programs/libxc/

 This ORCA versions uses:
   CBLAS   interface :  Fast vector & matrix operations
   LAPACKE interface :  Fast linear algebra routines
   SCALAPACK package :  Parallel linear algebra routines


----- Orbital basis set information -----
Your calculation utilizes the basis: 6-311G(d,p)
   H, Li - Ne  : R. Krishnan, J. S. Binkley, R. Seeger and J. A. Pople, J. Chem. Phys. 72, 650 (1980).
   Na - Ar     : A. D. McLean and G. S. Chandler J. Chem. Phys. 72, 5639, (1980).
   K  - Ca     : J.-P. Blaudeau, M. P. McGrath, L. A. Curtiss and L. Radom, J. Chem. Phys. 107, 5016 (1997).
   Ga - Kr     : L. A. Curtiss, M. P. McGrath, J.-P. Blandeau, N. E. Davis, R. C. Binning and L. Radom, J. Chem. Phys. 103, 6104 (1995).
   Pol./Diff.
   H, Li - Cl  : T. Clark, J. Chandrasekhar and P. v. R. Schleyer, J. Comp. Chem. 4, 294 (1983).
   H - Ne      : M. J. Frisch, J. A. Pople and J. S. Binkley, J. Chem. Phys. 80, 3265 (1984).

================================================================================
                                        WARNINGS
                       Please study these warnings very carefully!
================================================================================


WARNING: No MP2 level density has been requested!
         To caclulate MP2 level properties use
         %mp2 Density relaxed end
         or
         %mp2 Density unrelaxed end

WARNING: Post HF methods need fully converged wavefunctions
  ===> : Setting SCFConvForced true
         You can overwrite this default with %scf ConvForced false 


INFO   : the flag for use of LIBINT has been found!

================================================================================
                                       INPUT FILE
================================================================================
NAME = Cl·.inp
|  1> ! UHF MP2 6-311G(d,p) Freq NoFrozenCore TightSCF Grid4 FinalGrid5 PrintBasis PrintMOs NBO
|  2> %maxcore 3000
|  3> 
|  4> *xyz 0 2
|  5> Cl       0.000000000      0.000000000      0.000000000
|  6> *
|  7> 
|  8> %pal
|  9>  nprocs 12
| 10> end
| 11> 
| 12>                          ****END OF INPUT****
================================================================================

                       ****************************
                       * Single Point Calculation *
                       ****************************

---------------------------------
CARTESIAN COORDINATES (ANGSTROEM)
---------------------------------
  Cl     0.000000    0.000000    0.000000

----------------------------
CARTESIAN COORDINATES (A.U.)
----------------------------
  NO LB      ZA    FRAG     MASS         X           Y           Z
   0 Cl   17.0000    0    35.453    0.000000    0.000000    0.000000

--------------------------------
INTERNAL COORDINATES (ANGSTROEM)
--------------------------------
 Cl     0   0   0     0.000000000000     0.00000000     0.00000000

---------------------------
INTERNAL COORDINATES (A.U.)
---------------------------
 Cl     0   0   0     0.000000000000     0.00000000     0.00000000

---------------------
BASIS SET INFORMATION
---------------------
There are 1 groups of distinct atoms

 Group   1 Type Cl  : 13s10p1d contracted to 6s5p1d pattern {631111/52111/1}

Atom   0Cl   basis set group =>   1

-------------------------
BASIS SET IN INPUT FORMAT
-------------------------

 # Basis set for element : Cl
 NewGTO Cl
 S 6 
   1  105819.0000000000      0.0007380002
   2   15872.0000000000      0.0057180019
   3    3619.6500000000      0.0294950099
   4    1030.8000000000      0.1172860392
   5     339.9080000000      0.3629491212
   6     124.5380000000      0.5841491951
 S 3 
   1     124.5380000000      0.1341769734
   2      49.5135000000      0.6242498762
   3      20.8056000000      0.2917559421
 S 1 
   1       6.5834600000      1.0000000000
 S 1 
   1       2.5646800000      1.0000000000
 S 1 
   1       0.5597630000      1.0000000000
 S 1 
   1       0.1832730000      1.0000000000
 P 5 
   1     589.7760000000      0.0023909997
   2     139.8490000000      0.0185039976
   3      45.1413000000      0.0813769893
   4      16.8733000000      0.2215519708
   5       6.7411000000      0.7725688983
 P 2 
   1       6.7411000000     -1.5722438126
   2       2.7715200000      0.9923888817
 P 1 
   1       1.0238700000      1.0000000000
 P 1 
   1       0.3813680000      1.0000000000
 P 1 
   1       0.1094370000      1.0000000000
 D 1 
   1       0.7500000000      1.0000000000
  end;



           ************************************************************
           *        Program running with 12 parallel MPI-processes    *
           *              working on a common directory               *
           ************************************************************
------------------------------------------------------------------------------
                           ORCA GTO INTEGRAL CALCULATION
------------------------------------------------------------------------------

                         BASIS SET STATISTICS AND STARTUP INFO

 # of primitive gaussian shells          ...   24
 # of primitive gaussian functions       ...   48
 # of contracted shells                  ...   12
 # of contracted basis functions         ...   26
 Highest angular momentum                ...    2
 Maximum contraction depth               ...    6
 Integral package used                   ... LIBINT
 Integral threshhold            Thresh   ...  2.500e-11
 Primitive cut-off              TCut     ...  2.500e-12


------------------------------ INTEGRAL EVALUATION ----------------------------


 * One electron integrals 
 Pre-screening matrix                    ... done
 Shell pair data                         ... done (   0.000 sec)



           ************************************************************
           *        Program running with 12 parallel MPI-processes    *
           *              working on a common directory               *
           ************************************************************
-------------------------------------------------------------------------------
                                 ORCA SCF
-------------------------------------------------------------------------------

------------
SCF SETTINGS
------------
Hamiltonian:
 Ab initio Hamiltonian  Method          .... Hartree-Fock(GTOs)


General Settings:
 Integral files         IntName         .... Cl·
 Hartree-Fock type      HFTyp           .... UHF
 Total Charge           Charge          ....    0
 Multiplicity           Mult            ....    2
 Number of Electrons    NEL             ....   17
 Basis Dimension        Dim             ....   26
 Nuclear Repulsion      ENuc            ....      0.0000000000 Eh

Convergence Acceleration:
 DIIS                   CNVDIIS         .... on
   Start iteration      DIISMaxIt       ....    12
   Startup error        DIISStart       ....  0.200000
   # of expansion vecs  DIISMaxEq       ....     5
   Bias factor          DIISBfac        ....   1.050
   Max. coefficient     DIISMaxC        ....  10.000
 Newton-Raphson         CNVNR           .... off
 SOSCF                  CNVSOSCF        .... off
 Level Shifting         CNVShift        .... on
   Level shift para.    LevelShift      ....    0.2500
   Turn off err/grad.   ShiftErr        ....    0.0010
 Zerner damping         CNVZerner       .... off
 Static damping         CNVDamp         .... on
   Fraction old density DampFac         ....    0.7000
   Max. Damping (<1)    DampMax         ....    0.9800
   Min. Damping (>=0)   DampMin         ....    0.0000
   Turn off err/grad.   DampErr         ....    0.1000
 Fernandez-Rico         CNVRico         .... off

SCF Procedure:
 Maximum # iterations   MaxIter         ....   125
 SCF integral mode      SCFMode         .... Direct
   Integral package                     .... LIBINT
 Reset frequency        DirectResetFreq ....    20
 Integral Threshold     Thresh          ....  2.500e-11 Eh
 Primitive CutOff       TCut            ....  2.500e-12 Eh

Convergence Tolerance:
 Convergence Check Mode ConvCheckMode   .... Total+1el-Energy
 Convergence forced     ConvForced      .... 1
 Energy Change          TolE            ....  1.000e-08 Eh
 1-El. energy change                    ....  1.000e-05 Eh
 DIIS Error             TolErr          ....  5.000e-07


Diagonalization of the overlap matrix:
Smallest eigenvalue                        ... 2.919e-02
Time for diagonalization                   ...    0.002 sec
Threshold for overlap eigenvalues          ... 1.000e-08
Number of eigenvalues below threshold      ... 0
Time for construction of square roots      ...    0.001 sec
Total time needed                          ...    0.003 sec

-------------------
DFT GRID GENERATION
-------------------

General Integration Accuracy     IntAcc      ...  4.670
Radial Grid Type                 RadialGrid  ... Gauss-Chebyshev
Angular Grid (max. acc.)         AngularGrid ... Lebedev-302
Angular grid pruning method      GridPruning ... 3 (G Style)
Weight generation scheme         WeightScheme... Becke
Basis function cutoff            BFCut       ...    1.0000e-11
Integration weight cutoff        WCut        ...    1.0000e-14
Grids for H and He will be reduced by one unit

# of grid points (after initial pruning)     ...   6738 (   0.0 sec)
# of grid points (after weights+screening)   ...   6738 (   0.0 sec)
Grid point division into batches done        ...    0.0 sec
Reduced shell lists constructed in    0.0 sec

Total number of grid points                  ...     6738
Total number of batches                      ...      106
Average number of points per batch           ...       63
Average number of grid points per atom       ...     6738
Average number of shells per batch           ...     1.20 (10.00%)
Average number of basis functions per batch  ...     3.00 (11.54%)
Average number of large shells per batch     ...     0.90 (75.00%)
Average number of large basis fcns per batch ...     2.70 (90.00%)
Maximum spatial batch extension              ...  25.31, 17.78, 17.78 au
Average spatial batch extension              ...   1.61,  1.30,  1.27 au

Time for grid setup =    0.064 sec

------------------------------
INITIAL GUESS: MODEL POTENTIAL
------------------------------
Loading Hartree-Fock densities                     ... done
Calculating cut-offs                               ... done
Setting up the integral package                    ... done
Initializing the effective Hamiltonian             ... done
Starting the Coulomb interaction                   ... done (   0.0 sec)
Reading the grid                                   ... done
Mapping shells                                     ... done
Starting the XC term evaluation                    ... done (   0.0 sec)
Transforming the Hamiltonian                       ... done (   0.0 sec)
Diagonalizing the Hamiltonian                      ... done (   0.0 sec)
Back transforming the eigenvectors                 ... done (   0.0 sec)
Now organizing SCF variables                       ... done
                      ------------------
                      INITIAL GUESS DONE (   0.2 sec)
                      ------------------
--------------
SCF ITERATIONS
--------------
ITER       Energy         Delta-E        Max-DP      RMS-DP      [F,P]     Damp
               ***  Starting incremental Fock matrix formation  ***
  0   -459.4519435636   0.000000000000 0.01186311  0.00089313  0.6515136 0.7000
  1   -459.4577483124  -0.005804748817 0.01079797  0.00072653  0.4573457 0.7000
  2   -459.4620168318  -0.004268519359 0.00877585  0.00055692  0.3209645 0.7000
  3   -459.4651245915  -0.003107759697 0.00701350  0.00042554  0.2252995 0.7000
                               ***Turning on DIIS***
  4   -459.4673749824  -0.002250390908 0.00558789  0.00032644  0.1581779 0.7000
  5   -459.4589744015   0.008400580844 0.00505862  0.00028087  0.1110733 0.7000
  6   -459.4601556314  -0.001181229831 0.01403279  0.00075324  0.0778734 0.0000
  7   -459.4729821607  -0.012826529324 0.00161308  0.00008694  0.0015001 0.0000
  8   -459.4721006784   0.000881482329 0.00150721  0.00008494  0.0008074 0.0000
  9   -459.4729724192  -0.000871740867 0.00012391  0.00001065  0.0000809 0.0000
 10   -459.4730812367  -0.000108817426 0.00003340  0.00000242  0.0000076 0.0000
 11   -459.4730660205   0.000015216200 0.00001269  0.00000109  0.0000012 0.0000
                            ***DIIS convergence achieved***

               *****************************************************
               *                     SUCCESS                       *
               *           SCF CONVERGED AFTER  12 CYCLES          *
               *****************************************************


----------------
TOTAL SCF ENERGY
----------------

Total Energy       :         -459.47306440 Eh          -12502.89772 eV

Components:
Nuclear Repulsion  :            0.00000000 Eh               0.00000 eV
Electronic Energy  :         -459.47306440 Eh          -12502.89772 eV
One Electron Energy:         -634.79565936 Eh          -17273.66807 eV
Two Electron Energy:          175.32259496 Eh            4770.77035 eV

Virial components:
Potential Energy   :         -918.95745147 Eh          -25006.10354 eV
Kinetic Energy     :          459.48438707 Eh           12503.20582 eV
Virial Ratio       :            1.99997536


---------------
SCF CONVERGENCE
---------------

  Last Energy change         ...    1.6206e-06  Tolerance :   1.0000e-08
  Last MAX-Density change    ...    4.3756e-06  Tolerance :   1.0000e-07
  Last RMS-Density change    ...    3.9506e-07  Tolerance :   5.0000e-09
  Last DIIS Error            ...    3.6187e-07  Tolerance :   5.0000e-07

             **** THE GBW FILE WAS UPDATED (Cl·.gbw) ****
             **** DENSITY FILE WAS UPDATED (Cl·.scfp) ****
             **** ENERGY FILE WAS UPDATED (Cl·.en.tmp) ****
----------------------
UHF SPIN CONTAMINATION
----------------------

Expectation value of <S**2>     :     0.755096
Ideal value S*(S+1) for S=0.5   :     0.750000
Deviation                       :     0.005096

             **** THE GBW FILE WAS UPDATED (Cl·.gbw) ****
             **** DENSITY FILE WAS UPDATED (Cl·.scfp) ****
----------------
ORBITAL ENERGIES
----------------
                 SPIN UP ORBITALS
  NO   OCC          E(Eh)            E(eV) 
   0   1.0000    -104.891971     -2854.2556 
   1   1.0000     -10.615642      -288.8663 
   2   1.0000      -8.102167      -220.4712 
   3   1.0000      -8.076801      -219.7809 
   4   1.0000      -8.076801      -219.7809 
   5   1.0000      -1.138275       -30.9741 
   6   1.0000      -0.580714       -15.8020 
   7   1.0000      -0.505978       -13.7684 
   8   1.0000      -0.505978       -13.7684 
   9   0.0000       0.375501        10.2179 
  10   0.0000       0.406766        11.0687 
  11   0.0000       0.406766        11.0687 
  12   0.0000       0.744585        20.2612 
  13   0.0000       1.040733        28.3198 
  14   0.0000       1.056444        28.7473 
  15   0.0000       1.056444        28.7473 
  16   0.0000       1.111302        30.2401 
  17   0.0000       1.111302        30.2401 
  18   0.0000       2.371346        64.5276 
  19   0.0000       2.426040        66.0159 
  20   0.0000       2.426040        66.0159 
  21   0.0000       9.923660       270.0365 
  22   0.0000      26.129954       711.0322 
  23   0.0000      26.174813       712.2529 
  24   0.0000      26.174813       712.2529 
  25   0.0000     218.715563      5951.5530 

                 SPIN DOWN ORBITALS
  NO   OCC          E(Eh)            E(eV) 
   0   1.0000    -104.880863     -2853.9534 
   1   1.0000     -10.604120      -288.5528 
   2   1.0000      -8.070834      -219.6186 
   3   1.0000      -8.070834      -219.6186 
   4   1.0000      -8.053096      -219.1359 
   5   1.0000      -1.016151       -27.6509 
   6   1.0000      -0.480123       -13.0648 
   7   1.0000      -0.480123       -13.0648 
   8   0.0000      -0.047500        -1.2925 
   9   0.0000       0.412888        11.2353 
  10   0.0000       0.412888        11.2353 
  11   0.0000       0.448835        12.2134 
  12   0.0000       0.773637        21.0517 
  13   0.0000       1.121831        30.5266 
  14   0.0000       1.121831        30.5266 
  15   0.0000       1.154674        31.4203 
  16   0.0000       1.154674        31.4203 
  17   0.0000       1.167691        31.7745 
  18   0.0000       2.436487        66.3002 
  19   0.0000       2.436487        66.3002 
  20   0.0000       2.451633        66.7123 
  21   0.0000       9.941837       270.5311 
  22   0.0000      26.153949       711.6851 
  23   0.0000      26.179931       712.3921 
  24   0.0000      26.179931       712.3921 
  25   0.0000     218.721599      5951.7173 
------------------
MOLECULAR ORBITALS
------------------
                      0         1         2         3         4         5   
                 -104.89197 -10.61564  -8.10217  -8.07680  -8.07680  -1.13828
                   1.00000   1.00000   1.00000   1.00000   1.00000   1.00000
                  --------  --------  --------  --------  --------  --------
  0Cl  1s         0.411715 -0.121998  0.000000  0.000000 -0.000000 -0.037171
  0Cl  2s         0.654659 -0.331594  0.000000  0.000000 -0.000000 -0.107466
  0Cl  3s         0.012130  0.512286 -0.000000 -0.000000  0.000000  0.211661
  0Cl  4s        -0.000915  0.605573 -0.000000 -0.000000  0.000000  0.430689
  0Cl  5s         0.000172  0.040907  0.000000 -0.000000 -0.000000 -0.666643
  0Cl  6s        -0.000084 -0.007143  0.000000 -0.000000  0.000000 -0.554291
  0Cl  1pz       -0.000000 -0.000000 -0.078997 -1.171538 -0.371383 -0.000000
  0Cl  1px       -0.000000 -0.000000  1.192264  0.016357 -0.305491  0.000000
  0Cl  1py        0.000000  0.000000 -0.295376  0.379348 -1.133766 -0.000000
  0Cl  2pz       -0.000000 -0.000000 -0.021008 -0.311352 -0.098700 -0.000000
  0Cl  2px       -0.000000 -0.000000  0.317061  0.004347 -0.081188  0.000000
  0Cl  2py        0.000000  0.000000 -0.078550  0.100817 -0.301313 -0.000000
  0Cl  3pz        0.000000  0.000000 -0.003219 -0.046336 -0.014689  0.000000
  0Cl  3px        0.000000  0.000000  0.048577  0.000647 -0.012083 -0.000000
  0Cl  3py       -0.000000 -0.000000 -0.012035  0.015004 -0.044842  0.000000
  0Cl  4pz       -0.000000  0.000000  0.000128  0.001752  0.000555  0.000000
  0Cl  4px       -0.000000  0.000000 -0.001933 -0.000024  0.000457 -0.000000
  0Cl  4py        0.000000 -0.000000  0.000479 -0.000567  0.001696 -0.000000
  0Cl  5pz        0.000000 -0.000000 -0.000042 -0.000564 -0.000179  0.000000
  0Cl  5px        0.000000 -0.000000  0.000636  0.000008 -0.000147 -0.000000
  0Cl  5py       -0.000000  0.000000 -0.000157  0.000183 -0.000545  0.000000
  0Cl  1dz2       0.000000 -0.000403 -0.000000  0.000000 -0.000000  0.016191
  0Cl  1dxz       0.000000 -0.000088  0.000000  0.000000  0.000000  0.003531
  0Cl  1dyz      -0.000000  0.000022  0.000000 -0.000000  0.000000 -0.000875
  0Cl  1dx2y2    -0.000000  0.000622 -0.000000 -0.000000  0.000000 -0.025007
  0Cl  1dxy       0.000000 -0.000328 -0.000000 -0.000000  0.000000  0.013201
                      6         7         8         9        10        11   
                  -0.58071  -0.50598  -0.50598   0.37550   0.40677   0.40677
                   1.00000   1.00000   1.00000   0.00000   0.00000   0.00000
                  --------  --------  --------  --------  --------  --------
  0Cl  1s         0.000000 -0.000000  0.000000  0.000000  0.000000  0.000000
  0Cl  2s         0.000000 -0.000000  0.000000  0.000000  0.000000  0.000000
  0Cl  3s         0.000000  0.000000  0.000000  0.000000 -0.000000  0.000000
  0Cl  4s        -0.000000  0.000000 -0.000000 -0.000000 -0.000000 -0.000000
  0Cl  5s        -0.000000 -0.000000  0.000000  0.000000  0.000000 -0.000000
  0Cl  6s        -0.000000 -0.000000  0.000000 -0.000000 -0.000000  0.000000
  0Cl  1pz        0.022527 -0.157922 -0.302394  0.011572 -0.083500 -0.165283
  0Cl  1px       -0.339989 -0.082727  0.019177 -0.174644 -0.045041  0.009803
  0Cl  1py        0.084230 -0.291685  0.158281  0.043267 -0.159472  0.083773
  0Cl  2pz        0.005407 -0.037679 -0.072149  0.001897 -0.013317 -0.026360
  0Cl  2px       -0.081603 -0.019738  0.004576 -0.028624 -0.007183  0.001563
  0Cl  2py        0.020217 -0.069594  0.037765  0.007091 -0.025433  0.013360
  0Cl  3pz       -0.016225  0.114685  0.219603 -0.003121  0.020495  0.040568
  0Cl  3px        0.244870  0.060077 -0.013927  0.047108  0.011055 -0.002406
  0Cl  3py       -0.060665  0.211826 -0.114946 -0.011671  0.039142 -0.020562
  0Cl  4pz       -0.041170  0.283323  0.542517 -0.059775  0.432886  0.856869
  0Cl  4px        0.621353  0.148418 -0.034405  0.902146  0.233504 -0.050821
  0Cl  4py       -0.153936  0.523303 -0.283968 -0.223501  0.826748 -0.434303
  0Cl  5pz       -0.017787  0.146529  0.280580  0.081090 -0.565687 -1.119740
  0Cl  5px        0.268442  0.076759 -0.017794 -1.223849 -0.305138  0.066412
  0Cl  5py       -0.066505  0.270643 -0.146863  0.303201 -1.080378  0.567540
  0Cl  1dz2      -0.000000  0.000000 -0.000000 -0.000000  0.000000 -0.000000
  0Cl  1dxz      -0.000000  0.000000  0.000000 -0.000000  0.000000 -0.000000
  0Cl  1dyz       0.000000  0.000000 -0.000000 -0.000000  0.000000 -0.000000
  0Cl  1dx2y2    -0.000000  0.000000 -0.000000 -0.000000  0.000000 -0.000000
  0Cl  1dxy       0.000000  0.000000 -0.000000  0.000000  0.000000 -0.000000
                     12        13        14        15        16        17   
                   0.74459   1.04073   1.05644   1.05644   1.11130   1.11130
                   0.00000   0.00000   0.00000   0.00000   0.00000   0.00000
                  --------  --------  --------  --------  --------  --------
  0Cl  1s        -0.034189  0.003113  0.000000  0.000000 -0.000000  0.000000
  0Cl  2s        -0.093752  0.009019  0.000000  0.000000 -0.000000 -0.000000
  0Cl  3s         0.140974 -0.018050 -0.000000 -0.000000  0.000000  0.000000
  0Cl  4s         0.653596 -0.044075 -0.000000 -0.000000  0.000000  0.000000
  0Cl  5s        -2.121061  0.133183  0.000000  0.000000 -0.000000 -0.000000
  0Cl  6s         1.735458 -0.073764 -0.000000 -0.000000  0.000000  0.000000
  0Cl  1pz       -0.000000 -0.000000  0.000000  0.000000 -0.000000  0.000000
  0Cl  1px       -0.000000  0.000000  0.000000  0.000000 -0.000000  0.000000
  0Cl  1py       -0.000000  0.000000  0.000000  0.000000 -0.000000  0.000000
  0Cl  2pz       -0.000000 -0.000000  0.000000  0.000000  0.000000  0.000000
  0Cl  2px       -0.000000  0.000000  0.000000  0.000000 -0.000000  0.000000
  0Cl  2py       -0.000000  0.000000  0.000000  0.000000 -0.000000  0.000000
  0Cl  3pz        0.000000  0.000000 -0.000000 -0.000000 -0.000000 -0.000000
  0Cl  3px        0.000000 -0.000000 -0.000000 -0.000000  0.000000  0.000000
  0Cl  3py        0.000000 -0.000000 -0.000000 -0.000000  0.000000 -0.000000
  0Cl  4pz       -0.000000 -0.000000  0.000000 -0.000000  0.000000  0.000000
  0Cl  4px        0.000000  0.000000 -0.000000  0.000000  0.000000  0.000000
  0Cl  4py        0.000000  0.000000 -0.000000 -0.000000 -0.000000  0.000000
  0Cl  5pz        0.000000  0.000000 -0.000000  0.000000 -0.000000  0.000000
  0Cl  5px       -0.000000 -0.000000  0.000000 -0.000000 -0.000000 -0.000000
  0Cl  5py       -0.000000 -0.000000  0.000000  0.000000  0.000000 -0.000000
  0Cl  1dz2       0.026365  0.492850  0.062899 -0.091382  0.857558  0.091808
  0Cl  1dxz       0.005749  0.107469 -0.558525  0.784220  0.087362 -0.231997
  0Cl  1dyz      -0.001424 -0.026625  0.083905 -0.231775  0.087797 -0.964790
  0Cl  1dx2y2    -0.040721 -0.761211  0.351638  0.310799  0.444661  0.017471
  0Cl  1dxy       0.021496  0.401834  0.743912  0.475745 -0.227005 -0.081385
                     18        19        20        21        22        23   
                   2.37135   2.42604   2.42604   9.92366  26.12995  26.17481
                   0.00000   0.00000   0.00000   0.00000   0.00000   0.00000
                  --------  --------  --------  --------  --------  --------
  0Cl  1s        -0.000000  0.000000  0.000000  0.115947 -0.000000 -0.000000
  0Cl  2s        -0.000000  0.000000  0.000000  0.481574 -0.000000 -0.000000
  0Cl  3s         0.000000  0.000000  0.000000 -2.618820  0.000000 -0.000000
  0Cl  4s         0.000000 -0.000000 -0.000000  2.997798 -0.000000  0.000000
  0Cl  5s        -0.000000  0.000000  0.000000 -1.463622  0.000000  0.000000
  0Cl  6s         0.000000 -0.000000 -0.000000  0.575029  0.000000 -0.000000
  0Cl  1pz        0.050322 -0.776073 -0.103551 -0.000000 -0.215319 -3.323572
  0Cl  1px       -0.759475 -0.073400  0.180547  0.000000  3.249693 -0.305195
  0Cl  1py        0.188155 -0.088717  0.756458  0.000000 -0.805091 -0.343018
  0Cl  2pz        0.016671 -0.256950 -0.034285 -0.000000 -0.218231 -3.368291
  0Cl  2px       -0.251613 -0.024302  0.059777  0.000000  3.293631 -0.309301
  0Cl  2py        0.062335 -0.029373  0.250456  0.000000 -0.815976 -0.347633
  0Cl  3pz       -0.122351  1.886262  0.251682  0.000000  0.148355  2.289849
  0Cl  3px        1.846568  0.178401 -0.438822 -0.000000 -2.239040  0.210271
  0Cl  3py       -0.457476  0.215629 -1.838586 -0.000000  0.554708  0.236330
  0Cl  4pz        0.116290 -1.786349 -0.238351  0.000000 -0.068913 -1.063136
  0Cl  4px       -1.755098 -0.168952  0.415578  0.000000  1.040061 -0.097625
  0Cl  4py        0.434814 -0.204207  1.741198  0.000000 -0.257669 -0.109724
  0Cl  5pz       -0.037496  0.571376  0.076238 -0.000000  0.018303  0.282208
  0Cl  5px        0.565912  0.054040 -0.132926 -0.000000 -0.276239  0.025914
  0Cl  5py       -0.140201  0.065317 -0.556935  0.000000  0.068437  0.029126
  0Cl  1dz2       0.000000 -0.000000  0.000000 -0.000746 -0.000000  0.000000
  0Cl  1dxz       0.000000 -0.000000  0.000000 -0.000163  0.000000  0.000000
  0Cl  1dyz       0.000000 -0.000000  0.000000  0.000040  0.000000 -0.000000
  0Cl  1dx2y2     0.000000  0.000000  0.000000  0.001152  0.000000  0.000000
  0Cl  1dxy       0.000000 -0.000000 -0.000000 -0.000608 -0.000000  0.000000
                     24        25   
                  26.17481 218.71556
                   0.00000   0.00000
                  --------  --------
  0Cl  1s        -0.000000  1.541315
  0Cl  2s        -0.000000 -1.911226
  0Cl  3s         0.000000  1.419525
  0Cl  4s        -0.000000 -0.929937
  0Cl  5s         0.000000  0.330585
  0Cl  6s        -0.000000 -0.126744
  0Cl  1pz       -0.405506  0.000000
  0Cl  1px        0.775569 -0.000000
  0Cl  1py        3.238981  0.000000
  0Cl  2pz       -0.410962  0.000000
  0Cl  2px        0.786004 -0.000000
  0Cl  2py        3.282562  0.000000
  0Cl  3pz        0.279382  0.000000
  0Cl  3px       -0.534345  0.000000
  0Cl  3py       -2.231568 -0.000000
  0Cl  4pz       -0.129712 -0.000000
  0Cl  4px        0.248087 -0.000000
  0Cl  4py        1.036077  0.000000
  0Cl  5pz        0.034432  0.000000
  0Cl  5px       -0.065854  0.000000
  0Cl  5py       -0.275025 -0.000000
  0Cl  1dz2       0.000000  0.000004
  0Cl  1dxz       0.000000  0.000001
  0Cl  1dyz      -0.000000 -0.000000
  0Cl  1dx2y2     0.000000 -0.000006
  0Cl  1dxy       0.000000  0.000003

                      0         1         2         3         4         5   
                 -104.88086 -10.60412  -8.07083  -8.07083  -8.05310  -1.01615
                   1.00000   1.00000   1.00000   1.00000   1.00000   1.00000
                  --------  --------  --------  --------  --------  --------
  0Cl  1s        -0.411758 -0.121949  0.000000 -0.000000  0.000000 -0.036892
  0Cl  2s        -0.654678 -0.331483  0.000000 -0.000000  0.000000 -0.106975
  0Cl  3s        -0.011971  0.511349 -0.000000  0.000000 -0.000000  0.213463
  0Cl  4s         0.000838  0.607477  0.000000  0.000000  0.000000  0.420824
  0Cl  5s        -0.000178  0.039280 -0.000000 -0.000000 -0.000000 -0.648002
  0Cl  6s         0.000076 -0.007296  0.000000 -0.000000  0.000000 -0.568578
  0Cl  1pz        0.000000  0.000000  0.950432 -0.779318  0.078884 -0.000000
  0Cl  1px        0.000000 -0.000000 -0.128460 -0.277676 -1.190550  0.000000
  0Cl  1py        0.000000 -0.000000 -0.772711 -0.912395  0.294951  0.000000
  0Cl  2pz        0.000000  0.000000  0.252629 -0.207146  0.020990 -0.000000
  0Cl  2px        0.000000 -0.000000 -0.034145 -0.073808 -0.316790  0.000000
  0Cl  2py        0.000000  0.000000 -0.205390 -0.242519  0.078483 -0.000000
  0Cl  3pz       -0.000000  0.000000  0.037628 -0.030853  0.003484  0.000000
  0Cl  3px       -0.000000 -0.000000 -0.005086 -0.010993 -0.052579 -0.000000
  0Cl  3py       -0.000000 -0.000000 -0.030592 -0.036122  0.013026 -0.000000
  0Cl  4pz        0.000000 -0.000000 -0.001660  0.001362 -0.000295  0.000000
  0Cl  4px        0.000000 -0.000000  0.000224  0.000485  0.004452 -0.000000
  0Cl  4py        0.000000  0.000000  0.001350  0.001594 -0.001103 -0.000000
  0Cl  5pz       -0.000000  0.000000  0.000508 -0.000416  0.000087  0.000000
  0Cl  5px       -0.000000  0.000000 -0.000069 -0.000148 -0.001309 -0.000000
  0Cl  5py       -0.000000 -0.000000 -0.000413 -0.000488  0.000324  0.000000
  0Cl  1dz2       0.000009  0.000140 -0.000000 -0.000000 -0.000000 -0.017652
  0Cl  1dxz       0.000002  0.000031  0.000000  0.000000  0.000000 -0.003849
  0Cl  1dyz      -0.000001 -0.000008 -0.000000 -0.000000 -0.000000  0.000954
  0Cl  1dx2y2    -0.000014 -0.000217  0.000000 -0.000000 -0.000000  0.027263
  0Cl  1dxy       0.000008  0.000114  0.000000 -0.000000  0.000000 -0.014392
                      6         7         8         9        10        11   
                  -0.48012  -0.48012  -0.04750   0.41289   0.41289   0.44884
                   1.00000   1.00000   0.00000   0.00000   0.00000   0.00000
                  --------  --------  --------  --------  --------  --------
  0Cl  1s         0.000000  0.000000  0.000000  0.000000  0.000000  0.000000
  0Cl  2s         0.000000  0.000000  0.000000  0.000000  0.000000  0.000000
  0Cl  3s        -0.000000 -0.000000 -0.000000 -0.000000 -0.000000 -0.000000
  0Cl  4s         0.000000 -0.000000  0.000000 -0.000000  0.000000  0.000000
  0Cl  5s        -0.000000  0.000000 -0.000000  0.000000 -0.000000 -0.000000
  0Cl  6s        -0.000000 -0.000000  0.000000 -0.000000  0.000000  0.000000
  0Cl  1pz       -0.040293 -0.335404  0.018350  0.099621  0.159174 -0.015023
  0Cl  1px       -0.083338 -0.011229 -0.276948 -0.032137  0.033942  0.226738
  0Cl  1py       -0.325612  0.044379  0.068612 -0.156363  0.094436 -0.056173
  0Cl  2pz       -0.009596 -0.079877  0.004458  0.015816  0.025271 -0.002575
  0Cl  2px       -0.019847 -0.002674 -0.067286 -0.005102  0.005389  0.038868
  0Cl  2py       -0.077545  0.010569  0.016670 -0.024824  0.014993 -0.009629
  0Cl  3pz        0.029367  0.244458 -0.012706 -0.023858 -0.038121  0.003455
  0Cl  3px        0.060741  0.008184  0.191768  0.007697 -0.008129 -0.052141
  0Cl  3py        0.237321 -0.032345 -0.047509  0.037448 -0.022617  0.012917
  0Cl  4pz        0.071603  0.596036 -0.028851 -0.515268 -0.823294  0.070544
  0Cl  4px        0.148097  0.019954  0.435429  0.166223 -0.175560 -1.064681
  0Cl  4py        0.578633 -0.078864 -0.107875  0.808755 -0.488448  0.263768
  0Cl  5pz        0.039660  0.330135 -0.034908  0.663898  1.060775 -0.075955
  0Cl  5px        0.082029  0.011052  0.526841 -0.214171  0.226201  1.146352
  0Cl  5py        0.320496 -0.043682 -0.130522 -1.042042  0.629342 -0.284002
  0Cl  1dz2       0.000000  0.000000 -0.000000  0.000000 -0.000000 -0.000000
  0Cl  1dxz      -0.000000  0.000000  0.000000 -0.000000  0.000000  0.000000
  0Cl  1dyz       0.000000 -0.000000  0.000000  0.000000 -0.000000  0.000000
  0Cl  1dx2y2    -0.000000 -0.000000  0.000000 -0.000000  0.000000 -0.000000
  0Cl  1dxy      -0.000000 -0.000000  0.000000 -0.000000  0.000000  0.000000
                     12        13        14        15        16        17   
                   0.77364   1.12183   1.12183   1.15467   1.15467   1.16769
                   0.00000   0.00000   0.00000   0.00000   0.00000   0.00000
                  --------  --------  --------  --------  --------  --------
  0Cl  1s        -0.034528 -0.000000 -0.000000  0.000000  0.000000 -0.001476
  0Cl  2s        -0.094674  0.000000 -0.000000  0.000000  0.000000 -0.004281
  0Cl  3s         0.142292 -0.000000  0.000000 -0.000000 -0.000000  0.008890
  0Cl  4s         0.659374  0.000000  0.000000 -0.000000 -0.000000  0.017016
  0Cl  5s        -2.130744 -0.000000 -0.000000  0.000000  0.000000 -0.032463
  0Cl  6s         1.732816  0.000000  0.000000 -0.000000 -0.000000 -0.012615
  0Cl  1pz        0.000000  0.000000  0.000000 -0.000000 -0.000000  0.000000
  0Cl  1px       -0.000000  0.000000 -0.000000  0.000000  0.000000 -0.000000
  0Cl  1py       -0.000000  0.000000 -0.000000 -0.000000  0.000000  0.000000
  0Cl  2pz        0.000000  0.000000  0.000000 -0.000000 -0.000000  0.000000
  0Cl  2px       -0.000000  0.000000 -0.000000  0.000000  0.000000 -0.000000
  0Cl  2py       -0.000000  0.000000 -0.000000 -0.000000  0.000000  0.000000
  0Cl  3pz       -0.000000 -0.000000 -0.000000  0.000000  0.000000 -0.000000
  0Cl  3px        0.000000 -0.000000  0.000000 -0.000000 -0.000000  0.000000
  0Cl  3py       -0.000000 -0.000000  0.000000  0.000000 -0.000000 -0.000000
  0Cl  4pz       -0.000000 -0.000000  0.000000  0.000000 -0.000000 -0.000000
  0Cl  4px        0.000000 -0.000000 -0.000000  0.000000  0.000000  0.000000
  0Cl  4py        0.000000  0.000000 -0.000000  0.000000  0.000000 -0.000000
  0Cl  5pz        0.000000  0.000000 -0.000000 -0.000000 -0.000000  0.000000
  0Cl  5px       -0.000000  0.000000  0.000000 -0.000000 -0.000000 -0.000000
  0Cl  5py       -0.000000  0.000000 -0.000000 -0.000000 -0.000000  0.000000
  0Cl  1dz2      -0.002246  0.494597  0.706546  0.078629 -0.078258  0.493500
  0Cl  1dxz      -0.000490  0.232248 -0.086690 -0.693196  0.668154  0.107611
  0Cl  1dyz       0.000121  0.784712 -0.568116  0.125090 -0.212396 -0.026660
  0Cl  1dx2y2     0.003469  0.279165  0.346548  0.288496  0.370155 -0.762215
  0Cl  1dxy      -0.001831 -0.087912 -0.224558  0.643754  0.604416  0.402364
                     18        19        20        21        22        23   
                   2.43649   2.43649   2.45163   9.94184  26.15395  26.17993
                   0.00000   0.00000   0.00000   0.00000   0.00000   0.00000
                  --------  --------  --------  --------  --------  --------
  0Cl  1s         0.000000 -0.000000  0.000000 -0.115945  0.000000  0.000000
  0Cl  2s         0.000000 -0.000000  0.000000 -0.481589  0.000000  0.000000
  0Cl  3s        -0.000000  0.000000 -0.000000  2.618837 -0.000000 -0.000000
  0Cl  4s         0.000000  0.000000  0.000000 -2.997823  0.000000  0.000000
  0Cl  5s        -0.000000 -0.000000 -0.000000  1.463674  0.000000 -0.000000
  0Cl  6s         0.000000  0.000000  0.000000 -0.573636 -0.000000  0.000000
  0Cl  1pz       -0.545119 -0.562841 -0.051319 -0.000000  0.215309 -3.346824
  0Cl  1px        0.101598 -0.166494  0.774535  0.000000 -3.249533 -0.232374
  0Cl  1py        0.555884 -0.521511 -0.191886  0.000000  0.805051 -0.042861
  0Cl  2pz       -0.180444 -0.186311 -0.016937 -0.000000  0.218226 -3.391839
  0Cl  2px        0.033631 -0.055113  0.255623 -0.000000 -3.293567 -0.235499
  0Cl  2py        0.184008 -0.172630 -0.063329 -0.000000  0.815961 -0.043438
  0Cl  3pz        1.324047  1.367093  0.122780  0.000000 -0.148330  2.305873
  0Cl  3px       -0.246773  0.404400 -1.853055 -0.000000  2.238656  0.160099
  0Cl  3py       -1.350195  1.266706  0.459083 -0.000000 -0.554613  0.029530
  0Cl  4pz       -1.252412 -1.293128 -0.113978 -0.000000  0.068850 -1.070403
  0Cl  4px        0.233422 -0.382520  1.720207 -0.000000 -1.039120 -0.074319
  0Cl  4py        1.277145 -1.198173 -0.426170  0.000000  0.257435 -0.013708
  0Cl  5pz        0.399515  0.412503  0.036208  0.000000 -0.018281  0.284115
  0Cl  5px       -0.074461  0.122023 -0.546460  0.000000  0.275910  0.019726
  0Cl  5py       -0.407405  0.382213  0.135382 -0.000000 -0.068355  0.003639
  0Cl  1dz2       0.000000 -0.000000  0.000000 -0.000143  0.000000 -0.000000
  0Cl  1dxz      -0.000000  0.000000  0.000000 -0.000031 -0.000000  0.000000
  0Cl  1dyz      -0.000000  0.000000 -0.000000  0.000008  0.000000 -0.000000
  0Cl  1dx2y2    -0.000000  0.000000 -0.000000  0.000221 -0.000000 -0.000000
  0Cl  1dxy      -0.000000  0.000000 -0.000000 -0.000117  0.000000 -0.000000
                     24        25   
                  26.17993 218.72160
                   0.00000   0.00000
                  --------  --------
  0Cl  1s         0.000000  1.541309
  0Cl  2s         0.000000 -1.911233
  0Cl  3s        -0.000000  1.419518
  0Cl  4s         0.000000 -0.929942
  0Cl  5s        -0.000000  0.330579
  0Cl  6s         0.000000 -0.126733
  0Cl  1pz        0.097282  0.000000
  0Cl  1px       -0.800413 -0.000000
  0Cl  1py       -3.256830  0.000000
  0Cl  2pz        0.098591  0.000000
  0Cl  2px       -0.811179 -0.000000
  0Cl  2py       -3.300634  0.000000
  0Cl  3pz       -0.067025  0.000000
  0Cl  3px        0.551464  0.000000
  0Cl  3py        2.243869 -0.000000
  0Cl  4pz        0.031113 -0.000000
  0Cl  4px       -0.255993 -0.000000
  0Cl  4py       -1.041621  0.000000
  0Cl  5pz       -0.008258  0.000000
  0Cl  5px        0.067948  0.000000
  0Cl  5py        0.276475 -0.000000
  0Cl  1dz2       0.000000  0.000002
  0Cl  1dxz       0.000000  0.000001
  0Cl  1dyz       0.000000 -0.000000
  0Cl  1dx2y2    -0.000000 -0.000004
  0Cl  1dxy       0.000000  0.000002



                    ********************************
                    * MULLIKEN POPULATION ANALYSIS *
                    ********************************

--------------------------------------------
MULLIKEN ATOMIC CHARGES AND SPIN POPULATIONS
--------------------------------------------
   0 Cl:   -0.000000    1.000000
Sum of atomic charges         :   -0.0000000
Sum of atomic spin populations:    1.0000000

-----------------------------------------------------
MULLIKEN REDUCED ORBITAL CHARGES AND SPIN POPULATIONS
-----------------------------------------------------
CHARGE
  0 Cls       :     5.997647  s :     5.997647
      pz      :     3.995881  p :    11.000000
      px      :     3.061709
      py      :     3.942411
      dz2     :     0.000574  d :     0.002353
      dxz     :     0.000027
      dyz     :     0.000002
      dx2y2   :     0.001369
      dxy     :     0.000382

SPIN
  0 Cls       :     0.000202  s :     0.000202
      pz      :     0.004119  p :     1.000000
      px      :     0.938291
      py      :     0.057589
      dz2     :    -0.000049  d :    -0.000202
      dxz     :    -0.000002
      dyz     :    -0.000000
      dx2y2   :    -0.000118
      dxy     :    -0.000033


                     *******************************
                     * LOEWDIN POPULATION ANALYSIS *
                     *******************************

-------------------------------------------
LOEWDIN ATOMIC CHARGES AND SPIN POPULATIONS
-------------------------------------------
   0 Cl:   -0.000000    1.000000

----------------------------------------------------
LOEWDIN REDUCED ORBITAL CHARGES AND SPIN POPULATIONS
----------------------------------------------------
CHARGE
  0 Cls       :     5.997647  s :     5.997647
      pz      :     3.995881  p :    11.000000
      px      :     3.061709
      py      :     3.942411
      dz2     :     0.000574  d :     0.002353
      dxz     :     0.000027
      dyz     :     0.000002
      dx2y2   :     0.001369
      dxy     :     0.000382

SPIN
  0 Cls       :     0.000202  s :     0.000202
      pz      :     0.004119  p :     1.000000
      px      :     0.938291
      py      :     0.057589
      dz2     :    -0.000049  d :    -0.000202
      dxz     :    -0.000002
      dyz     :    -0.000000
      dx2y2   :    -0.000118
      dxy     :    -0.000033


                      *****************************
                      * MAYER POPULATION ANALYSIS *
                      *****************************

  NA   - Mulliken gross atomic population
  ZA   - Total nuclear charge
  QA   - Mulliken gross atomic charge
  VA   - Mayer's total valence
  BVA  - Mayer's bonded valence
  FA   - Mayer's free valence

  ATOM       NA         ZA         QA         VA         BVA        FA
  0 Cl    17.0000    17.0000    -0.0000     1.0102     0.0000     1.0102

  Mayer bond orders larger than 0.100000


Now starting NBO....

 *********************************** NBO 7.0 ***********************************
             N A T U R A L   A T O M I C   O R B I T A L   A N D
          N A T U R A L   B O N D   O R B I T A L   A N A L Y S I S
 *********************** Giovanni  F. Caramori (I101916) ***********************
  (c) Copyright 1996-2020 Board of Regents of the University of Wisconsin System
      on behalf of the Theoretical Chemistry Institute.  All rights reserved.

          Cite this program [NBO 7.0.8 (11-Feb-2020)] as:

          NBO 7.0.  E. D. Glendening, J. K. Badenhoop, A. E. Reed,
          J. E. Carpenter, J. A. Bohmann, C. M. Morales, P. Karafiloglou,
          C. R. Landis, and F. Weinhold, Theoretical Chemistry Institute,
          University of Wisconsin, Madison, WI (2018)

       /NPA    / : Natural Population Analysis
       /NBO    / : Natural Bond Orbital Analysis
       /AONBO  / : Checkpoint the AO to NBO transformation
       /ARCHIVE/ : Write the archive file to lfn47

 Job title: ORCA Job: Cl·


 NATURAL POPULATIONS:  Natural atomic orbital occupancies

  NAO Atom No lang   Type(AO)    Occupancy     Spin
 -----------------------------------------------------
   1   Cl  1  s      Cor( 1s)     2.00000     0.00000
   2   Cl  1  s      Cor( 2s)     2.00000     0.00000
   3   Cl  1  s      Val( 3s)     1.99762     0.00020
   4   Cl  1  s      Ryd( 4s)     0.00003     0.00000
   5   Cl  1  s      Ryd( 5s)     0.00000     0.00000
   6   Cl  1  s      Ryd( 6s)     0.00000     0.00000
   7   Cl  1  px     Cor( 2p)     1.99999     0.00001
   8   Cl  1  px     Val( 3p)     1.06079     0.93739
   9   Cl  1  px     Ryd( 4p)     0.00092     0.00090
  10   Cl  1  px     Ryd( 5p)     0.00000     0.00000
  11   Cl  1  px     Ryd( 6p)     0.00000     0.00000
  12   Cl  1  py     Cor( 2p)     2.00000     0.00000
  13   Cl  1  py     Val( 3p)     1.94216     0.05772
  14   Cl  1  py     Ryd( 4p)     0.00025    -0.00013
  15   Cl  1  py     Ryd( 5p)     0.00000     0.00000
  16   Cl  1  py     Ryd( 6p)     0.00000     0.00000
  17   Cl  1  pz     Cor( 2p)     2.00000     0.00000
  18   Cl  1  pz     Val( 3p)     1.99567     0.00432
  19   Cl  1  pz     Ryd( 4p)     0.00021    -0.00020
  20   Cl  1  pz     Ryd( 5p)     0.00000     0.00000
  21   Cl  1  pz     Ryd( 6p)     0.00000     0.00000
  22   Cl  1  dxy    Ryd( 3d)     0.00038    -0.00003
  23   Cl  1  dxz    Ryd( 3d)     0.00003     0.00000
  24   Cl  1  dyz    Ryd( 3d)     0.00000     0.00000
  25   Cl  1  dx2y2  Ryd( 3d)     0.00137    -0.00012
  26   Cl  1  dz2    Ryd( 3d)     0.00057    -0.00005


 Summary of Natural Population Analysis:

                                     Natural Population                 Natural
             Natural    ---------------------------------------------    Spin
  Atom No    Charge        Core      Valence    Rydberg      Total      Density
 -------------------------------------------------------------------------------
   Cl  1    0.00000      9.99999     6.99624    0.00377    17.00000     1.00000
 ===============================================================================
 * Total *  0.00000      9.99999     6.99624    0.00377    17.00000     1.00000

                                 Natural Population
 ---------------------------------------------------------
   Core                       9.99999 ( 99.9999% of   10)
   Valence                    6.99624 ( 99.9462% of    7)
   Natural Minimal Basis     16.99623 ( 99.9778% of   17)
   Natural Rydberg Basis      0.00377 (  0.0222% of   17)
 ---------------------------------------------------------

    Atom No         Natural Electron Configuration
 ----------------------------------------------------------------------------
     Cl  1      [core]3s( 2.00)3p( 5.00)


 ***************************************************
 *******         Alpha spin orbitals         *******
 ***************************************************


 NATURAL POPULATIONS:  Natural atomic orbital occupancies

  NAO Atom No lang   Type(AO)    Occupancy      Energy
 -------------------------------------------------------
   1   Cl  1  s      Cor( 1s)     1.00000    -104.40517
   2   Cl  1  s      Cor( 2s)     1.00000     -11.09988
   3   Cl  1  s      Val( 3s)     0.99891      -1.13845
   4   Cl  1  s      Ryd( 4s)     0.00002       1.00877
   5   Cl  1  s      Ryd( 5s)     0.00000       9.83410
   6   Cl  1  s      Ryd( 6s)     0.00000     218.54173
   7   Cl  1  px     Cor( 2p)     1.00000      -8.10059
   8   Cl  1  px     Val( 3p)     0.99909      -0.57524
   9   Cl  1  px     Ryd( 4p)     0.00091       0.38106
  10   Cl  1  px     Ryd( 5p)     0.00000       2.49693
  11   Cl  1  px     Ryd( 6p)     0.00000      26.00601
  12   Cl  1  py     Cor( 2p)     1.00000      -8.07823
  13   Cl  1  py     Val( 3p)     0.99994      -0.51025
  14   Cl  1  py     Ryd( 4p)     0.00006       0.41028
  15   Cl  1  py     Ryd( 5p)     0.00000       2.54436
  16   Cl  1  py     Ryd( 6p)     0.00000      26.04539
  17   Cl  1  pz     Cor( 2p)     1.00000      -8.07688
  18   Cl  1  pz     Val( 3p)     0.99999      -0.50631
  19   Cl  1  pz     Ryd( 4p)     0.00001       0.41205
  20   Cl  1  pz     Ryd( 5p)     0.00000       2.54724
  21   Cl  1  pz     Ryd( 6p)     0.00000      26.04778
  22   Cl  1  dxy    Ryd( 3d)     0.00017       1.05657
  23   Cl  1  dxz    Ryd( 3d)     0.00001       1.05960
  24   Cl  1  dyz    Ryd( 3d)     0.00000       1.10792
  25   Cl  1  dx2y2  Ryd( 3d)     0.00063       1.05632
  26   Cl  1  dz2    Ryd( 3d)     0.00026       1.09264


 Summary of Natural Population Analysis:

                                     Natural Population
             Natural    ---------------------------------------------
  Atom No    Charge        Core      Valence    Rydberg      Total
 --------------------------------------------------------------------
   Cl  1   -0.50000      5.00000     3.99794    0.00206     9.00000
 ====================================================================
 * Total * -0.50000      5.00000     3.99794    0.00206     9.00000

                                 Natural Population
 ---------------------------------------------------------
   Core                       5.00000 (100.0000% of    5)
   Valence                    3.99794 ( 99.9484% of    4)
   Natural Minimal Basis      8.99794 ( 99.9771% of    9)
   Natural Rydberg Basis      0.00206 (  0.0229% of    9)
 ---------------------------------------------------------

    Atom No         Natural Electron Configuration
 ----------------------------------------------------------------------------
     Cl  1      [core]3s( 1.00)3p( 3.00)


 NATURAL BOND ORBITAL ANALYSIS, alpha spin orbitals:

                            Occupancies       Lewis Structure    Low   High
         Max    Occ     -------------------  -----------------   occ   occ
  Cycle  Ctr   Thresh    Lewis   non-Lewis     CR  BD  nC  LP    (L)   (NL)
 ============================================================================
    1     1     0.50     9.00000   0.00000      5   0   0   4     0      0
 ----------------------------------------------------------------------------

 Structure accepted: No low occupancy Lewis orbitals

 -------------------------------------------------------
   Core                      5.00000 (100.000% of   5)
   Valence Lewis             4.00000 (100.000% of   4)
  ==================      =============================
   Total Lewis               9.00000 (100.000% of   9)
  -----------------------------------------------------
   Valence non-Lewis         0.00000 (  0.000% of   9)
   Rydberg non-Lewis         0.00000 (  0.000% of   9)
  ==================      =============================
   Total non-Lewis           0.00000 (  0.000% of   9)
 -------------------------------------------------------


     (Occupancy)   Bond orbital / Coefficients / Hybrids
 ------------------ Lewis ------------------------------------------------------
   1. (1.00000) CR ( 1)Cl  1            s(100.00%)
                                         1.0000  0.0000  0.0000  0.0000  0.0000
                                         0.0000  0.0000  0.0000  0.0000  0.0000
                                         0.0000  0.0000  0.0000  0.0000  0.0000
                                         0.0000  0.0000  0.0000  0.0000  0.0000
                                         0.0000  0.0000  0.0000  0.0000  0.0000
                                         0.0000
   2. (1.00000) CR ( 2)Cl  1            s(100.00%)
                                         0.0000  1.0000  0.0000  0.0000  0.0000
                                         0.0000  0.0000  0.0000  0.0000  0.0000
                                         0.0000  0.0000  0.0000  0.0000  0.0000
                                         0.0000  0.0000  0.0000  0.0000  0.0000
                                         0.0000  0.0000  0.0000  0.0000  0.0000
                                         0.0000
   3. (1.00000) CR ( 3)Cl  1            s(  0.00%)p 1.00(100.00%)
                                         0.0000  0.0000  0.0000  0.0000  0.0000
                                         0.0000  1.0000  0.0000  0.0000  0.0000
                                         0.0000  0.0000  0.0000  0.0000  0.0000
                                         0.0000  0.0000  0.0000  0.0000  0.0000
                                         0.0000  0.0000  0.0000  0.0000  0.0000
                                         0.0000
   4. (1.00000) CR ( 4)Cl  1            s(  0.00%)p 1.00(100.00%)
                                         0.0000  0.0000  0.0000  0.0000  0.0000
                                         0.0000  0.0000  0.0000  0.0000  0.0000
                                         0.0000  1.0000  0.0000  0.0000  0.0000
                                         0.0000  0.0000  0.0000  0.0000  0.0000
                                         0.0000  0.0000  0.0000  0.0000  0.0000
                                         0.0000
   5. (1.00000) CR ( 5)Cl  1            s(  0.00%)p 1.00(100.00%)
                                         0.0000  0.0000  0.0000  0.0000  0.0000
                                         0.0000  0.0000  0.0000  0.0000  0.0000
                                         0.0000  0.0000  0.0000  0.0000  0.0000
                                         0.0000  1.0000  0.0000  0.0000  0.0000
                                         0.0000  0.0000  0.0000  0.0000  0.0000
                                         0.0000
   6. (1.00000) LP ( 1)Cl  1            s( 99.89%)p 0.00(  0.00%)d 0.00(  0.11%)
                                         0.0000  0.0000  0.9995  0.0040  0.0000
                                         0.0000  0.0000  0.0000  0.0000  0.0000
                                         0.0000  0.0000  0.0000  0.0000  0.0000
                                         0.0000  0.0000  0.0000  0.0000  0.0000
                                         0.0000 -0.0132 -0.0035  0.0009  0.0250
                                        -0.0162
   7. (1.00000) LP ( 2)Cl  1            s(  0.00%)p 1.00(100.00%)
                                         0.0000  0.0000  0.0000  0.0000  0.0000
                                         0.0000  0.0000  0.9995 -0.0291  0.0000
                                         0.0000  0.0000  0.0000  0.0075  0.0000
                                         0.0000  0.0000  0.0000  0.0020  0.0000
                                         0.0000  0.0000  0.0000  0.0000  0.0000
                                         0.0000
   8. (1.00000) LP ( 3)Cl  1            s(  0.00%)p 1.00(100.00%)
                                         0.0000  0.0000  0.0000  0.0000  0.0000
                                         0.0000  0.0000  0.0002  0.0075  0.0000
                                         0.0000  0.0000  1.0000 -0.0006  0.0001
                                         0.0000  0.0000  0.0000 -0.0005  0.0000
                                         0.0000  0.0000  0.0000  0.0000  0.0000
                                         0.0000
   9. (1.00000) LP ( 4)Cl  1            s(  0.00%)p 1.00(100.00%)
                                         0.0000  0.0000  0.0000  0.0000  0.0000
                                         0.0000  0.0000  0.0001  0.0020  0.0000
                                         0.0000  0.0000  0.0000 -0.0005  0.0000
                                         0.0000  0.0000  1.0000  0.0012  0.0001
                                         0.0000  0.0000  0.0000  0.0000  0.0000
                                         0.0000
 ---------------- non-Lewis ----------------------------------------------------
  10. (0.00000) RY ( 1)Cl  1            s( 70.41%)p 0.00(  0.00%)d 0.42( 29.59%)
  11. (0.00000) RY ( 2)Cl  1            s( 38.59%)p 0.00(  0.00%)d 1.59( 61.41%)
  12. (0.00000) RY ( 3)Cl  1            s( 91.79%)p 0.00(  0.00%)d 0.09(  8.21%)
  13. (0.00000) RY ( 4)Cl  1            s(  0.00%)p 1.00(100.00%)
  14. (0.00000) RY ( 5)Cl  1            s(  0.00%)p 1.00(100.00%)
  15. (0.00000) RY ( 6)Cl  1            s(  0.00%)p 1.00(100.00%)
  16. (0.00000) RY ( 7)Cl  1            s(  0.00%)p 1.00(100.00%)
  17. (0.00000) RY ( 8)Cl  1            s(  0.00%)p 1.00(100.00%)
  18. (0.00000) RY ( 9)Cl  1            s(  0.00%)p 1.00(100.00%)
  19. (0.00000) RY (10)Cl  1            s(  0.00%)p 1.00(100.00%)
  20. (0.00000) RY (11)Cl  1            s(  0.00%)p 1.00(100.00%)
  21. (0.00000) RY (12)Cl  1            s(  0.00%)p 1.00(100.00%)
  22. (0.00000) RY (13)Cl  1            s( 15.58%)p 0.00(  0.00%)d 5.42( 84.42%)
  23. (0.00000) RY (14)Cl  1            s(  0.57%)p 0.00(  0.00%)d99.99( 99.43%)
  24. (0.00000) RY (15)Cl  1            s(  0.01%)p 0.00(  0.00%)d99.99( 99.99%)
  25. (0.00000) RY (16)Cl  1            s( 78.70%)p 0.00(  0.00%)d 0.27( 21.30%)
  26. (0.00000) RY (17)Cl  1            s(  4.46%)p 0.00(  0.00%)d21.44( 95.54%)


 NHO DIRECTIONALITY AND BOND BENDING (deviation from line of nuclear centers at
                                      the position of maximum hybrid amplitude)

         [Thresholds for printing:  angular deviation  >  1.0 degree]
                                    p- or d-character  > 25.0%
                                    orbital occupancy  >  0.10e

                        Line of Centers        Hybrid 1             Hybrid 2
                        ---------------  -------------------  ------------------
           NBO            Theta   Phi    Theta   Phi    Dev   Theta   Phi    Dev
 ===============================================================================
   7. LP ( 2)Cl  1          --     --     90.1  359.7   --      --     --    --
   8. LP ( 3)Cl  1          --     --     90.0   90.3   --      --     --    --
   9. LP ( 4)Cl  1          --     --      0.1  166.1   --      --     --    --


 SECOND ORDER PERTURBATION THEORY ANALYSIS OF FOCK MATRIX IN NBO BASIS

     Threshold for printing:   0.25 kcal/mol
                                                          E(2) E(NL)-E(L) F(L,NL)
      Donor (L) NBO              Acceptor (NL) NBO      kcal/mol   a.u.    a.u.
 ===============================================================================

 within unit  1
       None above threshold


 NATURAL BOND ORBITALS (Summary):

                                                     Principal Delocalizations
           NBO                 Occupancy    Energy   (geminal,vicinal,remote)
 ===============================================================================
 Molecular unit  1  (Cl)
 ------ Lewis --------------------------------------
    1. CR ( 1)Cl  1             1.00000  -104.40517
    2. CR ( 2)Cl  1             1.00000   -11.09988
    3. CR ( 3)Cl  1             1.00000    -8.10059
    4. CR ( 4)Cl  1             1.00000    -8.07823
    5. CR ( 5)Cl  1             1.00000    -8.07688
    6. LP ( 1)Cl  1             1.00000    -1.14083
    7. LP ( 2)Cl  1             1.00000    -0.57611
    8. LP ( 3)Cl  1             1.00000    -0.51030
    9. LP ( 4)Cl  1             1.00000    -0.50631
 ------ non-Lewis ----------------------------------
   10. RY ( 1)Cl  1             0.00000     2.59760
   11. RY ( 2)Cl  1             0.00000     4.50254
   12. RY ( 3)Cl  1             0.00000   169.08718
   13. RY ( 4)Cl  1             0.00000     0.89814
   14. RY ( 5)Cl  1             0.00000     1.89008
   15. RY ( 6)Cl  1             0.00000    25.65543
   16. RY ( 7)Cl  1             0.00000     1.15931
   17. RY ( 8)Cl  1             0.00000     2.31895
   18. RY ( 9)Cl  1             0.00000    25.96193
   19. RY (10)Cl  1             0.00000     0.71258
   20. RY (11)Cl  1             0.00000     2.31895
   21. RY (12)Cl  1             0.00000    25.97667
   22. RY (13)Cl  1             0.00000    11.99001
   23. RY (14)Cl  1             0.00000     1.46691
   24. RY (15)Cl  1             0.00000     1.11311
   25. RY (16)Cl  1             0.00000    40.62483
   26. RY (17)Cl  1             0.00000     3.37785
          -------------------------------
                 Total Lewis    9.00000  (100.0000%)
           Valence non-Lewis    0.00000  (  0.0000%)
           Rydberg non-Lewis    0.00000  (  0.0000%)
          -------------------------------
               Total unit  1    9.00000  (100.0000%)
              Charge unit  1   -0.50000


 ***************************************************
 *******         Beta  spin orbitals         *******
 ***************************************************


 NATURAL POPULATIONS:  Natural atomic orbital occupancies

  NAO Atom No lang   Type(AO)    Occupancy      Energy
 -------------------------------------------------------
   1   Cl  1  s      Cor( 1s)     1.00000    -104.39486
   2   Cl  1  s      Cor( 2s)     1.00000     -11.08788
   3   Cl  1  s      Val( 3s)     0.99871      -1.01557
   4   Cl  1  s      Ryd( 4s)     0.00002       1.03552
   5   Cl  1  s      Ryd( 5s)     0.00000       9.85374
   6   Cl  1  s      Ryd( 6s)     0.00000     218.54778
   7   Cl  1  px     Cor( 2p)     0.99999      -8.05413
   8   Cl  1  px     Val( 3p)     0.06170      -0.05529
   9   Cl  1  px     Ryd( 4p)     0.00001       0.43698
  10   Cl  1  px     Ryd( 5p)     0.00000       2.56889
  11   Cl  1  px     Ryd( 6p)     0.00000      26.02803
  12   Cl  1  py     Cor( 2p)     1.00000      -8.06977
  13   Cl  1  py     Val( 3p)     0.94222      -0.45391
  14   Cl  1  py     Ryd( 4p)     0.00019       0.41961
  15   Cl  1  py     Ryd( 5p)     0.00000       2.55832
  16   Cl  1  py     Ryd( 6p)     0.00000      26.05148
  17   Cl  1  pz     Cor( 2p)     1.00000      -8.07072
  18   Cl  1  pz     Val( 3p)     0.99568      -0.47811
  19   Cl  1  pz     Ryd( 4p)     0.00020       0.41855
  20   Cl  1  pz     Ryd( 5p)     0.00000       2.55768
  21   Cl  1  pz     Ryd( 6p)     0.00000      26.05291
  22   Cl  1  dxy    Ryd( 3d)     0.00021       1.15442
  23   Cl  1  dxz    Ryd( 3d)     0.00001       1.15277
  24   Cl  1  dyz    Ryd( 3d)     0.00000       1.12386
  25   Cl  1  dx2y2  Ryd( 3d)     0.00074       1.15411
  26   Cl  1  dz2    Ryd( 3d)     0.00031       1.13274


 Summary of Natural Population Analysis:

                                     Natural Population
             Natural    ---------------------------------------------
  Atom No    Charge        Core      Valence    Rydberg      Total
 --------------------------------------------------------------------
   Cl  1    0.50000      4.99999     2.99830    0.00171     8.00000
 ====================================================================
 * Total *  0.50000      4.99999     2.99830    0.00171     8.00000

                                 Natural Population
 ---------------------------------------------------------
   Core                       4.99999 ( 99.9999% of    5)
   Valence                    2.99830 ( 99.9433% of    3)
   Natural Minimal Basis      7.99829 ( 99.9787% of    8)
   Natural Rydberg Basis      0.00171 (  0.0213% of    8)
 ---------------------------------------------------------

    Atom No         Natural Electron Configuration
 ----------------------------------------------------------------------------
     Cl  1      [core]3s( 1.00)3p( 2.00)


 NATURAL BOND ORBITAL ANALYSIS, beta spin orbitals:

                            Occupancies       Lewis Structure    Low   High
         Max    Occ     -------------------  -----------------   occ   occ
  Cycle  Ctr   Thresh    Lewis   non-Lewis     CR  BD  nC  LP    (L)   (NL)
 ============================================================================
    1     1     0.50     7.99999   0.00001      5   0   0   3     0      0
 ----------------------------------------------------------------------------

 Structure accepted: No low occupancy Lewis orbitals

 -------------------------------------------------------
   Core                      4.99999 (100.000% of   5)
   Valence Lewis             3.00000 (100.000% of   3)
  ==================      =============================
   Total Lewis               7.99999 (100.000% of   8)
  -----------------------------------------------------
   Valence non-Lewis         0.00000 (  0.000% of   8)
   Rydberg non-Lewis         0.00001 (  0.000% of   8)
  ==================      =============================
   Total non-Lewis           0.00001 (  0.000% of   8)
 -------------------------------------------------------


     (Occupancy)   Bond orbital / Coefficients / Hybrids
 ------------------ Lewis ------------------------------------------------------
   1. (1.00000) CR ( 1)Cl  1            s(100.00%)
                                         1.0000  0.0000  0.0000  0.0000  0.0000
                                         0.0000  0.0000  0.0000  0.0000  0.0000
                                         0.0000  0.0000  0.0000  0.0000  0.0000
                                         0.0000  0.0000  0.0000  0.0000  0.0000
                                         0.0000  0.0000  0.0000  0.0000  0.0000
                                         0.0000
   2. (1.00000) CR ( 2)Cl  1            s(100.00%)
                                         0.0000  1.0000  0.0000  0.0000  0.0000
                                         0.0000  0.0000  0.0000  0.0000  0.0000
                                         0.0000  0.0000  0.0000  0.0000  0.0000
                                         0.0000  0.0000  0.0000  0.0000  0.0000
                                         0.0000  0.0000  0.0000  0.0000  0.0000
                                         0.0000
   3. (0.99999) CR ( 3)Cl  1            s(  0.00%)p 1.00(100.00%)
                                         0.0000  0.0000  0.0000  0.0000  0.0000
                                         0.0000  1.0000  0.0000  0.0000  0.0000
                                         0.0000  0.0000  0.0000  0.0000  0.0000
                                         0.0000  0.0000  0.0000  0.0000  0.0000
                                         0.0000  0.0000  0.0000  0.0000  0.0000
                                         0.0000
   4. (1.00000) CR ( 4)Cl  1            s(  0.00%)p 1.00(100.00%)
                                         0.0000  0.0000  0.0000  0.0000  0.0000
                                         0.0000  0.0000  0.0000  0.0000  0.0000
                                         0.0000  1.0000  0.0000  0.0000  0.0000
                                         0.0000  0.0000  0.0000  0.0000  0.0000
                                         0.0000  0.0000  0.0000  0.0000  0.0000
                                         0.0000
   5. (1.00000) CR ( 5)Cl  1            s(  0.00%)p 1.00(100.00%)
                                         0.0000  0.0000  0.0000  0.0000  0.0000
                                         0.0000  0.0000  0.0000  0.0000  0.0000
                                         0.0000  0.0000  0.0000  0.0000  0.0000
                                         0.0000  1.0000  0.0000  0.0000  0.0000
                                         0.0000  0.0000  0.0000  0.0000  0.0000
                                         0.0000
   6. (1.00000) LP ( 1)Cl  1            s( 99.87%)p 0.00(  0.00%)d 0.00(  0.13%)
                                         0.0000  0.0000  0.9994 -0.0040  0.0000
                                         0.0000  0.0000  0.0000  0.0000  0.0000
                                         0.0000  0.0000  0.0000  0.0000  0.0000
                                         0.0000  0.0000  0.0000  0.0000  0.0000
                                         0.0000  0.0144  0.0038 -0.0010 -0.0273
                                         0.0177
   7. (1.00000) LP ( 2)Cl  1            s(  0.00%)p 1.00(100.00%)
                                         0.0000  0.0000  0.0000  0.0000  0.0000
                                         0.0000  0.0000  0.2404  0.0034  0.0000
                                         0.0000  0.0000  0.9706  0.0138 -0.0001
                                         0.0000  0.0000  0.0000  0.0000  0.0000
                                         0.0000  0.0000  0.0000  0.0000  0.0000
                                         0.0000
   8. (1.00000) LP ( 3)Cl  1            s(  0.00%)p 1.00(100.00%)
                                         0.0000  0.0000  0.0000  0.0000  0.0000
                                         0.0000  0.0000  0.0623  0.0009  0.0000
                                         0.0000  0.0000 -0.0154 -0.0002  0.0000
                                         0.0000  0.0000  0.9978  0.0142 -0.0001
                                         0.0000  0.0000  0.0000  0.0000  0.0000
                                         0.0000
 ---------------- non-Lewis ----------------------------------------------------
   9. (0.00000) LV ( 1)Cl  1            s(  0.00%)p 1.00(100.00%)
  10. (0.00001) RY ( 1)Cl  1            s(  0.00%)p 1.00(100.00%)
  11. (0.00000) RY ( 2)Cl  1            s( 73.52%)p 0.00(  0.00%)d 0.36( 26.48%)
  12. (0.00000) RY ( 3)Cl  1            s( 41.44%)p 0.00(  0.00%)d 1.41( 58.56%)
  13. (0.00000) RY ( 4)Cl  1            s( 91.50%)p 0.00(  0.00%)d 0.09(  8.50%)
  14. (0.00000) RY ( 5)Cl  1            s(  0.00%)p 1.00(100.00%)
  15. (0.00000) RY ( 6)Cl  1            s(  0.00%)p 1.00(100.00%)
  16. (0.00000) RY ( 7)Cl  1            s(  0.00%)p 1.00(100.00%)
  17. (0.00000) RY ( 8)Cl  1            s(  0.00%)p 1.00(100.00%)
  18. (0.00000) RY ( 9)Cl  1            s(  0.00%)p 1.00(100.00%)
  19. (0.00000) RY (10)Cl  1            s(  0.00%)p 1.00(100.00%)
  20. (0.00000) RY (11)Cl  1            s(  0.00%)p 1.00(100.00%)
  21. (0.00000) RY (12)Cl  1            s(  0.00%)p 1.00(100.00%)
  22. (0.00000) RY (13)Cl  1            s( 13.79%)p 0.00(  0.00%)d 6.25( 86.21%)
  23. (0.00000) RY (14)Cl  1            s(  0.17%)p 0.00(  0.00%)d99.99( 99.83%)
  24. (0.00000) RY (15)Cl  1            s(  0.01%)p 0.00(  0.00%)d99.99( 99.99%)
  25. (0.00000) RY (16)Cl  1            s( 76.08%)p 0.00(  0.00%)d 0.31( 23.92%)
  26. (0.00000) RY (17)Cl  1            s(  3.62%)p 0.00(  0.00%)d26.64( 96.38%)


 NHO DIRECTIONALITY AND BOND BENDING (deviation from line of nuclear centers at
                                      the position of maximum hybrid amplitude)

         [Thresholds for printing:  angular deviation  >  1.0 degree]
                                    p- or d-character  > 25.0%
                                    orbital occupancy  >  0.10e

                        Line of Centers        Hybrid 1             Hybrid 2
                        ---------------  -------------------  ------------------
           NBO            Theta   Phi    Theta   Phi    Dev   Theta   Phi    Dev
 ===============================================================================
   7. LP ( 2)Cl  1          --     --     90.0  256.1   --      --     --    --
   8. LP ( 3)Cl  1          --     --      3.7  346.1   --      --     --    --


 SECOND ORDER PERTURBATION THEORY ANALYSIS OF FOCK MATRIX IN NBO BASIS

     Threshold for printing:   0.25 kcal/mol
                                                          E(2) E(NL)-E(L) F(L,NL)
      Donor (L) NBO              Acceptor (NL) NBO      kcal/mol   a.u.    a.u.
 ===============================================================================

 within unit  1
       None above threshold


 NATURAL BOND ORBITALS (Summary):

                                                     Principal Delocalizations
           NBO                 Occupancy    Energy   (geminal,vicinal,remote)
 ===============================================================================
 Molecular unit  1  (Cl)
 ------ Lewis --------------------------------------
    1. CR ( 1)Cl  1             1.00000  -104.39486
    2. CR ( 2)Cl  1             1.00000   -11.08788
    3. CR ( 3)Cl  1             0.99999    -8.05413
    4. CR ( 4)Cl  1             1.00000    -8.06977
    5. CR ( 5)Cl  1             1.00000    -8.07072
    6. LP ( 1)Cl  1             1.00000    -1.01840
    7. LP ( 2)Cl  1             1.00000    -0.48016
    8. LP ( 3)Cl  1             1.00000    -0.48016
 ------ non-Lewis ----------------------------------
    9. LV ( 1)Cl  1             0.00000    -0.02861
   10. RY ( 1)Cl  1             0.00001     2.27992
   11. RY ( 2)Cl  1             0.00000     2.50868
   12. RY ( 3)Cl  1             0.00000     4.85084
   13. RY ( 4)Cl  1             0.00000   171.50925
   14. RY ( 5)Cl  1             0.00000     0.74014
   15. RY ( 6)Cl  1             0.00000    26.03596
   16. RY ( 7)Cl  1             0.00000     1.01831
   17. RY ( 8)Cl  1             0.00000     1.93121
   18. RY ( 9)Cl  1             0.00000    26.06060
   19. RY (10)Cl  1             0.00000     1.03463
   20. RY (11)Cl  1             0.00000     1.93121
   21. RY (12)Cl  1             0.00000    26.06210
   22. RY (13)Cl  1             0.00000    11.44759
   23. RY (14)Cl  1             0.00000     1.24211
   24. RY (15)Cl  1             0.00000     1.12926
   25. RY (16)Cl  1             0.00000    38.64489
   26. RY (17)Cl  1             0.00000     3.82515
          -------------------------------
                 Total Lewis    7.99999  ( 99.9999%)
           Valence non-Lewis    0.00000  (  0.0000%)
           Rydberg non-Lewis    0.00001  (  0.0001%)
          -------------------------------
               Total unit  1    8.00000  (100.0000%)
              Charge unit  1    0.50000

 $CHOOSE
  ALPHA
   LONE 1 4 END
  END
  BETA
   LONE 1 3 END
  END
 $END

 NBO analysis completed in 0.05 CPU seconds (0 wall seconds)
 Maximum scratch memory used by NBO was 353527 words (2.70 MB)
Stopping NBO...Storing NBOs: Cl·.nbo

                                *** returned from  NBO  program ***

-------
TIMINGS
-------

Total SCF time: 0 days 0 hours 0 min 2 sec 

Total time                  ....       2.839 sec
Sum of individual times     ....       2.512 sec  ( 88.5%)

Fock matrix formation       ....       2.203 sec  ( 77.6%)
Diagonalization             ....       0.005 sec  (  0.2%)
Density matrix formation    ....       0.001 sec  (  0.0%)
Population analysis         ....       0.123 sec  (  4.3%)
Initial guess               ....       0.113 sec  (  4.0%)
Orbital Transformation      ....       0.000 sec  (  0.0%)
Orbital Orthonormalization  ....       0.000 sec  (  0.0%)
DIIS solution               ....       0.003 sec  (  0.1%)


           ************************************************************
           *        Program running with 12 parallel MPI-processes    *
           *              working on a common directory               *
           ************************************************************

------------------------------------------------------------------------------
                                ORCA  MP2 
------------------------------------------------------------------------------


----------
MP2 ENERGY (disk based algorithm)
----------

Dimension of the basis                    ...   26
Memory devoted to MP2                     ... 3000 MB   
Data format for buffers                   ... DOUBLE
Compression type for matrix containers    ... UNCOMPRESSED

-------------------------------
PARTIAL EXCHANGE TRANSFORMATION
-------------------------------

Transformation type                        ... two-operators
Generation of integrals (i,mue|j,nue)      ... ON
Generation of integrals (mue,kappa|nue,tau)... OFF
Generation of integrals (i,mue|a,nue)      ... OFF
Dimension of the basis                     ...   26
Number of internal alpha-MOs               ...    9 (   0-   8)
Number of internal beta-MOs                ...    8 (   0-   7)
Pair cutoff                                ... 2.500e-12 Eh
Number of AO pairs in the trafo            ...  351
Total Number of distinct AO pairs          ...  351
Memory devoted for trafo                   ... 3000.0 MB 
Max. Number of MO pairs treated together   ... 581680      
Number Format for Storage                  ... Double (8 Byte)
Integral package used                      ... LIBINT

Starting integral evaluation:
    ... done with AO integral generation
Closing buffer AOK[aa] ( 0.00 GB; CompressionRatio= 1.49)
Closing buffer AOK[bb] ( 0.00 GB; CompressionRatio= 1.47)
Closing buffer AOK[ab] ( 0.00 GB; CompressionRatio= 1.47)
Closing buffer AOK[ba] ( 0.00 GB; CompressionRatio= 1.51)
Collecting buffer AOK 
Number of alpha/alpha MO pairs in trafo    ...   45
Number of beta /beta  MO pairs in trafo    ...   36
Number of alpha/ beta MO pairs in trafo    ...   72
------------------------
SORTING OF (i,mue|j,nue)
------------------------

SORTING OF ALPHA/ALPHA PAIRS
IBATCH = 1 of  1
Closing buffer KAO[aa] ( 0.00 GB; CompressionRatio= 1.00)
Collecting buffer KAO 
SORTING OF BETA /BETA  PAIRS
IBATCH = 1 of  1
Closing buffer KAO[bb] ( 0.00 GB; CompressionRatio= 1.00)
Collecting buffer KAO 
SORTING OF ALPHA/BETA  PAIRS
IBATCH = 1 of  1
Closing buffer KAO[ab] ( 0.00 GB; CompressionRatio= 0.997785977860)
Collecting buffer KAO[ab] 
N(AO-Batches) Done                         ...       144 
N(AO-Batches) Skipped                      ...         0 
N(IJ)-pairs Skipped                        ...         0 
TOTAL TIME for half transformation         ...     0.033 sec
AO-integral generation                     ...     0.001 sec
Half transformation                        ...     0.001 sec
K-integral sorting                         ...     0.012 sec

Finished integral transformation - now doing MP2 part

OPERATOR COMBINATION   0   0: ij=(  0..  8,  0..  8)
Process  2:   Internal MO   2
Process  5:   Internal MO   5
Process  8:   Internal MO   8
Process  2:   Internal MO   2
Process  5:   Internal MO   5
Process  8:   Internal MO   8
OPERATOR COMBINATION   0   1: ij=(  0..  8,  0..  7)
Process  5:   Internal MO   5
Process  2:   Internal MO   2
OPERATOR COMBINATION   1   1: ij=(  0..  7,  0..  7)

Correlation energy components
 E2 and T2 for alpha/alpha pairs :     -0.023749327 Eh 
 E2 and T2 for beta/beta   pairs :     -0.014317081 Eh 
 E2 and T2 for alpha/beta  pairs :     -0.122629248 Eh 

-----------------------------------------------
 MP2 CORRELATION ENERGY   :     -0.160695656 Eh
-----------------------------------------------


-------
TIMINGS
-------
Total time                :    0.137 sec
Integral trafo            :    0.036 sec ( 26.3%)
K(i,j)                    :    0.000 sec (  0.1%)
T(i,j)                    :    0.000 sec (  0.0%)

---------------------------------------
MP2 TOTAL ENERGY:     -459.633760056 Eh
---------------------------------------

-------------------------   --------------------
FINAL SINGLE POINT ENERGY      -459.633760055603
-------------------------   --------------------


                            ***************************************
                            *     ORCA property calculations      *
                            ***************************************


  WARNING: The energy has been calculated at the MP2 level but the densities
           used in the property calculations are still SCF densities
           MP2 response densities have not been calculated 
           use %mp2 Density relaxed end
           or  %mp2 Density unrelaxed end

                                    ---------------------
                                    Active property flags
                                    ---------------------
   (+) Dipole Moment


------------------------------------------------------------------------------
                       ORCA ELECTRIC PROPERTIES CALCULATION
------------------------------------------------------------------------------

Dipole Moment Calculation                       ... on
Quadrupole Moment Calculation                   ... off
Polarizability Calculation                      ... off
GBWName                                         ... Cl·.gbw
Electron density file                           ... Cl·.scfp
The origin for moment calculation is the CENTER OF MASS  = ( 0.000000,  0.000000  0.000000)

-------------
DIPOLE MOMENT
-------------
                                X             Y             Z
Electronic contribution:      0.00000       0.00000       0.00000
Nuclear contribution   :      0.00000       0.00000       0.00000
                        -----------------------------------------
Total Dipole Moment    :      0.00000       0.00000       0.00000
                        -----------------------------------------
Magnitude (a.u.)       :      0.00000
Magnitude (Debye)      :      0.00000



--------------------
Rotational spectrum 
--------------------
 
Rotational constants in cm-1:     0.000000     0.000000     0.000000 
Rotational constants in MHz :     0.000000     0.000000     0.000000 

 Dipole components along the rotational axes: 
x,y,z [a.u.] :     0.000000     0.000000     0.000000 
x,y,z [Debye]:     0.000000     0.000000     0.000000 

 
------------------------------------------------------------------------------
                         ORCA MP2 H E S S I A N CALCULATION
------------------------------------------------------------------------------

Calculating analytic MP2 second derivatives ... (>Cl·.last_mp2) done
Warning: T+R mode no 3 is zero 
Warning: T+R mode no 4 is zero 
Warning: T+R mode no 5 is zero 
WARNING     : the number of degrees of freedom found cannot be correct
CONSEQUENCE : will not project translation and rotation

-----------------------
VIBRATIONAL FREQUENCIES
-----------------------

Scaling factor for frequencies =  1.000000000  (already applied!)

   0:         0.00 cm**-1
   1:         0.00 cm**-1
   2:         0.00 cm**-1


------------
NORMAL MODES
------------

These modes are the Cartesian displacements weighted by the diagonal matrix
M(i,i)=1/sqrt(m[i]) where m[i] is the mass of the displaced atom
Thus, these vectors are normalized but *not* orthogonal

                   0          1          2    
      0       0.000208   0.002852  -0.999996
      1      -0.001188   0.999995   0.002852
      2       0.999999   0.001187   0.000211


-----------
IR SPECTRUM
-----------

 Mode    freq (cm**-1)   T**2         TX         TY         TZ
-------------------------------------------------------------------

The first frequency considered to be a vibration is 0
The total number of vibrations considered is 3


--------------------------
THERMOCHEMISTRY AT 298.15K
--------------------------

Temperature         ... 298.15 K
Pressure            ... 1.00 atm
Total Mass          ... 35.45 AMU
The molecule is recognized as being linear

Throughout the following assumptions are being made:
  (1) The electronic state is orbitally nondegenerate
      but the spin degeneracy is treated
  (2) There are no thermally accessible electronically excited states
  (3) Hindered rotations indicated by low frequency modes are not
      treated as such but are treated as vibrations and this may
      cause some error
  (4) All equations used are the standard statistical mechanics
      equations for an ideal gas
  (5) All vibrations are strictly harmonic

freq.       0.00  E(vib)   ...       0.59 
freq.       0.00  E(vib)   ...       0.59 
freq.       0.00  E(vib)   ...       0.59 

------------
INNER ENERGY
------------

The inner energy is: U= E(el) + E(ZPE) + E(vib) + E(rot) + E(trans)
    E(el)   - is the total energy from the electronic structure calculation
              = E(kin-el) + E(nuc-el) + E(el-el) + E(nuc-nuc)
    E(ZPE)  - the the zero temperature vibrational energy from the frequency calculation
    E(vib)  - the the finite temperature correction to E(ZPE) due to population
              of excited vibrational states
    E(rot)  - is the rotational thermal energy
    E(trans)- is the translational thermal energy

Summary of contributions to the inner energy U:
Electronic energy                ...   -459.63376006 Eh
Zero point energy                ...      0.00000003 Eh       0.00 kcal/mol
Thermal vibrational correction   ...      0.00283260 Eh       1.78 kcal/mol
Thermal rotational correction    ...      0.00000000 Eh       0.00 kcal/mol
Thermal translational correction ...      0.00141627 Eh       0.89 kcal/mol
-----------------------------------------------------------------------
Total thermal energy                   -459.62951116 Eh


Summary of corrections to the electronic energy:
(perhaps to be used in another calculation)
Total thermal correction                  0.00424887 Eh       2.67 kcal/mol
Non-thermal (ZPE) correction              0.00000003 Eh       0.00 kcal/mol
-----------------------------------------------------------------------
Total correction                          0.00424890 Eh       2.67 kcal/mol


--------
ENTHALPY
--------

The enthalpy is H = U + kB*T
                kB is Boltzmann's constant
Total free energy                 ...   -459.62951116 Eh 
Thermal Enthalpy correction       ...      0.00094421 Eh       0.59 kcal/mol
-----------------------------------------------------------------------
Total Enthalpy                    ...   -459.62856695 Eh


Note: Rotational entropy computed according to Herzberg 
Infrared and Raman Spectra, Chapter V,1, Van Nostrand Reinhold, 1945 
Point Group:  Kh, Symmetry Number:   1  
Rotational constants in cm-1:     0.000000     0.000000     0.000000 

Vibrational entropy computed according to the QRRHO of S. Grimme
Chem.Eur.J. 2012 18 9955


-------
ENTROPY
-------

The entropy contributions are T*S = T*(S(el)+S(vib)+S(rot)+S(trans))
     S(el)   - electronic entropy
     S(vib)  - vibrational entropy
     S(rot)  - rotational entropy
     S(trans)- translational entropy
The entropies will be listed as mutliplied by the temperature to get
units of energy

Electronic entropy                ...      0.00065446 Eh      0.41 kcal/mol
Vibrational entropy               ...            -inf Eh      -inf kcal/mol
Rotational entropy                ...      0.00000000 Eh      0.00 kcal/mol
Translational entropy             ...      0.01740262 Eh     10.92 kcal/mol
-----------------------------------------------------------------------
Final entropy term                ...            -inf Eh      -inf kcal/mol

In case the symmetry of your molecule has not been determined correctly
or in case you have a reason to use a different symmetry number we print 
out the resulting rotational entropy values for sn=1,12 :
 --------------------------------------------------------
|  sn= 1 | S(rot)=             -inf Eh      -inf kcal/mol|
|  sn= 2 | S(rot)=             -inf Eh      -inf kcal/mol|
|  sn= 3 | S(rot)=             -inf Eh      -inf kcal/mol|
|  sn= 4 | S(rot)=             -inf Eh      -inf kcal/mol|
|  sn= 5 | S(rot)=             -inf Eh      -inf kcal/mol|
|  sn= 6 | S(rot)=             -inf Eh      -inf kcal/mol|
|  sn= 7 | S(rot)=             -inf Eh      -inf kcal/mol|
|  sn= 8 | S(rot)=             -inf Eh      -inf kcal/mol|
|  sn= 9 | S(rot)=             -inf Eh      -inf kcal/mol|
|  sn=10 | S(rot)=             -inf Eh      -inf kcal/mol|
|  sn=11 | S(rot)=             -inf Eh      -inf kcal/mol|
|  sn=12 | S(rot)=             -inf Eh      -inf kcal/mol|
 --------------------------------------------------------


-------------------
GIBBS FREE ENERGY
-------------------

The Gibbs free energy is G = H - T*S

Total enthalpy                    ...   -459.62856695 Eh 
Total entropy correction          ...             inf Eh       inf kcal/mol
-----------------------------------------------------------------------
Final Gibbs free energy         ...             inf Eh

For completeness - the Gibbs free energy minus the electronic energy
G-E(el)                           ...             inf Eh       inf kcal/mol


Timings for individual modules:

Sum of individual times         ...        7.446 sec (=   0.124 min)
GTO integral calculation        ...        0.725 sec (=   0.012 min)   9.7 %
SCF iterations                  ...        3.119 sec (=   0.052 min)  41.9 %
MP2 module                      ...        0.451 sec (=   0.008 min)   6.1 %
Analytical frequency calculation...        3.152 sec (=   0.053 min)  42.3 %
                             ****ORCA TERMINATED NORMALLY****
TOTAL RUN TIME: 0 days 0 hours 0 minutes 7 seconds 834 msec
