
                                 *****************
                                 * O   R   C   A *
                                 *****************

           --- An Ab Initio, DFT and Semiempirical electronic structure package ---

                  #######################################################
                  #                        -***-                        #
                  #          Department of theory and spectroscopy      #
                  #               Directorship: Frank Neese             #
                  #        Max Planck Institute fuer Kohlenforschung    #
                  #                Kaiser Wilhelm Platz 1               #
                  #                 D-45470 Muelheim/Ruhr               #
                  #                      Germany                        #
                  #                                                     #
                  #                  All rights reserved                #
                  #                        -***-                        #
                  #######################################################


                         Program Version 4.2.1 -  RELEASE  -


 With contributions from (in alphabetic order):
   Daniel Aravena         : Magnetic Suceptibility
   Michael Atanasov       : Ab Initio Ligand Field Theory (pilot matlab implementation)
   Alexander A. Auer      : GIAO ZORA, VPT2
   Ute Becker             : Parallelization
   Giovanni Bistoni       : ED, misc. LED, open-shell LED, HFLD
   Martin Brehm           : Molecular dynamics
   Dmytro Bykov           : SCF Hessian
   Vijay G. Chilkuri      : MRCI spin determinant printing, contributions to CSF-ICE
   Dipayan Datta          : RHF DLPNO-CCSD density
   Achintya Kumar Dutta   : EOM-CC, STEOM-CC
   Dmitry Ganyushin       : Spin-Orbit,Spin-Spin,Magnetic field MRCI
   Miquel Garcia          : C-PCM Hessian, Gaussian charge scheme
   Yang Guo               : DLPNO-NEVPT2, CIM, IAO-localization
   Andreas Hansen         : Spin unrestricted coupled pair/coupled cluster methods
   Benjamin Helmich-Paris : CASSCF linear response (MC-RPA)
   Lee Huntington         : MR-EOM, pCC
   Robert Izsak           : Overlap fitted RIJCOSX, COSX-SCS-MP3, EOM
   Christian Kollmar      : KDIIS, OOCD, Brueckner-CCSD(T), CCSD density
   Simone Kossmann        : Meta GGA functionals, TD-DFT gradient, OOMP2, MP2 Hessian
   Martin Krupicka        : AUTO-CI
   Lucas Lang             : DCDCAS
   Dagmar Lenk            : GEPOL surface, SMD
   Dimitrios Liakos       : Extrapolation schemes; Compound Job, initial MDCI parallelization
   Dimitrios Manganas     : Further ROCIS development; embedding schemes
   Dimitrios Pantazis     : SARC Basis sets
   Taras Petrenko         : DFT Hessian,TD-DFT gradient, ASA, ECA, R-Raman, ABS, FL, XAS/XES, NRVS
   Peter Pinski           : DLPNO-MP2, DLPNO-MP2 Gradient
   Christoph Reimann      : Effective Core Potentials
   Marius Retegan         : Local ZFS, SOC
   Christoph Riplinger    : Optimizer, TS searches, QM/MM, DLPNO-CCSD(T), (RO)-DLPNO pert. Triples
   Tobias Risthaus        : Range-separated hybrids, TD-DFT gradient, RPA, STAB
   Michael Roemelt        : Original ROCIS implementation
   Masaaki Saitow         : Open-shell DLPNO-CCSD energy and density
   Barbara Sandhoefer     : DKH picture change effects
   Avijit Sen             : IP-ROCIS
   Kantharuban Sivalingam : CASSCF convergence, NEVPT2, FIC-MRCI
   Bernardo de Souza      : ESD, SOC TD-DFT
   Georgi Stoychev        : AutoAux, RI-MP2 NMR
   Willem Van den Heuvel  : Paramagnetic NMR
   Boris Wezisla          : Elementary symmetry handling
   Frank Wennmohs         : Technical directorship


 We gratefully acknowledge several colleagues who have allowed us to
 interface, adapt or use parts of their codes:
   Stefan Grimme, W. Hujo, H. Kruse,             : VdW corrections, initial TS optimization,
                  C. Bannwarth                     DFT functionals, gCP, sTDA/sTD-DF
   Ed Valeev, F. Pavosevic, A. Kumar             : LibInt (2-el integral package), F12 methods
   Garnet Chan, S. Sharma, J. Yang, R. Olivares  : DMRG
   Ulf Ekstrom                                   : XCFun DFT Library
   Mihaly Kallay                                 : mrcc  (arbitrary order and MRCC methods)
   Andreas Klamt, Michael Diedenhofen            : otool_cosmo (COSMO solvation model)
   Jiri Pittner, Ondrej Demel                    : Mk-CCSD
   Frank Weinhold                                : gennbo (NPA and NBO analysis)
   Christopher J. Cramer and Donald G. Truhlar   : smd solvation model
   Lars Goerigk                                  : TD-DFT with DH, B97 family of functionals
   V. Asgeirsson, H. Jonsson                     : NEB implementation
   FAccTs GmbH                                   : IRC, NEB, NEB-TS, Multilevel, MM, QM/MM, CI optimization
   S Lehtola, MJT Oliveira, MAL Marques          : LibXC Library


 Your calculation uses the libint2 library for the computation of 2-el integrals
 For citations please refer to: http://libint.valeyev.net

 Your ORCA version has been built with support for libXC version: 4.2.3
 For citations please refer to: https://tddft.org/programs/libxc/

 This ORCA versions uses:
   CBLAS   interface :  Fast vector & matrix operations
   LAPACKE interface :  Fast linear algebra routines
   SCALAPACK package :  Parallel linear algebra routines


----- Orbital basis set information -----
Your calculation utilizes the basis: 6-311G(d,p)
   H, Li - Ne  : R. Krishnan, J. S. Binkley, R. Seeger and J. A. Pople, J. Chem. Phys. 72, 650 (1980).
   Na - Ar     : A. D. McLean and G. S. Chandler J. Chem. Phys. 72, 5639, (1980).
   K  - Ca     : J.-P. Blaudeau, M. P. McGrath, L. A. Curtiss and L. Radom, J. Chem. Phys. 107, 5016 (1997).
   Ga - Kr     : L. A. Curtiss, M. P. McGrath, J.-P. Blandeau, N. E. Davis, R. C. Binning and L. Radom, J. Chem. Phys. 103, 6104 (1995).
   Pol./Diff.
   H, Li - Cl  : T. Clark, J. Chandrasekhar and P. v. R. Schleyer, J. Comp. Chem. 4, 294 (1983).
   H - Ne      : M. J. Frisch, J. A. Pople and J. S. Binkley, J. Chem. Phys. 80, 3265 (1984).

================================================================================
                                        WARNINGS
                       Please study these warnings very carefully!
================================================================================


WARNING: Geometry Optimization
  ===> : Switching off AutoStart
         For restart on a previous wavefunction, please use MOREAD

WARNING: Post HF methods need fully converged wavefunctions
  ===> : Setting SCFConvForced true
         You can overwrite this default with %scf ConvForced false 


INFO   : the flag for use of LIBINT has been found!

================================================================================
                                       INPUT FILE
================================================================================
NAME = H3CHCl‡.inp
|  1> ! UHF MP2 6-311G(d,p) OptTS Freq IRC NoFrozenCore TightOpt TightSCF Grid4 FinalGrid5 PrintBasis PrintMOs NBO
|  2> %maxcore 2000
|  3> 
|  4> *xyz 0 2
|  5> C        0.000084000      0.000009000      1.937284000
|  6> H       -1.056738000      0.000072000      2.154239000
|  7> H        0.528433000     -0.915241000      2.154332000
|  8> H       -0.000001000     -0.000097000      0.597378000
|  9> H        0.528527000      0.915228000      2.154201000
| 10> Cl      -0.000303000      0.000029000     -0.853145000
| 11> *
| 12> 
| 13> %pal
| 14>  nprocs 12
| 15> end
| 16> 
| 17> %geom
| 18>  inhess read
| 19>  inhessname "freq.hess"
| 20>  ts_mode
| 21>   {B 0 3}
| 22>  end
| 23>  ts_active_atoms
| 24>   {0 3 5}
| 25>  end
| 26>  modify_internal
| 27>   {B 0 3 A}
| 28>   {B 3 5 A}
| 29>  end
| 30> end
| 31> 
| 32> %irc
| 33>  maxiter 1000
| 34>  de_init_displ 0.25
| 35> end
| 36> 
| 37>                          ****END OF INPUT****
================================================================================

                       *****************************
                       * Geometry Optimization Run *
                       *****************************

Geometry optimization settings:
Update method            Update   .... Bofill
Choice of coordinates    CoordSys .... Z-matrix Internals
Initial Hessian          InHess   .... Read

Convergence Tolerances:
Energy Change            TolE     ....  1.0000e-06 Eh
Max. Gradient            TolMAXG  ....  1.0000e-04 Eh/bohr
RMS Gradient             TolRMSG  ....  3.0000e-05 Eh/bohr
Max. Displacement        TolMAXD  ....  1.0000e-03 bohr
RMS Displacement         TolRMSD  ....  6.0000e-04 bohr
Strict Convergence                ....  False
------------------------------------------------------------------------------
                        ORCA OPTIMIZATION COORDINATE SETUP
------------------------------------------------------------------------------

The optimization will be done in new redundant internal coordinates
Making redundant internal coordinates   ...  (new redundants) Bond   3,  0 is already included
Bond   5,  3 is already included
done
Following TS mode number                ...    internal coordinate number:  3
TS-active-atoms for coordinate setup... 0 3 5 
Evaluating the initial hessian          ... (Reading Exact Hessian)...  
InHessName: freq.hess	The file <freq.hess> is opened as a .hess file
done
done
Diagonalizing the Hessian               .... done
Dimension of the hessian                .... 14
Lowest eigenvalues of the non projected Hessian:
 -0.028192024 -0.000000000  0.000000000  0.001913964  0.024211389
done
Evaluating the coordinates              ...  done
Calculating the B-matrix                .... done
Calculating the G-matrix                .... done
Diagonalizing the G-matrix              .... done
The first mode is                       ....    2
The number of degrees of freedom        ....   12

    -----------------------------------------------------------------
                    Redundant Internal Coordinates


    -----------------------------------------------------------------
         Definition                    Initial Value    d2E/dq (diagonal element)
    -----------------------------------------------------------------
      1. B(H   1,C   0)                  1.0789         0.371159   
      2. B(H   2,C   0)                  1.0789         0.371161   
      3. B(H   3,C   0)                  1.3399        -0.009445   
      4. B(H   4,C   0)                  1.0789         0.371172   
      5. B(Cl  5,C   0)                  2.7904         0.039856   
      6. B(Cl  5,H   3)                  1.4505         0.016045   
      7. A(H   1,C   0,H   2)          116.0602         0.084903   
      8. A(H   1,C   0,H   4)          116.0611         0.084900   
      9. A(H   1,C   0,H   3)          101.5974         0.069356   
     10. A(H   2,C   0,H   4)          116.0621         0.084893   
     11. A(H   3,C   0,H   4)          101.6048         0.069348   
     12. A(H   2,C   0,H   3)          101.6040         0.069350   
     13. L(C   0,H   3,Cl  5,H   1, 1) 179.9917         0.024376   
     14. L(C   0,H   3,Cl  5,H   1, 2) 179.9831         0.001923   
    -----------------------------------------------------------------

Number of atoms                         .... 6
Number of degrees of freedom            .... 14

         *************************************************************
         *                GEOMETRY OPTIMIZATION CYCLE   1            *
         *************************************************************
---------------------------------
CARTESIAN COORDINATES (ANGSTROEM)
---------------------------------
  C      0.000084    0.000009    1.937284
  H     -1.056738    0.000072    2.154239
  H      0.528433   -0.915241    2.154332
  H     -0.000001   -0.000097    0.597378
  H      0.528527    0.915228    2.154201
  Cl    -0.000303    0.000029   -0.853145

----------------------------
CARTESIAN COORDINATES (A.U.)
----------------------------
  NO LB      ZA    FRAG     MASS         X           Y           Z
   0 C     6.0000    0    12.011    0.000159    0.000017    3.660936
   1 H     1.0000    0     1.008   -1.996945    0.000136    4.070922
   2 H     1.0000    0     1.008    0.998594   -1.729555    4.071097
   3 H     1.0000    0     1.008   -0.000002   -0.000183    1.128881
   4 H     1.0000    0     1.008    0.998771    1.729530    4.070850
   5 Cl   17.0000    0    35.453   -0.000573    0.000055   -1.612210

--------------------------------
INTERNAL COORDINATES (ANGSTROEM)
--------------------------------
 C      0   0   0     0.000000000000     0.00000000     0.00000000
 H      1   0   0     1.078861536842     0.00000000     0.00000000
 H      1   2   0     1.078862856254   116.06023616     0.00000000
 H      1   2   3     1.339906006889   101.59743710   109.20437234
 H      1   2   3     1.078856249506   116.06108958   218.41004330
 Cl     4   1   2     1.450523036911   179.98738136    48.90260338

---------------------------
INTERNAL COORDINATES (A.U.)
---------------------------
 C      0   0   0     0.000000000000     0.00000000     0.00000000
 H      1   0   0     2.038752841054     0.00000000     0.00000000
 H      1   2   0     2.038755334381   116.06023616     0.00000000
 H      1   2   3     2.532055398216   101.59743710   109.20437234
 H      1   2   3     2.038742849436   116.06108958   218.41004330
 Cl     4   1   2     2.741091290705   179.98738136    48.90260338

---------------------
BASIS SET INFORMATION
---------------------
There are 3 groups of distinct atoms

 Group   1 Type C   : 11s5p1d contracted to 4s3p1d pattern {6311/311/1}
 Group   2 Type H   : 5s1p contracted to 3s1p pattern {311/1}
 Group   3 Type Cl  : 13s10p1d contracted to 6s5p1d pattern {631111/52111/1}

Atom   0C    basis set group =>   1
Atom   1H    basis set group =>   2
Atom   2H    basis set group =>   2
Atom   3H    basis set group =>   2
Atom   4H    basis set group =>   2
Atom   5Cl   basis set group =>   3

-------------------------
BASIS SET IN INPUT FORMAT
-------------------------

 # Basis set for element : H 
 NewGTO H 
 S 3 
   1      33.8650000000      0.0254938145
   2       5.0947900000      0.1903731086
   3       1.1587900000      0.8521614860
 S 1 
   1       0.3258400000      1.0000000000
 S 1 
   1       0.1027410000      1.0000000000
 P 1 
   1       0.7500000000      1.0000000000
  end;

 # Basis set for element : C 
 NewGTO C 
 S 6 
   1    4563.2400000000      0.0019666502
   2     682.0240000000      0.0152306019
   3     154.9730000000      0.0761269097
   4      44.4553000000      0.2608010331
   5      13.0290000000      0.6164620782
   6       1.8277300000      0.2210060280
 S 3 
   1      20.9642000000      0.1146600807
   2       4.8033100000      0.9199996477
   3       1.4593300000     -0.0030306821
 P 3 
   1      20.9642000000      0.0402486927
   2       4.8033100000      0.2375939567
   3       1.4593300000      0.8158538515
 S 1 
   1       0.4834560000      1.0000000000
 P 1 
   1       0.4834560000      1.0000000000
 S 1 
   1       0.1455850000      1.0000000000
 P 1 
   1       0.1455850000      1.0000000000
 D 1 
   1       0.6260000000      1.0000000000
  end;

 # Basis set for element : Cl
 NewGTO Cl
 S 6 
   1  105819.0000000000      0.0007380002
   2   15872.0000000000      0.0057180019
   3    3619.6500000000      0.0294950099
   4    1030.8000000000      0.1172860392
   5     339.9080000000      0.3629491212
   6     124.5380000000      0.5841491951
 S 3 
   1     124.5380000000      0.1341769734
   2      49.5135000000      0.6242498762
   3      20.8056000000      0.2917559421
 S 1 
   1       6.5834600000      1.0000000000
 S 1 
   1       2.5646800000      1.0000000000
 S 1 
   1       0.5597630000      1.0000000000
 S 1 
   1       0.1832730000      1.0000000000
 P 5 
   1     589.7760000000      0.0023909997
   2     139.8490000000      0.0185039976
   3      45.1413000000      0.0813769893
   4      16.8733000000      0.2215519708
   5       6.7411000000      0.7725688983
 P 2 
   1       6.7411000000     -1.5722438126
   2       2.7715200000      0.9923888817
 P 1 
   1       1.0238700000      1.0000000000
 P 1 
   1       0.3813680000      1.0000000000
 P 1 
   1       0.1094370000      1.0000000000
 D 1 
   1       0.7500000000      1.0000000000
  end;



           ************************************************************
           *        Program running with 12 parallel MPI-processes    *
           *              working on a common directory               *
           ************************************************************
------------------------------------------------------------------------------
                           ORCA GTO INTEGRAL CALCULATION
------------------------------------------------------------------------------

                         BASIS SET STATISTICS AND STARTUP INFO

 # of primitive gaussian shells          ...   65
 # of primitive gaussian functions       ...  111
 # of contracted shells                  ...   36
 # of contracted basis functions         ...   68
 Highest angular momentum                ...    2
 Maximum contraction depth               ...    6
 Integral package used                   ... LIBINT
 Integral threshhold            Thresh   ...  2.500e-11
 Primitive cut-off              TCut     ...  2.500e-12


------------------------------ INTEGRAL EVALUATION ----------------------------


 * One electron integrals 
 Pre-screening matrix                    ... done
 Shell pair data                         ... done (   0.000 sec)



           ************************************************************
           *        Program running with 12 parallel MPI-processes    *
           *              working on a common directory               *
           ************************************************************
-------------------------------------------------------------------------------
                                 ORCA SCF
-------------------------------------------------------------------------------

------------
SCF SETTINGS
------------
Hamiltonian:
 Ab initio Hamiltonian  Method          .... Hartree-Fock(GTOs)


General Settings:
 Integral files         IntName         .... H3CHCl‡
 Hartree-Fock type      HFTyp           .... UHF
 Total Charge           Charge          ....    0
 Multiplicity           Mult            ....    2
 Number of Electrons    NEL             ....   27
 Basis Dimension        Dim             ....   68
 Nuclear Repulsion      ENuc            ....     46.9210599865 Eh

Convergence Acceleration:
 DIIS                   CNVDIIS         .... on
   Start iteration      DIISMaxIt       ....    12
   Startup error        DIISStart       ....  0.200000
   # of expansion vecs  DIISMaxEq       ....     5
   Bias factor          DIISBfac        ....   1.050
   Max. coefficient     DIISMaxC        ....  10.000
 Newton-Raphson         CNVNR           .... off
 SOSCF                  CNVSOSCF        .... off
 Level Shifting         CNVShift        .... on
   Level shift para.    LevelShift      ....    0.2500
   Turn off err/grad.   ShiftErr        ....    0.0010
 Zerner damping         CNVZerner       .... off
 Static damping         CNVDamp         .... on
   Fraction old density DampFac         ....    0.7000
   Max. Damping (<1)    DampMax         ....    0.9800
   Min. Damping (>=0)   DampMin         ....    0.0000
   Turn off err/grad.   DampErr         ....    0.1000
 Fernandez-Rico         CNVRico         .... off

SCF Procedure:
 Maximum # iterations   MaxIter         ....   125
 SCF integral mode      SCFMode         .... Direct
   Integral package                     .... LIBINT
 Reset frequency        DirectResetFreq ....    20
 Integral Threshold     Thresh          ....  2.500e-11 Eh
 Primitive CutOff       TCut            ....  2.500e-12 Eh

Convergence Tolerance:
 Convergence Check Mode ConvCheckMode   .... Total+1el-Energy
 Convergence forced     ConvForced      .... 1
 Energy Change          TolE            ....  1.000e-08 Eh
 1-El. energy change                    ....  1.000e-05 Eh
 DIIS Error             TolErr          ....  5.000e-07


Diagonalization of the overlap matrix:
Smallest eigenvalue                        ... 7.086e-03
Time for diagonalization                   ...    0.002 sec
Threshold for overlap eigenvalues          ... 1.000e-08
Number of eigenvalues below threshold      ... 0
Time for construction of square roots      ...    0.001 sec
Total time needed                          ...    0.003 sec

-------------------
DFT GRID GENERATION
-------------------

General Integration Accuracy     IntAcc      ...  4.670
Radial Grid Type                 RadialGrid  ... Gauss-Chebyshev
Angular Grid (max. acc.)         AngularGrid ... Lebedev-302
Angular grid pruning method      GridPruning ... 3 (G Style)
Weight generation scheme         WeightScheme... Becke
Basis function cutoff            BFCut       ...    1.0000e-11
Integration weight cutoff        WCut        ...    1.0000e-14
Grids for H and He will be reduced by one unit

# of grid points (after initial pruning)     ...  26526 (   0.0 sec)
# of grid points (after weights+screening)   ...  25705 (   0.0 sec)
nearest neighbour list constructed           ...    0.0 sec
Grid point re-assignment to atoms done       ...    0.0 sec
Grid point division into batches done        ...    0.1 sec
Reduced shell lists constructed in    0.1 sec

Total number of grid points                  ...    25705
Total number of batches                      ...      405
Average number of points per batch           ...       63
Average number of grid points per atom       ...     4284
Average number of shells per batch           ...    28.89 (80.24%)
Average number of basis functions per batch  ...    55.57 (81.72%)
Average number of large shells per batch     ...    27.14 (93.97%)
Average number of large basis fcns per batch ...    50.29 (90.49%)
Maximum spatial batch extension              ...   1.47,  1.65,  3.00 au
Average spatial batch extension              ...   0.08,  0.08,  0.08 au

Time for grid setup =    0.166 sec

------------------------------
INITIAL GUESS: MODEL POTENTIAL
------------------------------
Loading Hartree-Fock densities                     ... done
Calculating cut-offs                               ... done
Setting up the integral package                    ... done
Initializing the effective Hamiltonian             ... done
Starting the Coulomb interaction                   ... done (   0.0 sec)
Reading the grid                                   ... done
Mapping shells                                     ... done
Starting the XC term evaluation                    ... done (   0.0 sec)
Transforming the Hamiltonian                       ... done (   0.0 sec)
Diagonalizing the Hamiltonian                      ... done (   0.0 sec)
Back transforming the eigenvectors                 ... done (   0.0 sec)
Now organizing SCF variables                       ... done
                      ------------------
                      INITIAL GUESS DONE (   0.3 sec)
                      ------------------
--------------
SCF ITERATIONS
--------------
ITER       Energy         Delta-E        Max-DP      RMS-DP      [F,P]     Damp
               ***  Starting incremental Fock matrix formation  ***
  0   -499.5449942890   0.000000000000 0.02617014  0.00077286  0.6490715 0.7000
  1   -499.5775598928  -0.032565603764 0.01848850  0.00060835  0.4562075 0.7000
  2   -499.5986097245  -0.021049831767 0.01101684  0.00041708  0.3206035 0.7000
  3   -499.6126131517  -0.014003427146 0.00690534  0.00028859  0.2253521 0.7000
                               ***Turning on DIIS***
  4   -499.6223596115  -0.009746459817 0.00580101  0.00021056  0.1584222 0.7000
  5   -499.7014024906  -0.079042879135 0.00572820  0.00018288  0.1113801 0.7000
  6   -499.6944826102   0.006919880473 0.01737436  0.00053868  0.0781102 0.0000
  7   -499.6489867255   0.045495884702 0.00381828  0.00012711  0.0053280 0.0000
  8   -499.6451693092   0.003817416236 0.00352896  0.00012972  0.0037154 0.0000
  9   -499.6473633245  -0.002194015243 0.00169241  0.00007622  0.0021531 0.0000
 10   -499.6468894879   0.000473836577 0.00081979  0.00004053  0.0010935 0.0000
 11   -499.6473597358  -0.000470247891 0.00090090  0.00003717  0.0005905 0.0000
 12   -499.6474552256  -0.000095489859 0.00043093  0.00001299  0.0001289 0.0000
 13   -499.6475558418  -0.000100616201 0.00028561  0.00000713  0.0000715 0.0000
 14   -499.6476719966  -0.000116154771 0.00010403  0.00000296  0.0000226 0.0000
 15   -499.6476934467  -0.000021450090 0.00002074  0.00000108  0.0000097 0.0000
 16   -499.6477106458  -0.000017199144 0.00001336  0.00000062  0.0000034 0.0000
 17   -499.6477096991   0.000000946788 0.00000351  0.00000016  0.0000010 0.0000
                            ***DIIS convergence achieved***

               *****************************************************
               *                     SUCCESS                       *
               *           SCF CONVERGED AFTER  18 CYCLES          *
               *****************************************************


----------------
TOTAL SCF ENERGY
----------------

Total Energy       :         -499.64771103 Eh          -13596.10543 eV

Components:
Nuclear Repulsion  :           46.92105999 Eh            1276.78695 eV
Electronic Energy  :         -546.56877101 Eh          -14872.89238 eV
One Electron Energy:         -781.80631475 Eh          -21274.03138 eV
Two Electron Energy:          235.23754373 Eh            6401.13899 eV

Virial components:
Potential Energy   :         -999.35876416 Eh          -27193.93449 eV
Kinetic Energy     :          499.71105313 Eh           13597.82906 eV
Virial Ratio       :            1.99987324


---------------
SCF CONVERGENCE
---------------

  Last Energy change         ...   -1.3281e-06  Tolerance :   1.0000e-08
  Last MAX-Density change    ...    2.0245e-06  Tolerance :   1.0000e-07
  Last RMS-Density change    ...    7.8975e-08  Tolerance :   5.0000e-09
  Last DIIS Error            ...    2.7286e-07  Tolerance :   5.0000e-07

             **** THE GBW FILE WAS UPDATED (H3CHCl‡.gbw) ****
             **** DENSITY FILE WAS UPDATED (H3CHCl‡.scfp) ****
             **** ENERGY FILE WAS UPDATED (H3CHCl‡.en.tmp) ****
----------------------
UHF SPIN CONTAMINATION
----------------------

Expectation value of <S**2>     :     0.782860
Ideal value S*(S+1) for S=0.5   :     0.750000
Deviation                       :     0.032860

             **** THE GBW FILE WAS UPDATED (H3CHCl‡.gbw) ****
             **** DENSITY FILE WAS UPDATED (H3CHCl‡.scfp) ****
----------------
ORBITAL ENERGIES
----------------
                 SPIN UP ORBITALS
  NO   OCC          E(Eh)            E(eV) 
   0   1.0000    -104.823661     -2852.3968 
   1   1.0000     -11.282502      -307.0125 
   2   1.0000     -10.549885      -287.0770 
   3   1.0000      -8.027456      -218.4382 
   4   1.0000      -8.013318      -218.0535 
   5   1.0000      -8.013318      -218.0535 
   6   1.0000      -1.105607       -30.0851 
   7   1.0000      -1.004498       -27.3338 
   8   1.0000      -0.649782       -17.6815 
   9   1.0000      -0.620618       -16.8879 
  10   1.0000      -0.620613       -16.8878 
  11   1.0000      -0.455508       -12.3950 
  12   1.0000      -0.455508       -12.3950 
  13   1.0000      -0.420339       -11.4380 
  14   0.0000       0.144757         3.9390 
  15   0.0000       0.206463         5.6181 
  16   0.0000       0.206465         5.6182 
  17   0.0000       0.267686         7.2841 
  18   0.0000       0.335147         9.1198 
  19   0.0000       0.386360        10.5134 
  20   0.0000       0.386367        10.5136 
  21   0.0000       0.451671        12.2906 
  22   0.0000       0.466480        12.6936 
  23   0.0000       0.466494        12.6939 
  24   0.0000       0.582823        15.8594 
  25   0.0000       0.761430        20.7196 
  26   0.0000       0.767289        20.8790 
  27   0.0000       0.767292        20.8791 
  28   0.0000       0.953622        25.9494 
  29   0.0000       1.032487        28.0954 
  30   0.0000       1.032497        28.0957 
  31   0.0000       1.119003        30.4496 
  32   0.0000       1.163116        31.6500 
  33   0.0000       1.163116        31.6500 
  34   0.0000       1.197456        32.5844 
  35   0.0000       1.197458        32.5845 
  36   0.0000       1.359780        37.0015 
  37   0.0000       1.641816        44.6761 
  38   0.0000       1.641819        44.6762 
  39   0.0000       1.644060        44.7371 
  40   0.0000       1.719878        46.8003 
  41   0.0000       1.719908        46.8011 
  42   0.0000       1.818497        49.4838 
  43   0.0000       2.062856        56.1332 
  44   0.0000       2.104498        57.2663 
  45   0.0000       2.104510        57.2666 
  46   0.0000       2.391546        65.0773 
  47   0.0000       2.391566        65.0778 
  48   0.0000       2.503577        68.1258 
  49   0.0000       2.525517        68.7228 
  50   0.0000       2.525529        68.7231 
  51   0.0000       2.700030        73.4716 
  52   0.0000       2.700051        73.4721 
  53   0.0000       2.701883        73.5220 
  54   0.0000       2.772949        75.4558 
  55   0.0000       2.818736        76.7017 
  56   0.0000       2.898989        78.8855 
  57   0.0000       2.898995        78.8857 
  58   0.0000       3.177731        86.4704 
  59   0.0000       3.890211       105.8580 
  60   0.0000       4.125317       112.2556 
  61   0.0000       4.125331       112.2560 
  62   0.0000      10.395822       282.8847 
  63   0.0000      25.022318       680.8919 
  64   0.0000      26.279184       715.0929 
  65   0.0000      26.279186       715.0930 
  66   0.0000      26.728572       727.3214 
  67   0.0000     219.238624      5965.7863 

                 SPIN DOWN ORBITALS
  NO   OCC          E(Eh)            E(eV) 
   0   1.0000    -104.817426     -2852.2272 
   1   1.0000     -11.264017      -306.5095 
   2   1.0000     -10.543282      -286.8973 
   3   1.0000      -8.009689      -217.9547 
   4   1.0000      -8.009689      -217.9547 
   5   1.0000      -8.001582      -217.7341 
   6   1.0000      -1.052011       -28.6267 
   7   1.0000      -0.933100       -25.3909 
   8   1.0000      -0.608460       -16.5571 
   9   1.0000      -0.608456       -16.5569 
  10   1.0000      -0.554653       -15.0929 
  11   1.0000      -0.443126       -12.0581 
  12   1.0000      -0.443126       -12.0581 
  13   0.0000       0.013587         0.3697 
  14   0.0000       0.153734         4.1833 
  15   0.0000       0.211498         5.7551 
  16   0.0000       0.211501         5.7552 
  17   0.0000       0.294036         8.0011 
  18   0.0000       0.344459         9.3732 
  19   0.0000       0.388899        10.5825 
  20   0.0000       0.388906        10.5827 
  21   0.0000       0.470347        12.7988 
  22   0.0000       0.470361        12.7992 
  23   0.0000       0.489962        13.3325 
  24   0.0000       0.666127        18.1262 
  25   0.0000       0.781673        21.2704 
  26   0.0000       0.781676        21.2705 
  27   0.0000       0.787492        21.4288 
  28   0.0000       0.973136        26.4804 
  29   0.0000       1.065965        29.0064 
  30   0.0000       1.065976        29.0067 
  31   0.0000       1.160980        31.5919 
  32   0.0000       1.169054        31.8116 
  33   0.0000       1.169054        31.8116 
  34   0.0000       1.240570        33.7576 
  35   0.0000       1.240571        33.7577 
  36   0.0000       1.390492        37.8372 
  37   0.0000       1.641454        44.6662 
  38   0.0000       1.648224        44.8504 
  39   0.0000       1.648227        44.8505 
  40   0.0000       1.726154        46.9710 
  41   0.0000       1.726183        46.9718 
  42   0.0000       1.864387        50.7325 
  43   0.0000       2.073945        56.4349 
  44   0.0000       2.106981        57.3339 
  45   0.0000       2.106992        57.3342 
  46   0.0000       2.409340        65.5615 
  47   0.0000       2.409358        65.5620 
  48   0.0000       2.531883        68.8961 
  49   0.0000       2.533190        68.9316 
  50   0.0000       2.533204        68.9320 
  51   0.0000       2.691415        73.2371 
  52   0.0000       2.701772        73.5190 
  53   0.0000       2.701792        73.5195 
  54   0.0000       2.795027        76.0566 
  55   0.0000       2.854728        77.6811 
  56   0.0000       2.907150        79.1076 
  57   0.0000       2.907156        79.1077 
  58   0.0000       3.180260        86.5393 
  59   0.0000       3.921657       106.7137 
  60   0.0000       4.138695       112.6196 
  61   0.0000       4.138709       112.6200 
  62   0.0000      10.405386       283.1449 
  63   0.0000      25.035185       681.2420 
  64   0.0000      26.282086       715.1719 
  65   0.0000      26.282088       715.1720 
  66   0.0000      26.740865       727.6559 
  67   0.0000     219.242110      5965.8811 
------------------
MOLECULAR ORBITALS
------------------
                      0         1         2         3         4         5   
                 -104.82366 -11.28250 -10.54988  -8.02746  -8.01332  -8.01332
                   1.00000   1.00000   1.00000   1.00000   1.00000   1.00000
                  --------  --------  --------  --------  --------  --------
  0C   1s         0.000000 -0.563065  0.000013 -0.000003  0.000000 -0.000000
  0C   2s         0.000000 -0.466440  0.000005 -0.000002  0.000000 -0.000000
  0C   1pz        0.000001  0.000168 -0.000069  0.000031 -0.000000 -0.000000
  0C   1px        0.000000 -0.000000 -0.000000  0.000000 -0.000001  0.000008
  0C   1py        0.000000  0.000000 -0.000000  0.000000  0.000008  0.000001
  0C   3s        -0.000007 -0.005573  0.000600 -0.000114  0.000000 -0.000000
  0C   2pz       -0.000004  0.000181  0.000256 -0.000108  0.000000 -0.000000
  0C   2px        0.000000  0.000000 -0.000000 -0.000000  0.000006 -0.000041
  0C   2py       -0.000000 -0.000000  0.000000 -0.000000 -0.000041 -0.000006
  0C   4s         0.000048  0.001533 -0.004722  0.000777 -0.000000  0.000000
  0C   3pz       -0.000031 -0.000203  0.003028 -0.000426  0.000000 -0.000000
  0C   3px        0.000000 -0.000000 -0.000000  0.000000  0.000014 -0.000098
  0C   3py       -0.000000 -0.000000  0.000001 -0.000000 -0.000098 -0.000014
  0C   1dz2       0.000007 -0.000307 -0.000494  0.000101 -0.000000  0.000000
  0C   1dxz       0.000000 -0.000000 -0.000000  0.000000 -0.000002  0.000016
  0C   1dyz       0.000000 -0.000000 -0.000000  0.000000  0.000016  0.000002
  0C   1dx2y2    -0.000000  0.000000  0.000000 -0.000000 -0.000003  0.000021
  0C   1dxy      -0.000000 -0.000000  0.000000 -0.000000 -0.000021 -0.000003
  1H   1s         0.000001 -0.000385 -0.000097  0.000025 -0.000001  0.000007
  1H   2s        -0.000004 -0.000050  0.000465 -0.000135  0.000015 -0.000105
  1H   3s         0.000010 -0.000243 -0.000908  0.000069 -0.000008  0.000060
  1H   1pz        0.000000 -0.000017 -0.000034  0.000019 -0.000000  0.000001
  1H   1px        0.000001  0.000050 -0.000038  0.000006  0.000002 -0.000017
  1H   1py        0.000000 -0.000000 -0.000000  0.000000  0.000014  0.000002
  2H   1s         0.000001 -0.000385 -0.000097  0.000025  0.000007 -0.000003
  2H   2s        -0.000004 -0.000050  0.000466 -0.000135 -0.000098  0.000040
  2H   3s         0.000010 -0.000243 -0.000908  0.000069  0.000056 -0.000023
  2H   1pz        0.000000 -0.000017 -0.000034  0.000020  0.000001 -0.000000
  2H   1px       -0.000000 -0.000025  0.000019 -0.000003  0.000013  0.000008
  2H   1py        0.000001  0.000043 -0.000033  0.000005 -0.000011  0.000012
  3H   1s        -0.000002 -0.000140  0.000229 -0.000151 -0.000000  0.000000
  3H   2s         0.000002 -0.000129  0.000144 -0.000521  0.000000 -0.000000
  3H   3s        -0.000126 -0.000526  0.011056 -0.000471  0.000000 -0.000000
  3H   1pz       -0.000018  0.000074  0.001250 -0.000001  0.000000 -0.000000
  3H   1px       -0.000000  0.000000  0.000000  0.000000 -0.000007  0.000052
  3H   1py       -0.000000  0.000000  0.000000 -0.000000  0.000052  0.000007
  4H   1s         0.000001 -0.000385 -0.000097  0.000025 -0.000006 -0.000004
  4H   2s        -0.000004 -0.000050  0.000465 -0.000135  0.000084  0.000065
  4H   3s         0.000010 -0.000243 -0.000908  0.000069 -0.000048 -0.000037
  4H   1pz        0.000000 -0.000017 -0.000034  0.000019 -0.000001 -0.000000
  4H   1px       -0.000000 -0.000025  0.000019 -0.000003 -0.000014  0.000005
  4H   1py       -0.000001 -0.000043  0.000033 -0.000005 -0.000007 -0.000015
  5Cl  1s        -0.411723 -0.000001 -0.121962 -0.000529 -0.000000  0.000000
  5Cl  2s        -0.654658 -0.000001 -0.331569 -0.001460 -0.000000  0.000000
  5Cl  3s        -0.012120 -0.000003  0.512410  0.002362  0.000000 -0.000000
  5Cl  4s         0.000927  0.000008  0.604629  0.002779  0.000000  0.000000
  5Cl  5s        -0.000221 -0.000061  0.044354 -0.000534  0.000000 -0.000000
  5Cl  6s         0.000169  0.000319 -0.014348  0.000367 -0.000000  0.000000
  5Cl  1pz       -0.000091 -0.000004  0.004957 -1.230657  0.000111 -0.000234
  5Cl  1px       -0.000000  0.000000  0.000001 -0.000247 -0.168870  1.219672
  5Cl  1py        0.000000 -0.000000 -0.000000  0.000078  1.219672  0.168870
  5Cl  2pz       -0.000053  0.000005  0.001285 -0.327209  0.000030 -0.000062
  5Cl  2px       -0.000000  0.000000  0.000000 -0.000066 -0.044885  0.324182
  5Cl  2py        0.000000 -0.000000 -0.000000  0.000021  0.324182  0.044885
  5Cl  3pz        0.000057 -0.000029  0.000386 -0.050498  0.000004 -0.000009
  5Cl  3px        0.000000 -0.000000  0.000000 -0.000010 -0.006750  0.048755
  5Cl  3py       -0.000000  0.000000  0.000000  0.000003  0.048755  0.006750
  5Cl  4pz       -0.000039  0.000155  0.000625  0.002453 -0.000000  0.000000
  5Cl  4px       -0.000000  0.000000  0.000000  0.000000  0.000287 -0.002069
  5Cl  4py        0.000000 -0.000000 -0.000000 -0.000000 -0.002069 -0.000287
  5Cl  5pz        0.000049  0.000048 -0.003447 -0.000718  0.000000 -0.000000
  5Cl  5px        0.000000  0.000000 -0.000001 -0.000000 -0.000094  0.000676
  5Cl  5py       -0.000000 -0.000000  0.000000  0.000000  0.000676  0.000094
  5Cl  1dz2      -0.000003  0.000035  0.000671 -0.000343  0.000000 -0.000000
  5Cl  1dxz      -0.000000  0.000000  0.000000 -0.000000 -0.000044  0.000317
  5Cl  1dyz       0.000000 -0.000000 -0.000000  0.000000  0.000317  0.000044
  5Cl  1dx2y2     0.000000  0.000000  0.000000 -0.000000  0.000000 -0.000000
  5Cl  1dxy       0.000000  0.000000  0.000000 -0.000000  0.000000  0.000000
                      6         7         8         9        10        11   
                  -1.10561  -1.00450  -0.64978  -0.62062  -0.62061  -0.45551
                   1.00000   1.00000   1.00000   1.00000   1.00000   1.00000
                  --------  --------  --------  --------  --------  --------
  0C   1s        -0.032413 -0.101323  0.013722 -0.000000 -0.000003 -0.000000
  0C   2s        -0.053787 -0.168367  0.022506 -0.000000 -0.000004 -0.000000
  0C   1pz       -0.014525 -0.002592 -0.129317  0.000021  0.000029 -0.000008
  0C   1px       -0.000002 -0.000001 -0.000052 -0.059807 -0.189668  0.001257
  0C   1py       -0.000000 -0.000000 -0.000006 -0.189668  0.059807 -0.015162
  0C   3s         0.137558  0.439325 -0.053343  0.000000  0.000010 -0.000001
  0C   2pz       -0.035206 -0.018253 -0.224532  0.000034  0.000052 -0.000011
  0C   2px       -0.000003 -0.000001 -0.000084 -0.096331 -0.305496  0.002132
  0C   2py       -0.000003 -0.000002 -0.000012 -0.305495  0.096330 -0.025717
  0C   4s         0.091898  0.290494 -0.044708  0.000002  0.000008  0.000021
  0C   3pz       -0.019098  0.006732 -0.146520  0.000022  0.000036 -0.000023
  0C   3px        0.000001  0.000001 -0.000049 -0.059830 -0.189740  0.000506
  0C   3py       -0.000003  0.000000 -0.000007 -0.189739  0.059829 -0.006107
  0C   1dz2       0.012294  0.007030  0.027176 -0.000001 -0.000008 -0.000000
  0C   1dxz       0.000001  0.000000 -0.000001 -0.002257 -0.007165  0.000151
  0C   1dyz       0.000002  0.000001  0.000004 -0.007165  0.002262 -0.001818
  0C   1dx2y2     0.000000 -0.000000  0.000009  0.009142  0.029007 -0.000152
  0C   1dxy      -0.000000  0.000000  0.000000 -0.029006  0.009141 -0.001828
  1H   1s         0.022424  0.080413 -0.038419  0.048369  0.153425 -0.001096
  1H   2s         0.028666  0.103808 -0.054859  0.072967  0.231450 -0.002344
  1H   3s         0.003723 -0.004288 -0.016696  0.021424  0.067959 -0.001077
  1H   1pz       -0.001704 -0.003540 -0.006779 -0.001157 -0.003671 -0.000036
  1H   1px        0.007178  0.019793 -0.005221  0.005262  0.016692 -0.000171
  1H   1py       -0.000000 -0.000001 -0.000000 -0.009987  0.003148 -0.001333
  2H   1s         0.022423  0.080412 -0.038485  0.108681 -0.118584  0.011975
  2H   2s         0.028661  0.103807 -0.054956  0.163951 -0.178894  0.025571
  2H   3s         0.003722 -0.004289 -0.016719  0.048139 -0.052527  0.011782
  2H   1pz       -0.001704 -0.003541 -0.006778 -0.002602  0.002842  0.000389
  2H   1px       -0.003589 -0.009896  0.002612 -0.012598  0.000322 -0.001423
  2H   1py        0.006216  0.017142 -0.004529  0.006381 -0.014710  0.001323
  3H   1s         0.068279  0.035605  0.129181 -0.000006 -0.000033 -0.000001
  3H   2s         0.093109  0.062483  0.251810 -0.000014 -0.000064 -0.000007
  3H   3s        -0.041580  0.010240  0.007706 -0.000000 -0.000006 -0.000018
  3H   1pz       -0.014366  0.021549 -0.004055  0.000002  0.000003  0.000005
  3H   1px       -0.000004  0.000002 -0.000006 -0.003399 -0.010779 -0.001477
  3H   1py        0.000002  0.000001  0.000004 -0.010778  0.003399  0.017814
  4H   1s         0.022423  0.080413 -0.038481 -0.157043 -0.034810 -0.010883
  4H   2s         0.028664  0.103807 -0.054949 -0.236908 -0.052514 -0.023246
  4H   3s         0.003722 -0.004289 -0.016719 -0.069559 -0.015418 -0.010705
  4H   1pz       -0.001704 -0.003539 -0.006778  0.003759  0.000835 -0.000354
  4H   1px       -0.003590 -0.009897  0.002612  0.010506 -0.006960  0.001505
  4H   1py       -0.006216 -0.017141  0.004528  0.013663  0.008392  0.001082
  5Cl  1s         0.033121 -0.013338 -0.008371  0.000001  0.000002  0.000000
  5Cl  2s         0.095805 -0.038658 -0.024447  0.000002  0.000005  0.000000
  5Cl  3s        -0.189060  0.076926  0.050213 -0.000003 -0.000010 -0.000000
  5Cl  4s        -0.379959  0.152603  0.094053 -0.000006 -0.000018  0.000000
  5Cl  5s         0.574762 -0.231455 -0.138916  0.000009  0.000026 -0.000002
  5Cl  6s         0.513289 -0.226972 -0.198662  0.000013  0.000042  0.000010
  5Cl  1pz       -0.038857 -0.012863 -0.214843  0.000017  0.000053 -0.000021
  5Cl  1px       -0.000008 -0.000002 -0.000040  0.005135  0.016283  0.027606
  5Cl  1py        0.000003  0.000000  0.000016  0.016281 -0.005134 -0.333042
  5Cl  2pz       -0.010011 -0.003326 -0.052625  0.000004  0.000013 -0.000005
  5Cl  2px       -0.000002 -0.000001 -0.000010  0.001243  0.003942  0.006591
  5Cl  2py        0.000001  0.000000  0.000004  0.003941 -0.001243 -0.079513
  5Cl  3pz        0.027821  0.008917  0.154743 -0.000012 -0.000038  0.000015
  5Cl  3px        0.000006  0.000001  0.000029 -0.003686 -0.011688 -0.019850
  5Cl  3py       -0.000002 -0.000000 -0.000011 -0.011686  0.003685  0.239483
  5Cl  4pz        0.054667  0.015083  0.350279 -0.000028 -0.000088  0.000040
  5Cl  4px        0.000010  0.000002  0.000066 -0.008706 -0.027609 -0.049166
  5Cl  4py       -0.000003 -0.000001 -0.000026 -0.027605  0.008704  0.593157
  5Cl  5pz        0.017085 -0.000904  0.132682 -0.000011 -0.000034  0.000026
  5Cl  5px        0.000004 -0.000001  0.000025 -0.004074 -0.012919 -0.028237
  5Cl  5py       -0.000002  0.000001 -0.000010 -0.012917  0.004073  0.340666
  5Cl  1dz2       0.026253 -0.001589  0.028160 -0.000002 -0.000007  0.000001
  5Cl  1dxz       0.000009 -0.000001  0.000010 -0.000888 -0.002815 -0.001266
  5Cl  1dyz      -0.000003  0.000000 -0.000005 -0.002815  0.000888  0.015268
  5Cl  1dx2y2     0.000000  0.000000  0.000000  0.000027  0.000085 -0.000001
  5Cl  1dxy       0.000000  0.000000 -0.000000 -0.000085  0.000027 -0.000024
                     12        13        14        15        16        17   
                  -0.45551  -0.42034   0.14476   0.20646   0.20647   0.26769
                   1.00000   1.00000   0.00000   0.00000   0.00000   0.00000
                  --------  --------  --------  --------  --------  --------
  0C   1s         0.000000  0.015638 -0.046968 -0.000001  0.000000  0.007740
  0C   2s         0.000001  0.027435 -0.075973 -0.000001  0.000000  0.012370
  0C   1pz       -0.000005  0.190197  0.043364 -0.000007  0.000006  0.103286
  0C   1px        0.015165  0.000000  0.000003 -0.033156 -0.133200  0.000001
  0C   1py        0.001257  0.000010 -0.000001  0.133199 -0.033155  0.000009
  0C   3s        -0.000003 -0.083877  0.083840  0.000000 -0.000004  0.017502
  0C   2pz       -0.000006  0.331794  0.054398 -0.000001  0.000009  0.092179
  0C   2px        0.025721 -0.000000 -0.000001 -0.017629 -0.070817 -0.000001
  0C   2py        0.002132  0.000019  0.000001  0.070814 -0.017625  0.000006
  0C   4s         0.000010 -0.187267  2.038544  0.000053  0.000027 -0.771593
  0C   3pz       -0.000013  0.328318  0.208989 -0.000068  0.000030  1.171667
  0C   3px        0.006112 -0.000007 -0.000001 -0.278190 -1.117621  0.000090
  0C   3py        0.000507  0.000026 -0.000002  1.117629 -0.278198  0.000045
  0C   1dz2      -0.000000 -0.021494  0.008773  0.000003  0.000001  0.025089
  0C   1dxz       0.001818  0.000001  0.000001  0.003728  0.014968 -0.000004
  0C   1dyz       0.000151 -0.000004  0.000001 -0.014970  0.003724  0.000008
  0C   1dx2y2    -0.001828  0.000000  0.000001 -0.007190 -0.028870  0.000000
  0C   1dxy       0.000152 -0.000000  0.000001 -0.028868  0.007192  0.000000
  1H   1s        -0.013199  0.023285 -0.018130 -0.004377 -0.017579 -0.023452
  1H   2s        -0.028189  0.045954  0.008671  0.035253  0.141590  0.007991
  1H   3s        -0.012981  0.030939 -0.955281 -0.528998 -2.124676 -0.472179
  1H   1pz       -0.000430  0.012080  0.003352 -0.002147 -0.008622 -0.001543
  1H   1px       -0.002049  0.002676  0.002833  0.008889  0.035703  0.009266
  1H   1py        0.000111  0.000000 -0.000000  0.001744 -0.000436 -0.000001
  2H   1s         0.005650  0.023290 -0.018128  0.017410  0.004999 -0.023462
  2H   2s         0.012064  0.045973  0.008706 -0.140257 -0.040276  0.007914
  2H   3s         0.005559  0.030947 -0.955378  2.104467  0.604206 -0.472279
  2H   1pz        0.000184  0.012079  0.003352  0.008544  0.002454 -0.001549
  2H   1px        0.000610 -0.001339 -0.001418  0.018110  0.003579 -0.004632
  2H   1py        0.001364  0.002320  0.002457 -0.030379 -0.009658  0.008022
  3H   1s        -0.000000 -0.034856  0.000248  0.000002  0.000007  0.076892
  3H   2s        -0.000004 -0.033102  0.010723  0.000007  0.000024  0.263589
  3H   3s        -0.000012 -0.019607 -0.238721  0.000011  0.000017  3.620739
  3H   1pz        0.000005 -0.045727 -0.012313 -0.000002 -0.000001 -0.008153
  3H   1px       -0.017814 -0.000008 -0.000002 -0.000734 -0.002948  0.000000
  3H   1py       -0.001477  0.000001  0.000000  0.002948 -0.000734 -0.000002
  4H   1s         0.007546  0.023285 -0.018129 -0.013034  0.012578 -0.023450
  4H   2s         0.016113  0.045959  0.008689  0.105003 -0.101338  0.007988
  4H   3s         0.007424  0.030938 -0.955319 -1.575553  1.520424 -0.472212
  4H   1pz        0.000246  0.012079  0.003352 -0.006393  0.006171 -0.001543
  4H   1px        0.000367 -0.001338 -0.001417 -0.014321  0.011655 -0.004634
  4H   1py       -0.001563 -0.002318 -0.002455 -0.022305  0.022775 -0.008025
  5Cl  1s        -0.000000  0.001959  0.002883  0.000000  0.000000 -0.013448
  5Cl  2s         0.000000  0.005677  0.008429  0.000001  0.000000 -0.040357
  5Cl  3s        -0.000000 -0.011262 -0.017394 -0.000001 -0.000000  0.092032
  5Cl  4s         0.000000 -0.023991 -0.034533 -0.000003 -0.000002  0.129597
  5Cl  5s        -0.000002  0.040994  0.057982  0.000008  0.000006 -0.079924
  5Cl  6s         0.000006  0.054412  0.142271 -0.000000 -0.000006 -1.561751
  5Cl  1pz       -0.000063 -0.252160 -0.022190 -0.000001 -0.000000 -0.001817
  5Cl  1px        0.333042 -0.000044 -0.000001  0.003822  0.015363  0.000016
  5Cl  1py        0.027606  0.000004  0.000000 -0.015356  0.003824 -0.000018
  5Cl  2pz       -0.000015 -0.060403 -0.005551 -0.000000 -0.000000  0.002998
  5Cl  2px        0.079513 -0.000011 -0.000000  0.000745  0.002995  0.000004
  5Cl  2py        0.006591  0.000001  0.000000 -0.002993  0.000745 -0.000004
  5Cl  3pz        0.000045  0.183449  0.019878  0.000001  0.000000 -0.024822
  5Cl  3px       -0.239483  0.000032  0.000001 -0.001828 -0.007352 -0.000015
  5Cl  3py       -0.019850 -0.000003 -0.000000  0.007345 -0.001830  0.000013
  5Cl  4pz        0.000114  0.459972  0.035849 -0.000001  0.000002  0.140717
  5Cl  4px       -0.593157  0.000081  0.000002 -0.013109 -0.052680 -0.000015
  5Cl  4py       -0.049166 -0.000008 -0.000000  0.052666 -0.013113  0.000038
  5Cl  5pz        0.000067  0.262508  0.132490  0.000002 -0.000012 -1.473544
  5Cl  5px       -0.340666  0.000044  0.000014  0.005160  0.020711 -0.000307
  5Cl  5py       -0.028237 -0.000003 -0.000002 -0.020730  0.005155  0.000126
  5Cl  1dz2       0.000005  0.003523  0.000094  0.000003  0.000005  0.053203
  5Cl  1dxz      -0.015268  0.000002  0.000002  0.000694  0.002793  0.000032
  5Cl  1dyz      -0.001266 -0.000001 -0.000000 -0.002786  0.000695 -0.000022
  5Cl  1dx2y2    -0.000029  0.000000 -0.000000 -0.001350 -0.005424 -0.000000
  5Cl  1dxy       0.000003 -0.000000 -0.000000 -0.005422  0.001351 -0.000000
                     18        19        20        21        22        23   
                   0.33515   0.38636   0.38637   0.45167   0.46648   0.46649
                   0.00000   0.00000   0.00000   0.00000   0.00000   0.00000
                  --------  --------  --------  --------  --------  --------
  0C   1s        -0.005656 -0.000001 -0.000001  0.003703  0.000001  0.000000
  0C   2s        -0.008762 -0.000001 -0.000002  0.007727  0.000003  0.000000
  0C   1pz        0.000898  0.000007  0.000005 -0.057188 -0.000010 -0.000018
  0C   1px       -0.000004  0.000467  0.001366  0.000002  0.004886  0.001058
  0C   1py        0.000000 -0.001366  0.000466 -0.000005  0.001060 -0.004881
  0C   3s         0.062520 -0.000012  0.000000  0.028171 -0.000019 -0.000004
  0C   2pz        0.025261 -0.000014 -0.000009  0.033872  0.000002 -0.000010
  0C   2px       -0.000005  0.019117  0.056003  0.000027 -0.029851 -0.006476
  0C   2py       -0.000001 -0.056005  0.019121 -0.000018 -0.006475  0.029867
  0C   4s        -0.565786  0.000215  0.000162 -0.650879  0.000015  0.000013
  0C   3pz       -0.308517  0.000232  0.000144 -0.889793 -0.000192 -0.000248
  0C   3px        0.000112  0.461942  1.353249  0.000380 -0.907421 -0.196817
  0C   3py       -0.000091 -1.353142  0.461992 -0.000391 -0.196802  0.907649
  0C   1dz2      -0.010933  0.000011  0.000006 -0.052603 -0.000006 -0.000016
  0C   1dxz      -0.000003 -0.000316 -0.000931 -0.000000 -0.027574 -0.005980
  0C   1dyz      -0.000000  0.000931 -0.000319 -0.000010 -0.005979  0.027572
  0C   1dx2y2    -0.000001 -0.009867 -0.028891 -0.000002  0.020330  0.004410
  0C   1dxy      -0.000002 -0.028886  0.009868 -0.000003 -0.004414  0.020329
  1H   1s         0.019152  0.017405  0.050986  0.038697 -0.024356 -0.005280
  1H   2s         0.393852  0.363067  1.063589  0.409924 -0.774645 -0.168042
  1H   3s        -0.380433  0.047852  0.140147  0.254214  0.193132  0.041946
  1H   1pz       -0.010525 -0.000813 -0.002389 -0.000789  0.021292  0.004618
  1H   1px        0.017502  0.021288  0.062358  0.001377 -0.046515 -0.010092
  1H   1py       -0.000002 -0.016354  0.005581 -0.000010 -0.004585  0.021153
  2H   1s         0.019135 -0.052872 -0.010428  0.038654  0.007614  0.023759
  2H   2s         0.393624 -1.102802 -0.217419  0.409160  0.241829  0.755054
  2H   3s        -0.380318 -0.145242 -0.028594  0.254217 -0.060200 -0.187942
  2H   1pz       -0.010536  0.002484  0.000491 -0.000792 -0.006642 -0.020740
  2H   1px       -0.008744  0.029426  0.021054 -0.000663 -0.025107 -0.016942
  2H   1py        0.015147 -0.057658 -0.002558  0.001159  0.002265  0.042556
  3H   1s        -0.081885  0.000012  0.000004 -0.056727 -0.000001 -0.000008
  3H   2s        -1.224430  0.000088  0.000121  0.213327 -0.000031  0.000005
  3H   3s         1.914368 -0.000375 -0.000158 -0.912747 -0.000282 -0.000301
  3H   1pz        0.008044 -0.000002  0.000003 -0.026701 -0.000001  0.000006
  3H   1px        0.000004  0.001727  0.005063 -0.000011 -0.018221 -0.003952
  3H   1py       -0.000006 -0.005068  0.001731  0.000006 -0.003953  0.018233
  4H   1s         0.019140  0.035446 -0.040583  0.038679  0.016767 -0.018456
  4H   2s         0.393708  0.739424 -0.846478  0.409661  0.532891 -0.586958
  4H   3s        -0.380277  0.097471 -0.111507  0.254199 -0.132714  0.146245
  4H   1pz       -0.010533 -0.001657  0.001902 -0.000793 -0.014639  0.016123
  4H   1px       -0.008748 -0.010409  0.034660 -0.000668 -0.029873  0.005023
  4H   1py       -0.015152 -0.044052  0.037287 -0.001188 -0.019693  0.037800
  5Cl  1s        -0.001708  0.000003  0.000001  0.002386  0.000000  0.000000
  5Cl  2s        -0.005072  0.000008  0.000004  0.006587  0.000001  0.000001
  5Cl  3s         0.011101 -0.000016 -0.000008 -0.010316 -0.000001 -0.000002
  5Cl  4s         0.018578 -0.000031 -0.000015 -0.042594 -0.000003 -0.000004
  5Cl  5s        -0.030142  0.000056  0.000030  0.120248  0.000000  0.000004
  5Cl  6s        -0.433647  0.000148  0.000058  0.115750  0.000078  0.000080
  5Cl  1pz       -0.041415  0.000025  0.000001 -0.163401 -0.000039 -0.000036
  5Cl  1px        0.000006  0.036330  0.106408 -0.000028  0.148875  0.032283
  5Cl  1py       -0.000005 -0.106425  0.036329  0.000008  0.032285 -0.148863
  5Cl  2pz       -0.009075  0.000003 -0.000001 -0.028850 -0.000006 -0.000005
  5Cl  2px        0.000001  0.006433  0.018842 -0.000005  0.022226  0.004820
  5Cl  2py       -0.000001 -0.018845  0.006433  0.000001  0.004820 -0.022224
  5Cl  3pz        0.025712  0.000002  0.000006  0.056589  0.000003  0.000004
  5Cl  3px       -0.000003 -0.013130 -0.038457  0.000007 -0.022580 -0.004896
  5Cl  3py        0.000003  0.038461 -0.013130 -0.000001 -0.004896  0.022576
  5Cl  4pz        0.095770 -0.000170 -0.000039  0.802525  0.000236  0.000211
  5Cl  4px       -0.000032 -0.159313 -0.466611  0.000155 -0.838651 -0.181862
  5Cl  4py        0.000022  0.466699 -0.159310 -0.000051 -0.181869  0.838602
  5Cl  5pz       -0.002603  0.000383  0.000128 -1.075814 -0.000295 -0.000256
  5Cl  5px        0.000035  0.167786  0.491422 -0.000214  1.158864  0.251305
  5Cl  5py       -0.000021 -0.491527  0.167782  0.000067  0.251312 -1.158821
  5Cl  1dz2      -0.112983 -0.000016 -0.000013  0.046129  0.000025  0.000018
  5Cl  1dxz      -0.000031  0.012543  0.036741  0.000024 -0.054879 -0.011903
  5Cl  1dyz       0.000011 -0.036741  0.012544 -0.000011 -0.011902  0.054890
  5Cl  1dx2y2    -0.000000  0.000512  0.001501  0.000001  0.000069  0.000016
  5Cl  1dxy       0.000000  0.001490 -0.000510  0.000001 -0.000017  0.000086
                     24        25        26        27        28        29   
                   0.58282   0.76143   0.76729   0.76729   0.95362   1.03249
                   0.00000   0.00000   0.00000   0.00000   0.00000   0.00000
                  --------  --------  --------  --------  --------  --------
  0C   1s        -0.042076  0.080187 -0.000087 -0.000017  0.070242  0.000008
  0C   2s        -0.083177  0.159361 -0.000174 -0.000033  0.158929  0.000016
  0C   1pz       -0.188199 -0.124696  0.000115  0.000012 -0.011936  0.000015
  0C   1px       -0.000001 -0.000182 -0.207087  0.145578 -0.000012 -0.010651
  0C   1py       -0.000015  0.000186  0.145578  0.207087  0.000006  0.000263
  0C   3s         0.395473 -0.818452  0.000939  0.000163 -1.684714 -0.000118
  0C   2pz       -0.649385 -0.630386  0.000591  0.000071  0.164064  0.000095
  0C   2px        0.000011 -0.000757 -0.863009  0.606680 -0.000072 -0.069811
  0C   2py       -0.000054  0.000763  0.606677  0.863014  0.000048  0.001725
  0C   4s         0.251826 -0.020739 -0.000279  0.000068  5.526915  0.000377
  0C   3pz        1.125819  1.566725 -0.001502 -0.000242 -0.649241 -0.000263
  0C   3px       -0.000058  0.001334  1.401063 -0.984913 -0.000046  0.318242
  0C   3py        0.000043 -0.001150 -0.984929 -1.401074 -0.000196 -0.007854
  0C   1dz2      -0.024616 -0.039953  0.000048  0.000011 -0.144626 -0.000009
  0C   1dxz      -0.000010  0.000041  0.028812 -0.020249 -0.000042  0.202076
  0C   1dyz      -0.000004 -0.000027 -0.020259 -0.028811 -0.000052 -0.004978
  0C   1dx2y2     0.000001 -0.000045 -0.045215  0.031778 -0.000005  0.097790
  0C   1dxy       0.000002 -0.000046 -0.031772 -0.045215  0.000023  0.002411
  1H   1s        -0.024351  0.055051 -0.049051  0.034426 -0.008169  0.004185
  1H   2s        -0.415182  0.779474 -0.487556  0.342001 -0.984130  0.081297
  1H   3s        -0.075599 -0.847514  1.417416 -0.995500 -0.528345  0.133846
  1H   1pz       -0.026814 -0.004585 -0.018416  0.012942  0.002638 -0.122277
  1H   1px        0.003499 -0.069504  0.036635 -0.025677 -0.133466 -0.014531
  1H   1py       -0.000006  0.000050  0.030808  0.043836 -0.000020 -0.002981
  2H   1s        -0.024361  0.055165  0.054261  0.025198 -0.008180 -0.002181
  2H   2s        -0.415219  0.780482  0.538957  0.250308 -0.984011 -0.042398
  2H   3s        -0.075485 -0.850544 -1.569601 -0.728720 -0.528519 -0.069698
  2H   1pz       -0.026818 -0.004518  0.020424  0.009479  0.002600  0.063755
  2H   1px       -0.001750  0.034783  0.000686  0.051488  0.066700  0.085543
  2H   1py        0.003026 -0.060270 -0.046306  0.008020 -0.115599  0.058114
  3H   1s        -0.128579  0.022747 -0.000030 -0.000005 -0.065199  0.000036
  3H   2s        -0.523512  0.391200 -0.000339 -0.000103 -0.897786  0.000009
  3H   3s         1.103397  1.562476 -0.001570 -0.000327 -0.723480 -0.000870
  3H   1pz        0.119546  0.023118 -0.000021 -0.000016 -0.178017  0.000136
  3H   1px        0.000014  0.000000 -0.013919  0.009785 -0.000045 -0.397759
  3H   1py        0.000007 -0.000011  0.009785  0.013920  0.000109  0.009810
  4H   1s        -0.024354  0.055081 -0.005385 -0.059658 -0.008177 -0.002002
  4H   2s        -0.415137  0.779643 -0.053682 -0.592850 -0.983962 -0.038936
  4H   3s        -0.075525 -0.848266  0.154926  1.724735 -0.528394 -0.063984
  4H   1pz       -0.026817 -0.004554 -0.002004 -0.022418  0.002552  0.058548
  4H   1px       -0.001748  0.034719 -0.048244 -0.018130  0.066737  0.088422
  4H   1py       -0.003033  0.060239  0.023174 -0.040935  0.115582 -0.059064
  5Cl  1s         0.000478 -0.003714  0.000005  0.000001  0.011865 -0.000010
  5Cl  2s         0.001855 -0.010660  0.000014  0.000003  0.032886 -0.000026
  5Cl  3s        -0.007731  0.020354 -0.000025 -0.000005 -0.052383  0.000036
  5Cl  4s         0.009323  0.054564 -0.000073 -0.000016 -0.220446  0.000198
  5Cl  5s        -0.070710 -0.112873  0.000171  0.000041  0.713043 -0.000732
  5Cl  6s        -0.050701 -0.406068  0.000360  0.000070 -0.326235  0.000970
  5Cl  1pz       -0.128632  0.037181 -0.000049 -0.000007 -0.050318  0.000018
  5Cl  1px       -0.000027  0.000017  0.006593 -0.004635 -0.000023 -0.017067
  5Cl  1py        0.000011 -0.000011 -0.004634 -0.006593  0.000015  0.000422
  5Cl  2pz       -0.024679  0.005107 -0.000008 -0.000001 -0.010078  0.000007
  5Cl  2px       -0.000005  0.000004  0.002034 -0.001430 -0.000005 -0.003506
  5Cl  2py        0.000002 -0.000003 -0.001430 -0.002035  0.000004  0.000087
  5Cl  3pz        0.061428 -0.000228  0.000014  0.000001  0.033767 -0.000042
  5Cl  3px        0.000013 -0.000015 -0.009498  0.006676  0.000023  0.015475
  5Cl  3py       -0.000004  0.000014  0.006678  0.009499 -0.000017 -0.000382
  5Cl  4pz        0.496537 -0.288747  0.000301  0.000058  0.275558  0.000054
  5Cl  4px        0.000106 -0.000046  0.000691 -0.000480  0.000067  0.025916
  5Cl  4py       -0.000051  0.000002 -0.000496 -0.000697 -0.000020 -0.000642
  5Cl  5pz       -0.364595  0.144734 -0.000157 -0.000034 -0.306716  0.000215
  5Cl  5px       -0.000090 -0.000054 -0.013872  0.009736 -0.000046  0.045532
  5Cl  5py        0.000061  0.000089  0.009781  0.013892 -0.000040 -0.001117
  5Cl  1dz2      -0.210703 -0.023413 -0.000011  0.000014  0.071498  0.000164
  5Cl  1dxz      -0.000074  0.000080  0.041662 -0.029281 -0.000111 -0.754862
  5Cl  1dyz       0.000023 -0.000094 -0.029303 -0.041675  0.000232  0.018612
  5Cl  1dx2y2    -0.000001  0.000011  0.013191 -0.009272 -0.000004  0.005715
  5Cl  1dxy      -0.000000  0.000011  0.009258  0.013177 -0.000001  0.000214
                     30        31        32        33        34        35   
                   1.03250   1.11900   1.16312   1.16312   1.19746   1.19746
                   0.00000   0.00000   0.00000   0.00000   0.00000   0.00000
                  --------  --------  --------  --------  --------  --------
  0C   1s        -0.000001  0.038583  0.000000  0.000000  0.000012 -0.000003
  0C   2s        -0.000004  0.085134  0.000001  0.000001  0.000029 -0.000007
  0C   1pz        0.000018  0.095409  0.000001 -0.000000  0.000021 -0.000008
  0C   1px        0.000262 -0.000003 -0.000950  0.006432  0.013844 -0.007378
  0C   1py        0.010654  0.000011 -0.006432 -0.000953 -0.007381 -0.013845
  0C   3s         0.000129 -0.821701 -0.000007 -0.000011 -0.000380  0.000047
  0C   2pz        0.000068  0.422872  0.000002 -0.000001  0.000120 -0.000040
  0C   2px        0.001719 -0.000007 -0.002505  0.016978  0.038932 -0.020747
  0C   2py        0.069845  0.000043 -0.016982 -0.002519 -0.020758 -0.038934
  0C   4s        -0.000454  2.788044  0.000018  0.000028  0.001464 -0.000043
  0C   3pz       -0.000217 -1.475287 -0.000006  0.000003 -0.000472  0.000003
  0C   3px       -0.007843 -0.000084  0.006892 -0.046616 -0.124888  0.066559
  0C   3py       -0.318316 -0.000095  0.046612  0.006900  0.066593  0.124911
  0C   1dz2       0.000056  0.002141 -0.000000 -0.000000 -0.000025  0.000051
  0C   1dxz      -0.004988 -0.000119  0.000529 -0.003605  0.409303 -0.218184
  0C   1dyz      -0.202060  0.000100  0.003616  0.000539 -0.218170 -0.409318
  0C   1dx2y2    -0.002382 -0.000031 -0.000154  0.000991  0.113507 -0.060446
  0C   1dxy       0.097800 -0.000028  0.000979  0.000137  0.060512  0.113499
  1H   1s        -0.000095 -0.016435 -0.000378  0.002539 -0.022508  0.011993
  1H   2s        -0.001835 -0.352213 -0.001274  0.008641  0.009795 -0.005364
  1H   3s        -0.003129  0.218886  0.008378 -0.056683 -0.045859  0.024447
  1H   1pz        0.003043  0.043563 -0.000270  0.001848 -0.301480  0.160687
  1H   1px        0.000356 -0.056389  0.000212 -0.001421 -0.049131  0.026171
  1H   1py       -0.120813  0.000046  0.002976  0.000446 -0.073362 -0.137606
  2H   1s        -0.003570 -0.016456 -0.002007 -0.001592  0.021612  0.013487
  2H   2s        -0.069244 -0.352156 -0.006855 -0.005437 -0.009993 -0.006043
  2H   3s        -0.114112  0.218936  0.044880  0.035590  0.044157  0.027551
  2H   1pz        0.104409  0.043386 -0.001474 -0.001165  0.289858  0.180754
  2H   1px       -0.060751  0.028191  0.001053 -0.002477  0.047844 -0.129331
  2H   1py       -0.020734 -0.048865  0.001903 -0.000401  0.082147 -0.040635
  3H   1s         0.000065  0.094990  0.000000 -0.000001 -0.000016  0.000002
  3H   2s         0.000153 -0.098875 -0.000002 -0.000005 -0.000216 -0.000037
  3H   3s        -0.001027 -3.611711 -0.000006  0.000008 -0.000910 -0.000091
  3H   1pz        0.000125  0.182698  0.000000 -0.000001 -0.000028 -0.000048
  3H   1px        0.009807  0.000180 -0.000253  0.001701 -0.117303  0.062526
  3H   1py        0.397742 -0.000184 -0.001703 -0.000251  0.062522  0.117293
  4H   1s         0.003689 -0.016442  0.002384 -0.000947  0.000851 -0.025465
  4H   2s         0.071583 -0.352184  0.008124 -0.003212 -0.000674  0.011429
  4H   3s         0.117717  0.218869 -0.053265  0.021072  0.001752 -0.051962
  4H   1pz       -0.107360  0.043483  0.001743 -0.000684  0.011570 -0.341417
  4H   1px        0.056464  0.028154 -0.000297 -0.002682  0.134028  0.032401
  4H   1py       -0.017879  0.048876  0.001712  0.000937 -0.079541  0.045496
  5Cl  1s        -0.000014 -0.021055 -0.000000  0.000000 -0.000003 -0.000003
  5Cl  2s        -0.000039 -0.056764 -0.000000  0.000000 -0.000007 -0.000007
  5Cl  3s         0.000056  0.075580  0.000000 -0.000000  0.000008  0.000011
  5Cl  4s         0.000295  0.456060  0.000000 -0.000001  0.000064  0.000051
  5Cl  5s        -0.001075 -1.787831 -0.000001  0.000004 -0.000264 -0.000181
  5Cl  6s         0.001326  2.890118  0.000003 -0.000006  0.000552  0.000195
  5Cl  1pz        0.000030  0.021881  0.000000  0.000000 -0.000018  0.000000
  5Cl  1px        0.000420  0.000008  0.000073 -0.000491  0.015996 -0.008528
  5Cl  1py        0.017071 -0.000010  0.000490  0.000072 -0.008524 -0.015993
  5Cl  2pz        0.000010  0.015411  0.000000  0.000000 -0.000003 -0.000001
  5Cl  2px        0.000086  0.000004  0.000022 -0.000149  0.003938 -0.002099
  5Cl  2py        0.003507 -0.000003  0.000148  0.000022 -0.002098 -0.003937
  5Cl  3pz       -0.000059 -0.114126 -0.000000 -0.000000  0.000013  0.000009
  5Cl  3px       -0.000381 -0.000024 -0.000106  0.000715 -0.016627  0.008864
  5Cl  3py       -0.015478  0.000014 -0.000715 -0.000106  0.008860  0.016624
  5Cl  4pz        0.000026  0.355889  0.000001 -0.000000  0.000101 -0.000040
  5Cl  4px       -0.000637  0.000048 -0.000076  0.000506 -0.049124  0.026187
  5Cl  4py       -0.025930  0.000009 -0.000505 -0.000074  0.026180  0.049119
  5Cl  5pz        0.000349  0.529924  0.000000 -0.000001  0.000027  0.000091
  5Cl  5px       -0.001127  0.000169  0.000256 -0.001718  0.115939 -0.061805
  5Cl  5py       -0.045500 -0.000127  0.001717  0.000253 -0.061788 -0.115926
  5Cl  1dz2      -0.000040 -0.539882 -0.000002 -0.000000 -0.000241  0.000110
  5Cl  1dxz       0.018618 -0.000045 -0.000215  0.002006  0.465761 -0.248263
  5Cl  1dyz       0.754883 -0.000201 -0.002381 -0.000434 -0.248252 -0.465722
  5Cl  1dx2y2    -0.000074 -0.000001 -0.146179  0.989094  0.003148 -0.001716
  5Cl  1dxy       0.006031 -0.000004  0.989093  0.146178  0.001568  0.003015
                     36        37        38        39        40        41   
                   1.35978   1.64182   1.64182   1.64406   1.71988   1.71991
                   0.00000   0.00000   0.00000   0.00000   0.00000   0.00000
                  --------  --------  --------  --------  --------  --------
  0C   1s         0.007324  0.000000 -0.000001 -0.000000 -0.000002 -0.000001
  0C   2s         0.009541  0.000001 -0.000001 -0.000000 -0.000007 -0.000002
  0C   1pz        0.059747  0.000006  0.000005  0.000000  0.000015 -0.000007
  0C   1px        0.000010 -0.038714  0.030292  0.000039  0.000745 -0.044448
  0C   1py       -0.000002 -0.030291 -0.038709 -0.000108  0.044456  0.000745
  0C   3s         0.210485  0.000003 -0.000020 -0.000000  0.000085 -0.000014
  0C   2pz        0.053244 -0.000003  0.000012  0.000000 -0.000016 -0.000000
  0C   2px        0.000062 -0.092246  0.072174  0.000093  0.000772 -0.045925
  0C   2py       -0.000034 -0.072179 -0.092231 -0.000268  0.045890  0.000766
  0C   4s        -2.209702 -0.000125  0.000363  0.000001 -0.000087  0.000251
  0C   3pz        0.606774  0.000079  0.000021  0.000000  0.000220 -0.000088
  0C   3px        0.000003 -0.783002  0.612693  0.000782  0.011992 -0.714575
  0C   3py        0.000145 -0.612729 -0.783039 -0.002195  0.714643  0.011958
  0C   1dz2       0.309163  0.000036 -0.000145 -0.000000 -0.000293 -0.000093
  0C   1dxz       0.000046 -0.186007  0.145604  0.000185  0.004490 -0.269655
  0C   1dyz      -0.000071 -0.145542 -0.186066 -0.000522  0.269685  0.004548
  0C   1dx2y2    -0.000039  0.473419 -0.370544 -0.000472 -0.007530  0.452013
  0C   1dxy       0.000002 -0.370554 -0.473380 -0.001334  0.452002  0.007482
  1H   1s        -0.033157  0.142227 -0.111280 -0.000142 -0.003395  0.206764
  1H   2s         0.537282 -0.902059  0.705798  0.000900  0.014703 -0.889698
  1H   3s        -0.152549  0.021219 -0.016561 -0.000021 -0.000526  0.033568
  1H   1pz        0.037537  0.245853 -0.192459 -0.000295  0.007092 -0.428065
  1H   1px        0.023043  0.123809 -0.096869 -0.000096  0.001187 -0.070859
  1H   1py       -0.000004  0.251973  0.321186  0.596956 -0.018880 -0.000350
  2H   1s        -0.033114  0.025267  0.178862  0.000422 -0.177232 -0.106342
  2H   2s         0.537153 -0.160288 -1.134356 -0.002654  0.762790  0.457556
  2H   3s        -0.152474  0.003729  0.026726  0.000070 -0.028700 -0.017222
  2H   1pz        0.037724  0.043690  0.309108  0.000745  0.367069  0.220236
  2H   1px       -0.011562  0.340583 -0.126316 -0.516241 -0.038778 -0.004204
  2H   1py        0.019976  0.222021  0.106842 -0.297593  0.047795  0.039682
  3H   1s         0.085146  0.000019 -0.000046 -0.000000 -0.000029 -0.000069
  3H   2s         0.491310 -0.000009  0.000149  0.000000  0.000330  0.000069
  3H   3s         2.643359  0.000211 -0.000588 -0.000001  0.000188 -0.000276
  3H   1pz        0.180965  0.000020 -0.000057 -0.000000 -0.000017 -0.000111
  3H   1px        0.000047 -0.145029  0.113483  0.000154 -0.012065  0.719972
  3H   1py        0.000032 -0.113492 -0.145037 -0.000426 -0.719972 -0.012065
  4H   1s        -0.033139 -0.167517 -0.067486 -0.000279  0.180805 -0.100360
  4H   2s         0.537176  1.062457  0.428088  0.001753 -0.778005  0.431833
  4H   3s        -0.152506 -0.025000 -0.009988 -0.000048  0.029300 -0.016237
  4H   1pz        0.037559 -0.289587 -0.116776 -0.000451 -0.374341  0.207849
  4H   1px       -0.011543  0.205120 -0.300710  0.515659  0.038898 -0.002926
  4H   1py       -0.019946  0.049901  0.241495 -0.297472  0.049033 -0.038027
  5Cl  1s         0.024902  0.000001 -0.000004 -0.000000  0.000001 -0.000001
  5Cl  2s         0.068538  0.000004 -0.000011 -0.000000  0.000003 -0.000001
  5Cl  3s        -0.104179 -0.000006  0.000018  0.000000 -0.000004  0.000002
  5Cl  4s        -0.504206 -0.000029  0.000080  0.000000 -0.000029  0.000012
  5Cl  5s         1.968862  0.000125 -0.000329 -0.000001  0.000136 -0.000056
  5Cl  6s        -2.808288 -0.000202  0.000505  0.000001 -0.000257  0.000129
  5Cl  1pz        0.057739  0.000017 -0.000026 -0.000000  0.000025 -0.000031
  5Cl  1px        0.000010 -0.013610  0.010648  0.000015 -0.001363  0.081371
  5Cl  1py       -0.000002 -0.010648 -0.013605 -0.000040 -0.081366 -0.001364
  5Cl  2pz        0.020803  0.000006 -0.000009 -0.000000  0.000007 -0.000009
  5Cl  2px        0.000004 -0.004877  0.003815  0.000005 -0.000426  0.025453
  5Cl  2py       -0.000001 -0.003815 -0.004875 -0.000014 -0.025451 -0.000427
  5Cl  3pz       -0.119948 -0.000033  0.000058  0.000000 -0.000043  0.000055
  5Cl  3px       -0.000025  0.030383 -0.023771 -0.000032  0.002546 -0.151950
  5Cl  3py        0.000009  0.023771  0.030375  0.000089  0.151938  0.002546
  5Cl  4pz        0.091595  0.000018 -0.000058 -0.000000 -0.000011 -0.000014
  5Cl  4px        0.000039 -0.043859  0.034320  0.000045 -0.001032  0.061619
  5Cl  4py       -0.000022 -0.034322 -0.043863 -0.000125 -0.061608 -0.001033
  5Cl  5pz       -0.964802 -0.000084  0.000187  0.000000 -0.000098  0.000027
  5Cl  5px       -0.000263  0.111339 -0.087127 -0.000113  0.000530 -0.031686
  5Cl  5py        0.000127  0.087133  0.111358  0.000316  0.031679  0.000532
  5Cl  1dz2      -0.590938 -0.000069  0.000060  0.000000 -0.000052  0.000124
  5Cl  1dxz      -0.000309  0.155272 -0.121499 -0.000160  0.004889 -0.291776
  5Cl  1dyz       0.000121  0.121507  0.155281  0.000445  0.291781  0.004890
  5Cl  1dx2y2     0.000000  0.001121 -0.000865 -0.000001  0.000022  0.000511
  5Cl  1dxy       0.000000 -0.000838 -0.001055 -0.000003  0.000640  0.000041
                     42        43        44        45        46        47   
                   1.81850   2.06286   2.10450   2.10451   2.39155   2.39157
                   0.00000   0.00000   0.00000   0.00000   0.00000   0.00000
                  --------  --------  --------  --------  --------  --------
  0C   1s        -0.001026  0.007484  0.000001 -0.000004  0.000006  0.000007
  0C   2s         0.006446  0.017170  0.000001 -0.000005  0.000009  0.000013
  0C   1pz       -0.127099 -0.183264  0.000030 -0.000038  0.000064  0.000034
  0C   1px        0.000002 -0.000005  0.244344  0.012497 -0.127025  0.034849
  0C   1py       -0.000007 -0.000001 -0.012495  0.244361  0.034848  0.127007
  0C   3s        -0.255486 -0.200920  0.000036  0.000001  0.000010 -0.000076
  0C   2pz        0.042679 -0.022971 -0.000046  0.000047  0.000043  0.000020
  0C   2px       -0.000036  0.000038 -0.732301 -0.037476  0.552271 -0.151523
  0C   2py        0.000036 -0.000027  0.037429 -0.732436 -0.151493 -0.552157
  0C   4s         0.689476  0.774080 -0.000224 -0.000005 -0.000149  0.000085
  0C   3pz       -1.030797 -0.858441  0.000133 -0.000088  0.000098  0.000011
  0C   3px        0.000052 -0.000059  0.603822  0.030879 -0.021307  0.005833
  0C   3py       -0.000078 -0.000028 -0.030877  0.603797  0.005860  0.021309
  0C   1dz2       0.804401 -0.479278 -0.000070  0.000150 -0.000102 -0.000126
  0C   1dxz      -0.000047  0.000051 -0.448314 -0.022873 -0.762801  0.209334
  0C   1dyz       0.000238 -0.000084  0.022980 -0.448307  0.209231  0.762782
  0C   1dx2y2     0.000015 -0.000010  0.686505  0.035045 -0.551113  0.151053
  0C   1dxy       0.000082 -0.000032  0.034963 -0.686538 -0.151161 -0.551049
  1H   1s        -0.229087  0.061487  0.472977  0.024125 -0.365614  0.100362
  1H   2s         0.484102 -0.305309 -1.172741 -0.059852  0.866063 -0.237658
  1H   3s        -0.054724  0.144394  0.801129  0.040928 -0.299981  0.082294
  1H   1pz        0.200270  0.654866 -0.162081 -0.008248 -0.629513  0.172702
  1H   1px       -0.022534  0.152877 -0.464575 -0.023786  0.227275 -0.062335
  1H   1py        0.000103  0.000004  0.031300 -0.612466 -0.091093 -0.331850
  2H   1s        -0.229179  0.061540 -0.257375  0.397525  0.269788  0.266531
  2H   2s         0.484278 -0.305394  0.638238 -0.985719 -0.638887 -0.631215
  2H   3s        -0.054826  0.144461 -0.435999  0.673352  0.221331  0.218627
  2H   1pz        0.200589  0.654824  0.088206 -0.136178  0.464267  0.458809
  2H   1px        0.011186 -0.076418 -0.572248 -0.093426  0.293282 -0.129218
  2H   1py       -0.019385  0.132410 -0.038370 -0.504891 -0.024196 -0.265727
  3H   1s        -0.045088 -0.087859  0.000082 -0.000047 -0.000067  0.000110
  3H   2s        -1.025135 -0.096010  0.000041  0.000010  0.000234 -0.000177
  3H   3s        -1.103061 -0.614594  0.000238 -0.000125 -0.000013  0.000051
  3H   1pz        0.073714 -0.008542  0.000062 -0.000032  0.000171  0.000091
  3H   1px        0.000017 -0.000021 -0.495491 -0.025336 -0.332580  0.091255
  3H   1py       -0.000228 -0.000026  0.025341 -0.495466  0.091237  0.332564
  4H   1s        -0.229059  0.061503 -0.215529 -0.421782  0.096066 -0.366724
  4H   2s         0.483994 -0.305314  0.534499  1.045843 -0.227442  0.868652
  4H   3s        -0.054720  0.144400 -0.365126 -0.714319  0.078794 -0.300895
  4H   1pz        0.200245  0.654872  0.073845  0.144483  0.165210 -0.631472
  4H   1px        0.011168 -0.076417 -0.578796  0.034573  0.318155 -0.038546
  4H   1py        0.019551 -0.132354  0.089678 -0.498332 -0.114802 -0.241004
  5Cl  1s        -0.003784  0.000746  0.000000 -0.000000  0.000000  0.000001
  5Cl  2s        -0.009796  0.002200  0.000001 -0.000001  0.000000  0.000002
  5Cl  3s         0.008929 -0.004668  0.000001  0.000001 -0.000001 -0.000005
  5Cl  4s         0.103935 -0.011431 -0.000013  0.000011 -0.000000 -0.000008
  5Cl  5s        -0.533270  0.041904  0.000069 -0.000050 -0.000001  0.000013
  5Cl  6s         1.132711  0.096164 -0.000173  0.000099 -0.000009  0.000029
  5Cl  1pz       -0.186470  0.037526  0.000077 -0.000042  0.000057 -0.000010
  5Cl  1px       -0.000041 -0.000019 -0.104259 -0.005331 -0.292250  0.080182
  5Cl  1py       -0.000010  0.000007  0.005332 -0.104257  0.080216  0.292366
  5Cl  2pz       -0.056114  0.013549  0.000024 -0.000013  0.000019 -0.000002
  5Cl  2px       -0.000013 -0.000006 -0.033920 -0.001734 -0.096405  0.026450
  5Cl  2py       -0.000003  0.000002  0.001735 -0.033919  0.026461  0.096444
  5Cl  3pz        0.332651 -0.089443 -0.000161  0.000091 -0.000138  0.000010
  5Cl  3px        0.000076  0.000040  0.226514  0.011582  0.691114 -0.189616
  5Cl  3py        0.000021 -0.000015 -0.011585  0.226509 -0.189695 -0.691394
  5Cl  4pz        0.007442  0.114276  0.000091 -0.000065  0.000124  0.000046
  5Cl  4px       -0.000011 -0.000022 -0.173868 -0.008891 -0.623432  0.171049
  5Cl  4py       -0.000018  0.000012  0.008891 -0.173865  0.171116  0.623690
  5Cl  5pz        0.405925 -0.078453 -0.000086  0.000051 -0.000056  0.000009
  5Cl  5px        0.000114  0.000014  0.106324  0.005441  0.216949 -0.059528
  5Cl  5py       -0.000050 -0.000022 -0.005433  0.106316 -0.059540 -0.217027
  5Cl  1dz2       0.442662 -0.047214 -0.000112  0.000041 -0.000029  0.000046
  5Cl  1dxz       0.000182  0.000010  0.161630  0.008266  0.088665 -0.024328
  5Cl  1dyz      -0.000007 -0.000008 -0.008264  0.161617 -0.024324 -0.088663
  5Cl  1dx2y2    -0.000001  0.000000 -0.005387 -0.000260  0.001367 -0.000384
  5Cl  1dxy      -0.000001  0.000000 -0.000293  0.005453  0.000356  0.001332
                     48        49        50        51        52        53   
                   2.50358   2.52552   2.52553   2.70003   2.70005   2.70188
                   0.00000   0.00000   0.00000   0.00000   0.00000   0.00000
                  --------  --------  --------  --------  --------  --------
  0C   1s        -0.046451  0.000030  0.000022 -0.000288  0.000028  0.024539
  0C   2s        -0.082656  0.000056  0.000042 -0.000835  0.000068  0.072350
  0C   1pz       -0.246667  0.000138  0.000077  0.002851 -0.000175 -0.258517
  0C   1px       -0.000025  0.037026  0.003991  0.264761  0.000924  0.002912
  0C   1py       -0.000029  0.003996 -0.037006 -0.000935  0.264841 -0.000157
  0C   3s         0.336387 -0.000250 -0.000224  0.008255 -0.000576 -0.722533
  0C   2pz        0.050682 -0.000052 -0.000066  0.003685 -0.000257 -0.329043
  0C   2px       -0.000077 -0.037172 -0.004009  1.653415  0.005825  0.018459
  0C   2py        0.000001 -0.004026  0.037309 -0.005781  1.653480 -0.001096
  0C   4s         0.042312 -0.000107  0.000070 -0.006859  0.000608  0.584166
  0C   3pz       -0.190999  0.000129  0.000049  0.005843 -0.000526 -0.507058
  0C   3px        0.000069  0.180225  0.019446  0.865246  0.003041  0.009531
  0C   3py       -0.000086  0.019436 -0.180190 -0.003033  0.865463 -0.000564
  0C   1dz2       0.044418 -0.000007 -0.000026 -0.005927  0.000317  0.528347
  0C   1dxz      -0.000301 -0.423233 -0.045645  0.465788  0.001605  0.005177
  0C   1dyz       0.000234 -0.045691  0.423400 -0.001665  0.465730 -0.000294
  0C   1dx2y2    -0.000152 -0.198895 -0.021518 -0.425769 -0.001446 -0.004756
  0C   1dxy      -0.000111  0.021466 -0.198982 -0.001414  0.425828 -0.000232
  1H   1s        -0.486035 -0.057105 -0.006010 -0.447322 -0.001426  0.024783
  1H   2s         0.492730  0.162108  0.017363  2.316836  0.008056  0.281937
  1H   3s        -0.161585 -0.039253 -0.004216 -0.113365 -0.000379 -0.077440
  1H   1pz        0.037050 -0.231448 -0.024977 -0.226915 -0.000787 -0.033727
  1H   1px       -0.145833 -0.040789 -0.004321  1.454362  0.005307  0.414647
  1H   1py       -0.000058  0.012649 -0.117336  0.001584 -0.484967  0.000312
  2H   1s        -0.485913  0.023625  0.052959  0.224300 -0.386095  0.032595
  2H   2s         0.492525 -0.066275 -0.149409 -1.169369  2.004914  0.241793
  2H   3s        -0.161491  0.016073  0.036189  0.058191 -0.098571 -0.075316
  2H   1pz        0.037451  0.094066  0.212999  0.114735 -0.196639 -0.029795
[...]
                  6          7          8          9         10         11    
      0       0.000011  -0.000627   0.032914   0.000027   0.063756   0.026210
      1       0.000003  -0.032915  -0.000627   0.000005  -0.026210   0.063755
      2       0.131118  -0.000000   0.000001   0.303553  -0.000006  -0.000004
      3      -0.035803   0.001842  -0.096627   0.032475  -0.032411  -0.013325
      4      -0.000001   0.112566   0.002132   0.000010   0.020204  -0.049173
      5      -0.113734   0.012082  -0.636047   0.502909  -0.433684  -0.178258
      6       0.017888   0.009045  -0.108399  -0.016162  -0.041950  -0.025788
      7      -0.031011   0.100710  -0.005002   0.028098   0.007766  -0.039568
      8      -0.113746   0.544795   0.328509   0.502893   0.371226  -0.286448
      9      -0.000095  -0.011404   0.598611   0.000014  -0.751028  -0.308745
     10      -0.000020  -0.598610  -0.011405   0.000004   0.308745  -0.751030
     11      -0.969588   0.000012  -0.000058   0.348945   0.000062   0.000044
     12       0.017891  -0.004911  -0.108663  -0.016166  -0.047957  -0.011171
     13       0.031004   0.100425   0.008847  -0.028075   0.022313  -0.033571
     14      -0.113747  -0.556889   0.307576   0.502882   0.062469   0.464716
     15      -0.000000   0.000367  -0.019252  -0.000014   0.003231   0.001328
     16      -0.000000   0.019252   0.000367  -0.000003  -0.001328   0.003231
     17      -0.007152   0.000000   0.000000  -0.155656  -0.000000  -0.000000
                 12         13         14         15         16         17    
      0       0.000013  -0.084577  -0.000484  -0.000004  -0.000139  -0.098063
      1       0.000003  -0.000484   0.084577  -0.000001  -0.098062   0.000139
      2       0.143762   0.000008  -0.000002  -0.025921   0.000002   0.000009
      3      -0.121652  -0.103951  -0.000641  -0.567669   0.001083   0.795781
      4      -0.000004   0.004563  -0.789504   0.000031  -0.013232  -0.000026
      5      -0.501003  -0.166286  -0.000945   0.103750  -0.000223  -0.163687
      6       0.060752   0.568406  -0.383592   0.283836  -0.350040   0.189486
      7      -0.105328   0.387535  -0.117169  -0.491655   0.593067  -0.351118
      8      -0.501019   0.082254   0.144537   0.103685  -0.141562   0.081989
      9       0.000036  -0.012369  -0.000071  -0.000001  -0.000011  -0.007619
     10       0.000008  -0.000071   0.012358  -0.000000  -0.007619   0.000011
     11       0.426137  -0.000002  -0.000000  -0.015480   0.000000   0.000009
     12       0.060762   0.563897   0.390121   0.283885   0.350614   0.188567
     13       0.105301  -0.386208  -0.121683   0.491631   0.593992   0.349486
     14      -0.501023   0.083934  -0.143572   0.103665   0.141760   0.081588
     15      -0.000002  -0.000233  -0.000001   0.000000   0.000000   0.000064
     16      -0.000000  -0.000001   0.000233   0.000000   0.000064  -0.000000
     17      -0.018086   0.000000  -0.000000   0.000377  -0.000000  -0.000000


-----------
IR SPECTRUM
-----------

 Mode    freq (cm**-1)   T**2         TX         TY         TZ
-------------------------------------------------------------------
   7:       359.18    0.832729  ( -0.017397  -0.912374   0.000040)
   8:       359.19    0.834275  (  0.913221  -0.017383  -0.000474)
   9:       529.76    4.823237  (  0.000169   0.000047   2.196187)
  10:       944.51   11.749256  ( -3.170232   1.303414   0.000264)
  11:       944.51   11.751098  ( -1.303268  -3.170582   0.000217)
  12:      1225.42    1.760463  (  0.000220   0.000025   1.326824)
  13:      1452.46    5.425825  (  2.329302   0.013366  -0.001081)
  14:      1452.47    5.447650  (  0.013338  -2.333982   0.000070)
  15:      3135.67    0.077479  (  0.000564   0.000006   0.278350)
  16:      3307.01    0.404212  ( -0.000900  -0.635776   0.000018)
  17:      3307.04    0.405431  ( -0.636724   0.000897   0.003475)

The first frequency considered to be a vibration is 7
The total number of vibrations considered is 11


--------------------------
THERMOCHEMISTRY AT 298.15K
--------------------------

Temperature         ... 298.15 K
Pressure            ... 1.00 atm
Total Mass          ... 51.50 AMU

Throughout the following assumptions are being made:
  (1) The electronic state is orbitally nondegenerate
      but the spin degeneracy is treated
  (2) There are no thermally accessible electronically excited states
  (3) Hindered rotations indicated by low frequency modes are not
      treated as such but are treated as vibrations and this may
      cause some error
  (4) All equations used are the standard statistical mechanics
      equations for an ideal gas
  (5) All vibrations are strictly harmonic

freq.     359.18  E(vib)   ...       0.22 
freq.     359.19  E(vib)   ...       0.22 
freq.     529.76  E(vib)   ...       0.13 
freq.     944.51  E(vib)   ...       0.03 
freq.     944.51  E(vib)   ...       0.03 
freq.    1225.42  E(vib)   ...       0.01 
freq.    1452.46  E(vib)   ...       0.00 
freq.    1452.47  E(vib)   ...       0.00 
freq.    3135.67  E(vib)   ...       0.00 
freq.    3307.01  E(vib)   ...       0.00 
freq.    3307.04  E(vib)   ...       0.00 

------------
INNER ENERGY
------------

The inner energy is: U= E(el) + E(ZPE) + E(vib) + E(rot) + E(trans)
    E(el)   - is the total energy from the electronic structure calculation
              = E(kin-el) + E(nuc-el) + E(el-el) + E(nuc-nuc)
    E(ZPE)  - the the zero temperature vibrational energy from the frequency calculation
    E(vib)  - the the finite temperature correction to E(ZPE) due to population
              of excited vibrational states
    E(rot)  - is the rotational thermal energy
    E(trans)- is the translational thermal energy

Summary of contributions to the inner energy U:
Electronic energy                ...   -500.01317280 Eh
Zero point energy                ...      0.03876810 Eh      24.33 kcal/mol
Thermal vibrational correction   ...      0.00102385 Eh       0.64 kcal/mol
Thermal rotational correction    ...      0.00141627 Eh       0.89 kcal/mol
Thermal translational correction ...      0.00141627 Eh       0.89 kcal/mol
-----------------------------------------------------------------------
Total thermal energy                   -499.97054831 Eh


Summary of corrections to the electronic energy:
(perhaps to be used in another calculation)
Total thermal correction                  0.00385640 Eh       2.42 kcal/mol
Non-thermal (ZPE) correction              0.03876810 Eh      24.33 kcal/mol
-----------------------------------------------------------------------
Total correction                          0.04262449 Eh      26.75 kcal/mol


--------
ENTHALPY
--------

The enthalpy is H = U + kB*T
                kB is Boltzmann's constant
Total free energy                 ...   -499.97054831 Eh 
Thermal Enthalpy correction       ...      0.00094421 Eh       0.59 kcal/mol
-----------------------------------------------------------------------
Total Enthalpy                    ...   -499.96960410 Eh


Note: Rotational entropy computed according to Herzberg 
Infrared and Raman Spectra, Chapter V,1, Van Nostrand Reinhold, 1945 
Point Group:  Cs, Symmetry Number:   1  
Rotational constants in cm-1:     4.937466     0.189792     0.189792 

Vibrational entropy computed according to the QRRHO of S. Grimme
Chem.Eur.J. 2012 18 9955


-------
ENTROPY
-------

The entropy contributions are T*S = T*(S(el)+S(vib)+S(rot)+S(trans))
     S(el)   - electronic entropy
     S(vib)  - vibrational entropy
     S(rot)  - rotational entropy
     S(trans)- translational entropy
The entropies will be listed as mutliplied by the temperature to get
units of energy

Electronic entropy                ...      0.00065446 Eh      0.41 kcal/mol
Vibrational entropy               ...      0.00149446 Eh      0.94 kcal/mol
Rotational entropy                ...      0.01032602 Eh      6.48 kcal/mol
Translational entropy             ...      0.01793131 Eh     11.25 kcal/mol
-----------------------------------------------------------------------
Final entropy term                ...      0.03040624 Eh     19.08 kcal/mol

In case the symmetry of your molecule has not been determined correctly
or in case you have a reason to use a different symmetry number we print 
out the resulting rotational entropy values for sn=1,12 :
 --------------------------------------------------------
|  sn= 1 | S(rot)=       0.01032602 Eh      6.48 kcal/mol|
|  sn= 2 | S(rot)=       0.00967156 Eh      6.07 kcal/mol|
|  sn= 3 | S(rot)=       0.00928873 Eh      5.83 kcal/mol|
|  sn= 4 | S(rot)=       0.00901710 Eh      5.66 kcal/mol|
|  sn= 5 | S(rot)=       0.00880642 Eh      5.53 kcal/mol|
|  sn= 6 | S(rot)=       0.00863427 Eh      5.42 kcal/mol|
|  sn= 7 | S(rot)=       0.00848873 Eh      5.33 kcal/mol|
|  sn= 8 | S(rot)=       0.00836265 Eh      5.25 kcal/mol|
|  sn= 9 | S(rot)=       0.00825144 Eh      5.18 kcal/mol|
|  sn=10 | S(rot)=       0.00815196 Eh      5.12 kcal/mol|
|  sn=11 | S(rot)=       0.00806197 Eh      5.06 kcal/mol|
|  sn=12 | S(rot)=       0.00797981 Eh      5.01 kcal/mol|
 --------------------------------------------------------


-------------------
GIBBS FREE ENERGY
-------------------

The Gibbs free energy is G = H - T*S

Total enthalpy                    ...   -499.96960410 Eh 
Total entropy correction          ...     -0.03040624 Eh    -19.08 kcal/mol
-----------------------------------------------------------------------
Final Gibbs free energy         ...   -500.00001034 Eh

For completeness - the Gibbs free energy minus the electronic energy
G-E(el)                           ...      0.01316246 Eh      8.26 kcal/mol




------------------------------------------------------------------------------- 
                    Intrinsic Reaction Coordinate Calculation                  
------------------------------------------------------------------------------- 

System:
Nr. of atoms                        .... 6
Algorithm: SD (steepest descent step) plus correction
Settings:
Max. no of cycles        MaxIter    .... 1000
Direction                           .... Forward and backward
Initial displacement Hessian type   .... Read
Hessian Filename                    .... H3CHCl‡.hess
Following Hessian mode              .... 0
Initial displacement type           .... Energy
  Initial displacement energy change.... 0.250 mEh
Coordinate system following type    .... Cartesian
Length of steepest descent step     .... 0.150 bohr
Do parabolic fit 
  if SD step is uphill              .... YES
Do Correction to SD step            .... YES
Scaling for length of correction
  compared to SD step               .... 0.333
Do parabolic fit to SD correction   .... YES
Only interpolate for parabolic fit  .... YES
Do update to length of
  SD step and correction            .... YES
Convergence Tolerances:
  Max. Gradient            TolMAXG  ....  2.0000e-03 Eh/bohr
  RMS Gradient             TolRMSG  ....  5.0000e-04 Eh/bohr
Storing full IRC trajectory in      .... H3CHCl‡_IRC_Full_trj.xyz
Storing forward trajectory in       .... H3CHCl‡_IRC_F_trj.xyz
Storing backward trajectory in      .... H3CHCl‡_IRC_B_trj.xyz


 ...good, the file H3CHCl‡.hess exists
Reading the hessian file           ...... done
Determining length of initial displacement:
  Requested energy change (quadratic behavior): 0.250 mEh
  Resulting scaling factor for initial displacement along normalized TS mode: 0.0849

         *************************************************************
         *                          FORWARD IRC                      *
         *************************************************************

Iteration    E(Eh)      dE(kcal/mol)  max(|G|)   RMS(G) 
Convergence thresholds                0.002000  0.000500            
    0      -500.013362   -0.118757    0.007308  0.001999
    1      -500.014667   -0.937478    0.008077  0.002729
    2      -500.016226   -1.915978    0.007502  0.002504
    3      -500.017636   -2.800454    0.005163  0.002105
    4      -500.018766   -3.509506    0.006469  0.001909
    5      -500.019029   -3.674769    0.004955  0.002112
    6      -500.019138   -3.743445    0.004175  0.001614
    7      -500.019356   -3.880320    0.003493  0.001422
    8      -500.019575   -4.017263    0.003873  0.001350
    9      -500.019776   -4.143488    0.003329  0.001258
   10      -500.019967   -4.263136    0.003307  0.001177
   11      -500.020144   -4.374595    0.003168  0.001114
   12      -500.020309   -4.478008    0.002803  0.001029
   13      -500.020466   -4.576575    0.002775  0.000973
   14      -500.020609   -4.666382    0.002593  0.000907
   15      -500.020744   -4.750970    0.002468  0.000849
   16      -500.020867   -4.828226    0.002347  0.000799
   17      -500.020982   -4.900468    0.002374  0.000758
   18      -500.021085   -4.965088    0.002401  0.000760
   19      -500.021127   -4.991494    0.001617  0.000746
   20      -500.021171   -5.018704    0.001568  0.000624
   21      -500.021220   -5.049491    0.001488  0.000602
   22      -500.021266   -5.078300    0.001453  0.000575
   23      -500.021310   -5.106243    0.001357  0.000550
   24      -500.021352   -5.132668    0.001396  0.000529
   25      -500.021393   -5.158495    0.001286  0.000506
   26      -500.021433   -5.183037    0.001426  0.000501
   27      -500.021468   -5.205078    0.001381  0.000472

                      ***********************HURRAY********************
                      ***            THE IRC HAS CONVERGED          ***
                      *************************************************


         *************************************************************
         *                          BACKWARD IRC                     *
         *************************************************************

Iteration    E(Eh)      dE(kcal/mol)  max(|G|)   RMS(G) 
Convergence thresholds                0.002000  0.000500            
    0      -500.013468   -0.185542    0.007700  0.002361
    1      -500.016484   -2.077885    0.019224  0.006944
    2      -500.019197   -3.780446    0.014236  0.004684
    3      -500.021427   -5.179750    0.013342  0.003524
    4      -500.023389   -6.410750    0.011184  0.003025
    5      -500.025061   -7.460049    0.009826  0.002579
    6      -500.026491   -8.357119    0.008217  0.002255
    7      -500.027642   -9.079230    0.007051  0.002223
    8      -500.027888   -9.233757    0.006729  0.001924
    9      -500.028362   -9.531059    0.006079  0.001596
   10      -500.028828   -9.824030    0.005510  0.001436
   11      -500.029250   -10.088374    0.004953  0.001312
   12      -500.029623   -10.322323    0.004457  0.001200
   13      -500.029949   -10.527411    0.003992  0.001126
   14      -500.030222   -10.698683    0.003580  0.001361
   15      -500.030271   -10.729292    0.003527  0.001018
   16      -500.030398   -10.809243    0.003345  0.000887
   17      -500.030527   -10.890063    0.003150  0.000828
   18      -500.030651   -10.967605    0.002963  0.000780
   19      -500.030765   -11.039442    0.002782  0.000737
   20      -500.030872   -11.106634    0.002614  0.000701
   21      -500.030971   -11.168760    0.002451  0.000700
   22      -500.031058   -11.223174    0.002311  0.000682
   23      -500.031136   -11.271827    0.002171  0.000811
   24      -500.031155   -11.283930    0.002147  0.000620
   25      -500.031195   -11.308778    0.002083  0.000544
   26      -500.031236   -11.334828    0.002011  0.000522
   27      -500.031276   -11.360013    0.001942  0.000513
   28      -500.031315   -11.384073    0.001875  0.000486

                      ***********************HURRAY********************
                      ***            THE IRC HAS CONVERGED          ***
                      *************************************************


---------------------------------------------------------------
                       IRC PATH SUMMARY              
---------------------------------------------------------------
All gradients are in Eh/Bohr.

Step        E(Eh)      dE(kcal/mol)  max(|G|)   RMS(G) 
   1      -500.031315   -11.384073    0.001875  0.000486
   2      -500.031276   -11.360013    0.001942  0.000513
   3      -500.031236   -11.334828    0.002011  0.000522
   4      -500.031195   -11.308778    0.002083  0.000544
   5      -500.031155   -11.283930    0.002147  0.000620
   6      -500.031136   -11.271827    0.002171  0.000811
   7      -500.031058   -11.223174    0.002311  0.000682
   8      -500.030971   -11.168760    0.002451  0.000700
   9      -500.030872   -11.106634    0.002614  0.000701
  10      -500.030765   -11.039442    0.002782  0.000737
  11      -500.030651   -10.967605    0.002963  0.000780
  12      -500.030527   -10.890063    0.003150  0.000828
  13      -500.030398   -10.809243    0.003345  0.000887
  14      -500.030271   -10.729292    0.003527  0.001018
  15      -500.030222   -10.698683    0.003580  0.001361
  16      -500.029949   -10.527411    0.003992  0.001126
  17      -500.029623   -10.322323    0.004457  0.001200
  18      -500.029250   -10.088374    0.004953  0.001312
  19      -500.028828   -9.824030    0.005510  0.001436
  20      -500.028362   -9.531059    0.006079  0.001596
  21      -500.027888   -9.233757    0.006729  0.001924
  22      -500.027642   -9.079230    0.007051  0.002223
  23      -500.026491   -8.357119    0.008217  0.002255
  24      -500.025061   -7.460049    0.009826  0.002579
  25      -500.023389   -6.410750    0.011184  0.003025
  26      -500.021427   -5.179750    0.013342  0.003524
  27      -500.019197   -3.780446    0.014236  0.004684
  28      -500.016484   -2.077885    0.019224  0.006944
  29      -500.013468   -0.185542    0.007700  0.002361
  30      -500.013173    0.000000    0.000010  0.000003 <= TS
  31      -500.013362   -0.118757    0.007308  0.001999
  32      -500.014667   -0.937478    0.008077  0.002729
  33      -500.016226   -1.915978    0.007502  0.002504
  34      -500.017636   -2.800454    0.005163  0.002105
  35      -500.018766   -3.509506    0.006469  0.001909
  36      -500.019029   -3.674769    0.004955  0.002112
  37      -500.019138   -3.743445    0.004175  0.001614
  38      -500.019356   -3.880320    0.003493  0.001422
  39      -500.019575   -4.017263    0.003873  0.001350
  40      -500.019776   -4.143488    0.003329  0.001258
  41      -500.019967   -4.263136    0.003307  0.001177
  42      -500.020144   -4.374595    0.003168  0.001114
  43      -500.020309   -4.478008    0.002803  0.001029
  44      -500.020466   -4.576575    0.002775  0.000973
  45      -500.020609   -4.666382    0.002593  0.000907
  46      -500.020744   -4.750970    0.002468  0.000849
  47      -500.020867   -4.828226    0.002347  0.000799
  48      -500.020982   -4.900468    0.002374  0.000758
  49      -500.021085   -4.965088    0.002401  0.000760
  50      -500.021127   -4.991494    0.001617  0.000746
  51      -500.021171   -5.018704    0.001568  0.000624
  52      -500.021220   -5.049491    0.001488  0.000602
  53      -500.021266   -5.078300    0.001453  0.000575
  54      -500.021310   -5.106243    0.001357  0.000550
  55      -500.021352   -5.132668    0.001396  0.000529
  56      -500.021393   -5.158495    0.001286  0.000506
  57      -500.021433   -5.183037    0.001426  0.000501
  58      -500.021468   -5.205078    0.001381  0.000472

Timings for individual modules:

Sum of individual times         ...     1768.183 sec (=  29.470 min)
GTO integral calculation        ...      163.214 sec (=   2.720 min)   9.2 %
SCF iterations                  ...      778.272 sec (=  12.971 min)  44.0 %
MP2 module                      ...      762.399 sec (=  12.707 min)  43.1 %
Geometry relaxation             ...        0.221 sec (=   0.004 min)   0.0 %
Analytical frequency calculation...       64.077 sec (=   1.068 min)   3.6 %
                             ****ORCA TERMINATED NORMALLY****
TOTAL RUN TIME: 0 days 0 hours 29 minutes 33 seconds 47 msec
