
                                 *****************
                                 * O   R   C   A *
                                 *****************

           --- An Ab Initio, DFT and Semiempirical electronic structure package ---

                  #######################################################
                  #                        -***-                        #
                  #          Department of theory and spectroscopy      #
                  #               Directorship: Frank Neese             #
                  #        Max Planck Institute fuer Kohlenforschung    #
                  #                Kaiser Wilhelm Platz 1               #
                  #                 D-45470 Muelheim/Ruhr               #
                  #                      Germany                        #
                  #                                                     #
                  #                  All rights reserved                #
                  #                        -***-                        #
                  #######################################################


                         Program Version 4.2.1 -  RELEASE  -


 With contributions from (in alphabetic order):
   Daniel Aravena         : Magnetic Suceptibility
   Michael Atanasov       : Ab Initio Ligand Field Theory (pilot matlab implementation)
   Alexander A. Auer      : GIAO ZORA, VPT2
   Ute Becker             : Parallelization
   Giovanni Bistoni       : ED, misc. LED, open-shell LED, HFLD
   Martin Brehm           : Molecular dynamics
   Dmytro Bykov           : SCF Hessian
   Vijay G. Chilkuri      : MRCI spin determinant printing, contributions to CSF-ICE
   Dipayan Datta          : RHF DLPNO-CCSD density
   Achintya Kumar Dutta   : EOM-CC, STEOM-CC
   Dmitry Ganyushin       : Spin-Orbit,Spin-Spin,Magnetic field MRCI
   Miquel Garcia          : C-PCM Hessian, Gaussian charge scheme
   Yang Guo               : DLPNO-NEVPT2, CIM, IAO-localization
   Andreas Hansen         : Spin unrestricted coupled pair/coupled cluster methods
   Benjamin Helmich-Paris : CASSCF linear response (MC-RPA)
   Lee Huntington         : MR-EOM, pCC
   Robert Izsak           : Overlap fitted RIJCOSX, COSX-SCS-MP3, EOM
   Christian Kollmar      : KDIIS, OOCD, Brueckner-CCSD(T), CCSD density
   Simone Kossmann        : Meta GGA functionals, TD-DFT gradient, OOMP2, MP2 Hessian
   Martin Krupicka        : AUTO-CI
   Lucas Lang             : DCDCAS
   Dagmar Lenk            : GEPOL surface, SMD
   Dimitrios Liakos       : Extrapolation schemes; Compound Job, initial MDCI parallelization
   Dimitrios Manganas     : Further ROCIS development; embedding schemes
   Dimitrios Pantazis     : SARC Basis sets
   Taras Petrenko         : DFT Hessian,TD-DFT gradient, ASA, ECA, R-Raman, ABS, FL, XAS/XES, NRVS
   Peter Pinski           : DLPNO-MP2, DLPNO-MP2 Gradient
   Christoph Reimann      : Effective Core Potentials
   Marius Retegan         : Local ZFS, SOC
   Christoph Riplinger    : Optimizer, TS searches, QM/MM, DLPNO-CCSD(T), (RO)-DLPNO pert. Triples
   Tobias Risthaus        : Range-separated hybrids, TD-DFT gradient, RPA, STAB
   Michael Roemelt        : Original ROCIS implementation
   Masaaki Saitow         : Open-shell DLPNO-CCSD energy and density
   Barbara Sandhoefer     : DKH picture change effects
   Avijit Sen             : IP-ROCIS
   Kantharuban Sivalingam : CASSCF convergence, NEVPT2, FIC-MRCI
   Bernardo de Souza      : ESD, SOC TD-DFT
   Georgi Stoychev        : AutoAux, RI-MP2 NMR
   Willem Van den Heuvel  : Paramagnetic NMR
   Boris Wezisla          : Elementary symmetry handling
   Frank Wennmohs         : Technical directorship


 We gratefully acknowledge several colleagues who have allowed us to
 interface, adapt or use parts of their codes:
   Stefan Grimme, W. Hujo, H. Kruse,             : VdW corrections, initial TS optimization,
                  C. Bannwarth                     DFT functionals, gCP, sTDA/sTD-DF
   Ed Valeev, F. Pavosevic, A. Kumar             : LibInt (2-el integral package), F12 methods
   Garnet Chan, S. Sharma, J. Yang, R. Olivares  : DMRG
   Ulf Ekstrom                                   : XCFun DFT Library
   Mihaly Kallay                                 : mrcc  (arbitrary order and MRCC methods)
   Andreas Klamt, Michael Diedenhofen            : otool_cosmo (COSMO solvation model)
   Jiri Pittner, Ondrej Demel                    : Mk-CCSD
   Frank Weinhold                                : gennbo (NPA and NBO analysis)
   Christopher J. Cramer and Donald G. Truhlar   : smd solvation model
   Lars Goerigk                                  : TD-DFT with DH, B97 family of functionals
   V. Asgeirsson, H. Jonsson                     : NEB implementation
   FAccTs GmbH                                   : IRC, NEB, NEB-TS, Multilevel, MM, QM/MM, CI optimization
   S Lehtola, MJT Oliveira, MAL Marques          : LibXC Library


 Your calculation uses the libint2 library for the computation of 2-el integrals
 For citations please refer to: http://libint.valeyev.net

 Your ORCA version has been built with support for libXC version: 4.2.3
 For citations please refer to: https://tddft.org/programs/libxc/

 This ORCA versions uses:
   CBLAS   interface :  Fast vector & matrix operations
   LAPACKE interface :  Fast linear algebra routines
   SCALAPACK package :  Parallel linear algebra routines


----- Orbital basis set information -----
Your calculation utilizes the basis: 6-311G(d,p)
   H, Li - Ne  : R. Krishnan, J. S. Binkley, R. Seeger and J. A. Pople, J. Chem. Phys. 72, 650 (1980).
   Na - Ar     : A. D. McLean and G. S. Chandler J. Chem. Phys. 72, 5639, (1980).
   K  - Ca     : J.-P. Blaudeau, M. P. McGrath, L. A. Curtiss and L. Radom, J. Chem. Phys. 107, 5016 (1997).
   Ga - Kr     : L. A. Curtiss, M. P. McGrath, J.-P. Blandeau, N. E. Davis, R. C. Binning and L. Radom, J. Chem. Phys. 103, 6104 (1995).
   Pol./Diff.
   H, Li - Cl  : T. Clark, J. Chandrasekhar and P. v. R. Schleyer, J. Comp. Chem. 4, 294 (1983).
   H - Ne      : M. J. Frisch, J. A. Pople and J. S. Binkley, J. Chem. Phys. 80, 3265 (1984).

================================================================================
                                        WARNINGS
                       Please study these warnings very carefully!
================================================================================


WARNING: Geometry Optimization
  ===> : Switching off AutoStart
         For restart on a previous wavefunction, please use MOREAD

WARNING: Post HF methods need fully converged wavefunctions
  ===> : Setting SCFConvForced true
         You can overwrite this default with %scf ConvForced false 


INFO   : the flag for use of LIBINT has been found!

================================================================================
                                       INPUT FILE
================================================================================
NAME = HCl.inp
|  1> ! UHF MP2 6-311G(d,p) Opt Freq NoFrozenCore TightOpt TightSCF Grid4 FinalGrid5 PrintBasis PrintMOs NBO
|  2> %maxcore 3000
|  3> 
|  4> *xyz 0 1
|  5> Cl       0.000000000      0.000000000      0.034379000
|  6> H        0.000000000      0.000000000     -1.236571000
|  7> *
|  8> 
|  9> %pal
| 10>  nprocs 12
| 11> end
| 12> 
| 13>                          ****END OF INPUT****
================================================================================

                       *****************************
                       * Geometry Optimization Run *
                       *****************************

Geometry optimization settings:
Update method            Update   .... BFGS
Choice of coordinates    CoordSys .... Z-matrix Internals
Initial Hessian          InHess   .... Almoef's Model

Convergence Tolerances:
Energy Change            TolE     ....  1.0000e-06 Eh
Max. Gradient            TolMAXG  ....  1.0000e-04 Eh/bohr
RMS Gradient             TolRMSG  ....  3.0000e-05 Eh/bohr
Max. Displacement        TolMAXD  ....  1.0000e-03 bohr
RMS Displacement         TolRMSD  ....  6.0000e-04 bohr
Strict Convergence                ....  False
------------------------------------------------------------------------------
                        ORCA OPTIMIZATION COORDINATE SETUP
------------------------------------------------------------------------------

The optimization will be done in new redundant internal coordinates
Making redundant internal coordinates   ...  (new redundants) done
Evaluating the initial hessian          ...  (Almloef) done
Evaluating the coordinates              ...  done
Calculating the B-matrix                .... done
Calculating the G-matrix                .... done
Diagonalizing the G-matrix              .... done
The first mode is                       ....    0
The number of degrees of freedom        ....    1

    -----------------------------------------------------------------
                    Redundant Internal Coordinates


    -----------------------------------------------------------------
         Definition                    Initial Value    Approx d2E/dq
    -----------------------------------------------------------------
      1. B(H   1,Cl  0)                  1.2710         0.415647   
    -----------------------------------------------------------------

Number of atoms                         .... 2
Number of degrees of freedom            .... 1

         *************************************************************
         *                GEOMETRY OPTIMIZATION CYCLE   1            *
         *************************************************************
---------------------------------
CARTESIAN COORDINATES (ANGSTROEM)
---------------------------------
  Cl     0.000000    0.000000    0.034379
  H      0.000000    0.000000   -1.236571

----------------------------
CARTESIAN COORDINATES (A.U.)
----------------------------
  NO LB      ZA    FRAG     MASS         X           Y           Z
   0 Cl   17.0000    0    35.453    0.000000    0.000000    0.064967
   1 H     1.0000    0     1.008    0.000000    0.000000   -2.336781

--------------------------------
INTERNAL COORDINATES (ANGSTROEM)
--------------------------------
 Cl     0   0   0     0.000000000000     0.00000000     0.00000000
 H      1   0   0     1.270950000000     0.00000000     0.00000000

---------------------------
INTERNAL COORDINATES (A.U.)
---------------------------
 Cl     0   0   0     0.000000000000     0.00000000     0.00000000
 H      1   0   0     2.401747429907     0.00000000     0.00000000

---------------------
BASIS SET INFORMATION
---------------------
There are 2 groups of distinct atoms

 Group   1 Type Cl  : 13s10p1d contracted to 6s5p1d pattern {631111/52111/1}
 Group   2 Type H   : 5s1p contracted to 3s1p pattern {311/1}

Atom   0Cl   basis set group =>   1
Atom   1H    basis set group =>   2

-------------------------
BASIS SET IN INPUT FORMAT
-------------------------

 # Basis set for element : H 
 NewGTO H 
 S 3 
   1      33.8650000000      0.0254938145
   2       5.0947900000      0.1903731086
   3       1.1587900000      0.8521614860
 S 1 
   1       0.3258400000      1.0000000000
 S 1 
   1       0.1027410000      1.0000000000
 P 1 
   1       0.7500000000      1.0000000000
  end;

 # Basis set for element : Cl
 NewGTO Cl
 S 6 
   1  105819.0000000000      0.0007380002
   2   15872.0000000000      0.0057180019
   3    3619.6500000000      0.0294950099
   4    1030.8000000000      0.1172860392
   5     339.9080000000      0.3629491212
   6     124.5380000000      0.5841491951
 S 3 
   1     124.5380000000      0.1341769734
   2      49.5135000000      0.6242498762
   3      20.8056000000      0.2917559421
 S 1 
   1       6.5834600000      1.0000000000
 S 1 
   1       2.5646800000      1.0000000000
 S 1 
   1       0.5597630000      1.0000000000
 S 1 
   1       0.1832730000      1.0000000000
 P 5 
   1     589.7760000000      0.0023909997
   2     139.8490000000      0.0185039976
   3      45.1413000000      0.0813769893
   4      16.8733000000      0.2215519708
   5       6.7411000000      0.7725688983
 P 2 
   1       6.7411000000     -1.5722438126
   2       2.7715200000      0.9923888817
 P 1 
   1       1.0238700000      1.0000000000
 P 1 
   1       0.3813680000      1.0000000000
 P 1 
   1       0.1094370000      1.0000000000
 D 1 
   1       0.7500000000      1.0000000000
  end;



           ************************************************************
           *        Program running with 12 parallel MPI-processes    *
           *              working on a common directory               *
           ************************************************************
------------------------------------------------------------------------------
                           ORCA GTO INTEGRAL CALCULATION
------------------------------------------------------------------------------

                         BASIS SET STATISTICS AND STARTUP INFO

 # of primitive gaussian shells          ...   30
 # of primitive gaussian functions       ...   56
 # of contracted shells                  ...   16
 # of contracted basis functions         ...   32
 Highest angular momentum                ...    2
 Maximum contraction depth               ...    6
 Integral package used                   ... LIBINT
 Integral threshhold            Thresh   ...  2.500e-11
 Primitive cut-off              TCut     ...  2.500e-12


------------------------------ INTEGRAL EVALUATION ----------------------------


 * One electron integrals 
 Pre-screening matrix                    ... done
 Shell pair data                         ... done (   0.000 sec)



           ************************************************************
           *        Program running with 12 parallel MPI-processes    *
           *              working on a common directory               *
           ************************************************************
-------------------------------------------------------------------------------
                                 ORCA SCF
-------------------------------------------------------------------------------

------------
SCF SETTINGS
------------
Hamiltonian:
 Ab initio Hamiltonian  Method          .... Hartree-Fock(GTOs)


General Settings:
 Integral files         IntName         .... HCl
 Hartree-Fock type      HFTyp           .... UHF
 Total Charge           Charge          ....    0
 Multiplicity           Mult            ....    1
 Number of Electrons    NEL             ....   18
 Basis Dimension        Dim             ....   32
 Nuclear Repulsion      ENuc            ....      7.0781797404 Eh

Convergence Acceleration:
 DIIS                   CNVDIIS         .... on
   Start iteration      DIISMaxIt       ....    12
   Startup error        DIISStart       ....  0.200000
   # of expansion vecs  DIISMaxEq       ....     5
   Bias factor          DIISBfac        ....   1.050
   Max. coefficient     DIISMaxC        ....  10.000
 Newton-Raphson         CNVNR           .... off
 SOSCF                  CNVSOSCF        .... off
 Level Shifting         CNVShift        .... on
   Level shift para.    LevelShift      ....    0.2500
   Turn off err/grad.   ShiftErr        ....    0.0010
 Zerner damping         CNVZerner       .... off
 Static damping         CNVDamp         .... on
   Fraction old density DampFac         ....    0.7000
   Max. Damping (<1)    DampMax         ....    0.9800
   Min. Damping (>=0)   DampMin         ....    0.0000
   Turn off err/grad.   DampErr         ....    0.1000
 Fernandez-Rico         CNVRico         .... off

SCF Procedure:
 Maximum # iterations   MaxIter         ....   125
 SCF integral mode      SCFMode         .... Direct
   Integral package                     .... LIBINT
 Reset frequency        DirectResetFreq ....    20
 Integral Threshold     Thresh          ....  2.500e-11 Eh
 Primitive CutOff       TCut            ....  2.500e-12 Eh

Convergence Tolerance:
 Convergence Check Mode ConvCheckMode   .... Total+1el-Energy
 Convergence forced     ConvForced      .... 1
 Energy Change          TolE            ....  1.000e-08 Eh
 1-El. energy change                    ....  1.000e-05 Eh
 DIIS Error             TolErr          ....  5.000e-07


Diagonalization of the overlap matrix:
Smallest eigenvalue                        ... 2.643e-02
Time for diagonalization                   ...    0.001 sec
Threshold for overlap eigenvalues          ... 1.000e-08
Number of eigenvalues below threshold      ... 0
Time for construction of square roots      ...    0.000 sec
Total time needed                          ...    0.001 sec

-------------------
DFT GRID GENERATION
-------------------

General Integration Accuracy     IntAcc      ...  4.670
Radial Grid Type                 RadialGrid  ... Gauss-Chebyshev
Angular Grid (max. acc.)         AngularGrid ... Lebedev-302
Angular grid pruning method      GridPruning ... 3 (G Style)
Weight generation scheme         WeightScheme... Becke
Basis function cutoff            BFCut       ...    1.0000e-11
Integration weight cutoff        WCut        ...    1.0000e-14
Grids for H and He will be reduced by one unit

# of grid points (after initial pruning)     ...  10132 (   0.0 sec)
# of grid points (after weights+screening)   ...  10103 (   0.0 sec)
nearest neighbour list constructed           ...    0.0 sec
Grid point re-assignment to atoms done       ...    0.0 sec
Grid point division into batches done        ...    0.0 sec
Reduced shell lists constructed in    0.0 sec

Total number of grid points                  ...    10103
Total number of batches                      ...      159
Average number of points per batch           ...       63
Average number of grid points per atom       ...     5052
Average number of shells per batch           ...     3.53 (22.08%)
Average number of basis functions per batch  ...     6.47 (20.21%)
Average number of large shells per batch     ...     2.20 (62.26%)
Average number of large basis fcns per batch ...     4.20 (64.95%)
Maximum spatial batch extension              ...  25.31, 23.02, 15.18 au
Average spatial batch extension              ...   1.46,  1.37,  0.97 au

Time for grid setup =    0.073 sec

------------------------------
INITIAL GUESS: MODEL POTENTIAL
------------------------------
Loading Hartree-Fock densities                     ... done
Calculating cut-offs                               ... done
Setting up the integral package                    ... done
Initializing the effective Hamiltonian             ... done
Starting the Coulomb interaction                   ... done (   0.0 sec)
Reading the grid                                   ... done
Mapping shells                                     ... done
Starting the XC term evaluation                    ... done (   0.0 sec)
Transforming the Hamiltonian                       ... done (   0.0 sec)
Diagonalizing the Hamiltonian                      ... done (   0.0 sec)
Back transforming the eigenvectors                 ... done (   0.0 sec)
Now organizing SCF variables                       ... done
                      ------------------
                      INITIAL GUESS DONE (   0.2 sec)
                      ------------------
--------------
SCF ITERATIONS
--------------
ITER       Energy         Delta-E        Max-DP      RMS-DP      [F,P]     Damp
               ***  Starting incremental Fock matrix formation  ***
  0   -460.0668583771   0.000000000000 0.01476083  0.00104163  0.6474339 0.7000
  1   -460.0753151218  -0.008456744768 0.01120513  0.00080265  0.4557966 0.7000
  2   -460.0811375282  -0.005822406348 0.00720169  0.00054411  0.3208001 0.7000
  3   -460.0851458368  -0.004008308632 0.00448275  0.00036407  0.2257221 0.7000
                               ***Turning on DIIS***
  4   -460.0879404627  -0.002794625922 0.00278133  0.00024813  0.1587674 0.7000
  5   -460.1323859261  -0.044445463383 0.00181312  0.00017696  0.1116398 0.7000
  6   -460.1218113855   0.010574540611 0.00474354  0.00044835  0.0782398 0.0000
  7   -460.0947400251   0.027071360426 0.00050111  0.00004110  0.0016076 0.0000
  8   -460.0951948133  -0.000454788196 0.00038189  0.00003114  0.0006883 0.0000
  9   -460.0945305487   0.000664264554 0.00006042  0.00000512  0.0000872 0.0000
 10   -460.0945346750  -0.000004126303 0.00001381  0.00000080  0.0000127 0.0000
 11   -460.0945906589  -0.000055983873 0.00000315  0.00000026  0.0000052 0.0000
                            ***DIIS convergence achieved***

               *****************************************************
               *                     SUCCESS                       *
               *           SCF CONVERGED AFTER  12 CYCLES          *
               *****************************************************


----------------
TOTAL SCF ENERGY
----------------

Total Energy       :         -460.09456685 Eh          -12519.80966 eV

Components:
Nuclear Repulsion  :            7.07817974 Eh             192.60706 eV
Electronic Energy  :         -467.17274659 Eh          -12712.41672 eV
One Electron Energy:         -649.81131448 Eh          -17682.26482 eV
Two Electron Energy:          182.63856789 Eh            4969.84809 eV

Virial components:
Potential Energy   :         -920.21081421 Eh          -25040.20927 eV
Kinetic Energy     :          460.11624736 Eh           12520.39962 eV
Virial Ratio       :            1.99995288


---------------
SCF CONVERGENCE
---------------

  Last Energy change         ...    2.3807e-05  Tolerance :   1.0000e-08
  Last MAX-Density change    ...    3.5823e-07  Tolerance :   1.0000e-07
  Last RMS-Density change    ...    3.0326e-08  Tolerance :   5.0000e-09
  Last DIIS Error            ...    5.8825e-07  Tolerance :   5.0000e-07

             **** THE GBW FILE WAS UPDATED (HCl.gbw) ****
             **** DENSITY FILE WAS UPDATED (HCl.scfp) ****
             **** ENERGY FILE WAS UPDATED (HCl.en.tmp) ****
----------------------
UHF SPIN CONTAMINATION
----------------------

Expectation value of <S**2>     :    -0.000000
Ideal value S*(S+1) for S=0.0   :     0.000000
Deviation                       :    -0.000000

             **** THE GBW FILE WAS UPDATED (HCl.gbw) ****
             **** DENSITY FILE WAS UPDATED (HCl.scfp) ****
----------------
ORBITAL ENERGIES
----------------
                 SPIN UP ORBITALS
  NO   OCC          E(Eh)            E(eV) 
   0   1.0000    -104.850483     -2853.1267 
   1   1.0000     -10.577267      -287.8221 
   2   1.0000      -8.045810      -218.9376 
   3   1.0000      -8.042539      -218.8486 
   4   1.0000      -8.042539      -218.8486 
   5   1.0000      -1.121865       -30.5275 
   6   1.0000      -0.629839       -17.1388 
   7   1.0000      -0.478374       -13.0172 
   8   1.0000      -0.478374       -13.0172 
   9   0.0000       0.123666         3.3651 
  10   0.0000       0.314751         8.5648 
  11   0.0000       0.417276        11.3547 
  12   0.0000       0.417276        11.3547 
  13   0.0000       0.458955        12.4888 
  14   0.0000       0.944352        25.6971 
  15   0.0000       0.991706        26.9857 
  16   0.0000       0.991706        26.9857 
  17   0.0000       1.136204        30.9177 
  18   0.0000       1.136204        30.9177 
  19   0.0000       1.276424        34.7333 
  20   0.0000       1.747857        47.5616 
  21   0.0000       1.747857        47.5616 
  22   0.0000       2.338203        63.6257 
  23   0.0000       2.464865        67.0724 
  24   0.0000       2.464865        67.0724 
  25   0.0000       2.587189        70.4010 
  26   0.0000       2.706503        73.6477 
  27   0.0000      10.251736       278.9639 
  28   0.0000      26.221052       713.5111 
  29   0.0000      26.221052       713.5111 
  30   0.0000      26.420253       718.9316 
  31   0.0000     219.074723      5961.3263 

                 SPIN DOWN ORBITALS
  NO   OCC          E(Eh)            E(eV) 
   0   1.0000    -104.850483     -2853.1267 
   1   1.0000     -10.577267      -287.8221 
   2   1.0000      -8.045810      -218.9376 
   3   1.0000      -8.042539      -218.8486 
   4   1.0000      -8.042539      -218.8486 
   5   1.0000      -1.121865       -30.5275 
   6   1.0000      -0.629839       -17.1388 
   7   1.0000      -0.478374       -13.0172 
   8   1.0000      -0.478374       -13.0172 
   9   0.0000       0.123666         3.3651 
  10   0.0000       0.314751         8.5648 
  11   0.0000       0.417276        11.3547 
  12   0.0000       0.417276        11.3547 
  13   0.0000       0.458955        12.4888 
  14   0.0000       0.944352        25.6971 
  15   0.0000       0.991706        26.9857 
  16   0.0000       0.991706        26.9857 
  17   0.0000       1.136204        30.9177 
  18   0.0000       1.136204        30.9177 
  19   0.0000       1.276424        34.7333 
  20   0.0000       1.747857        47.5616 
  21   0.0000       1.747857        47.5616 
  22   0.0000       2.338203        63.6257 
  23   0.0000       2.464865        67.0724 
  24   0.0000       2.464865        67.0724 
  25   0.0000       2.587189        70.4010 
  26   0.0000       2.706503        73.6477 
  27   0.0000      10.251736       278.9639 
  28   0.0000      26.221052       713.5111 
  29   0.0000      26.221052       713.5111 
  30   0.0000      26.420253       718.9316 
  31   0.0000     219.074723      5961.3263 
------------------
MOLECULAR ORBITALS
------------------
                      0         1         2         3         4         5   
                 -104.85048 -10.57727  -8.04581  -8.04254  -8.04254  -1.12186
                   1.00000   1.00000   1.00000   1.00000   1.00000   1.00000
                  --------  --------  --------  --------  --------  --------
  0Cl  1s        -0.411732 -0.121940 -0.000667 -0.000000 -0.000000  0.034680
  0Cl  2s        -0.654663 -0.331491 -0.001857 -0.000000 -0.000000  0.100348
  0Cl  3s        -0.012083  0.511844  0.003512  0.000000  0.000000 -0.198284
  0Cl  4s         0.000905  0.605652  0.002689  0.000000  0.000000 -0.396099
  0Cl  5s        -0.000206  0.042346 -0.000621 -0.000000 -0.000000  0.600123
  0Cl  6s         0.000111 -0.009564 -0.000215 -0.000000 -0.000000  0.506631
  0Cl  1pz        0.000164 -0.005729  1.230122  0.000000  0.000000  0.044292
  0Cl  1px        0.000000  0.000000 -0.000000  0.974635  0.752533  0.000000
  0Cl  1py       -0.000000  0.000000  0.000000 -0.752533  0.974635  0.000000
  0Cl  2pz        0.000106 -0.001557  0.327111  0.000000  0.000000  0.011512
  0Cl  2px        0.000000  0.000000 -0.000000  0.259067  0.200030  0.000000
  0Cl  2py       -0.000000 -0.000000  0.000000 -0.200030  0.259067  0.000000
  0Cl  3pz       -0.000107 -0.000405  0.051592  0.000000  0.000000 -0.029821
  0Cl  3px       -0.000000 -0.000000 -0.000000  0.038955  0.030078 -0.000000
  0Cl  3py        0.000000 -0.000000  0.000000 -0.030078  0.038955 -0.000000
  0Cl  4pz        0.000087 -0.001969 -0.002887 -0.000000 -0.000000 -0.044493
  0Cl  4px        0.000000  0.000000  0.000000 -0.001721 -0.001329  0.000000
  0Cl  4py       -0.000000  0.000000  0.000000  0.001329 -0.001721 -0.000000
  0Cl  5pz       -0.000042  0.002042  0.001038  0.000000  0.000000 -0.014537
  0Cl  5px        0.000000 -0.000000 -0.000000  0.000538  0.000416 -0.000000
  0Cl  5py        0.000000 -0.000000 -0.000000 -0.000416  0.000538  0.000000
  0Cl  1dz2      -0.000018  0.000961 -0.000530 -0.000000 -0.000000  0.017999
  0Cl  1dxz      -0.000000  0.000000  0.000000 -0.000246 -0.000190 -0.000000
  0Cl  1dyz       0.000000  0.000000  0.000000  0.000190 -0.000246 -0.000000
  0Cl  1dx2y2     0.000000 -0.000000  0.000000 -0.000000  0.000000 -0.000000
  0Cl  1dxy       0.000000  0.000000  0.000000  0.000000  0.000000 -0.000000
  1H   1s         0.000003  0.000263 -0.000415 -0.000000 -0.000000  0.089181
  1H   2s         0.000034 -0.001755 -0.000194  0.000000 -0.000000  0.117185
  1H   3s        -0.000050  0.003553  0.000415  0.000000  0.000000 -0.009769
  1H   1pz        0.000024 -0.001392  0.000042  0.000000  0.000000  0.030140
  1H   1px       -0.000000  0.000000  0.000000  0.000022  0.000017  0.000000
  1H   1py        0.000000 -0.000000 -0.000000 -0.000017  0.000022  0.000000
                      6         7         8         9        10        11   
                  -0.62984  -0.47837  -0.47837   0.12367   0.31475   0.41728
                   1.00000   1.00000   1.00000   0.00000   0.00000   0.00000
                  --------  --------  --------  --------  --------  --------
  0Cl  1s         0.010623  0.000000  0.000000  0.010633  0.003154  0.000000
  0Cl  2s         0.031027  0.000000  0.000000  0.031828  0.009444  0.000000
  0Cl  3s        -0.063833 -0.000000 -0.000000 -0.071832 -0.021427 -0.000000
  0Cl  4s        -0.121408 -0.000000 -0.000000 -0.102296 -0.030536 -0.000000
  0Cl  5s         0.183354  0.000000  0.000000  0.072116 -0.019505  0.000000
  0Cl  6s         0.290838  0.000000  0.000000  1.027400  0.283361  0.000000
  0Cl  1pz       -0.278920  0.000000 -0.000000  0.130812  0.004484 -0.000000
  0Cl  1px       -0.000000  0.028421  0.333867  0.000000  0.000000 -0.031932
  0Cl  1py       -0.000000  0.333867 -0.028421  0.000000  0.000000 -0.186221
  0Cl  2pz       -0.068253  0.000000 -0.000000  0.031675  0.003668 -0.000000
  0Cl  2px       -0.000000  0.006782  0.079666  0.000000  0.000000 -0.005080
  0Cl  2py       -0.000000  0.079666 -0.006782  0.000000  0.000000 -0.029628
  0Cl  3pz        0.200856 -0.000000  0.000000 -0.100544 -0.012545  0.000000
  0Cl  3px        0.000000 -0.020466 -0.240413  0.000000 -0.000000  0.007308
  0Cl  3py        0.000000 -0.240413  0.020466  0.000000  0.000000  0.042616
  0Cl  4pz        0.426032 -0.000000  0.000000 -0.227948  0.059891  0.000000
  0Cl  4px        0.000000 -0.050630 -0.594759 -0.000000  0.000000  0.165451
  0Cl  4py        0.000000 -0.594759  0.050630  0.000000 -0.000000  0.964866
  0Cl  5pz        0.159618 -0.000000  0.000000 -0.828294 -0.980688 -0.000000
  0Cl  5px        0.000000 -0.028543 -0.335301  0.000000 -0.000000 -0.211951
  0Cl  5py        0.000000 -0.335301  0.028543  0.000000  0.000000 -1.236038
  0Cl  1dz2      -0.055231 -0.000000 -0.000000 -0.043814 -0.135815  0.000000
  0Cl  1dxz      -0.000000  0.001134  0.013319 -0.000000 -0.000000 -0.001745
  0Cl  1dyz       0.000000  0.013319 -0.001134 -0.000000 -0.000000 -0.010179
  0Cl  1dx2y2    -0.000000  0.000000  0.000000  0.000000 -0.000000 -0.000000
  0Cl  1dxy      -0.000000  0.000000 -0.000000  0.000000  0.000000 -0.000000
  1H   1s        -0.153090 -0.000000 -0.000000 -0.084216 -0.089941  0.000000
  1H   2s        -0.317393 -0.000000  0.000000 -0.049897 -1.219444  0.000000
  1H   3s        -0.039182 -0.000000 -0.000000 -1.723954  0.631200 -0.000000
  1H   1pz       -0.035410 -0.000000  0.000000  0.011558 -0.043229  0.000000
  1H   1px        0.000000 -0.002091 -0.024561  0.000000 -0.000000  0.001649
  1H   1py       -0.000000 -0.024561  0.002091 -0.000000 -0.000000  0.009617
                     12        13        14        15        16        17   
                   0.41728   0.45895   0.94435   0.99171   0.99171   1.13620
                   0.00000   0.00000   0.00000   0.00000   0.00000   0.00000
                  --------  --------  --------  --------  --------  --------
  0Cl  1s        -0.000000  0.004438  0.032343 -0.000000 -0.000000  0.000000
  0Cl  2s        -0.000000  0.012560  0.088638 -0.000000 -0.000000 -0.000000
  0Cl  3s        -0.000000 -0.022460 -0.132054  0.000000  0.000000  0.000000
  0Cl  4s         0.000000 -0.070814 -0.635166  0.000000  0.000000 -0.000000
  0Cl  5s         0.000000  0.225176  2.271407 -0.000000 -0.000000  0.000000
  0Cl  6s        -0.000000  0.027899 -2.638908  0.000000  0.000000 -0.000000
  0Cl  1pz       -0.000000 -0.220974  0.086292 -0.000000  0.000000  0.000000
  0Cl  1px       -0.186221  0.000000  0.000000 -0.021723 -0.000558  0.000000
  0Cl  1py        0.031932  0.000000  0.000000 -0.000558  0.021723 -0.000000
  0Cl  2pz       -0.000000 -0.037100  0.025817 -0.000000  0.000000  0.000000
  0Cl  2px       -0.029628  0.000000  0.000000 -0.003744 -0.000096  0.000000
  0Cl  2py        0.005080  0.000000  0.000000 -0.000096  0.003744 -0.000000
  0Cl  3pz        0.000000  0.046292 -0.143681  0.000000  0.000000 -0.000000
  0Cl  3px        0.042616  0.000000 -0.000000  0.010682  0.000274 -0.000000
  0Cl  3py       -0.007308 -0.000000 -0.000000  0.000274 -0.010682 -0.000000
  0Cl  4pz       -0.000000  1.152463  0.040881  0.000000 -0.000000  0.000000
  0Cl  4px        0.964866 -0.000000  0.000000  0.074223  0.001905  0.000000
  0Cl  4py       -0.165451 -0.000000  0.000000  0.001905 -0.074223 -0.000000
  0Cl  5pz        0.000000 -1.195652  0.707404 -0.000000 -0.000000  0.000000
  0Cl  5px       -1.236038  0.000000  0.000000  0.047612  0.001222 -0.000000
  0Cl  5py        0.211951  0.000000 -0.000000  0.001222 -0.047612 -0.000000
  0Cl  1dz2       0.000000  0.078103  0.115598  0.000000  0.000000  0.000000
  0Cl  1dxz      -0.010179 -0.000000  0.000000  0.815527  0.020932  0.000000
  0Cl  1dyz       0.001745 -0.000000 -0.000000  0.020932 -0.815527 -0.000000
  0Cl  1dx2y2    -0.000000 -0.000000  0.000000 -0.000000 -0.000000  0.372759
  0Cl  1dxy       0.000000  0.000000 -0.000000  0.000000 -0.000000  0.927928
  1H   1s         0.000000  0.083314 -0.063553  0.000000  0.000000  0.000000
  1H   2s         0.000000  0.816569 -0.052799 -0.000000 -0.000000 -0.000000
  1H   3s        -0.000000 -1.089089  1.292885 -0.000000 -0.000000  0.000000
  1H   1pz        0.000000  0.032388  0.234191 -0.000000 -0.000000 -0.000000
  1H   1px        0.009617 -0.000000 -0.000000 -0.421805 -0.010827  0.000000
  1H   1py       -0.001649 -0.000000  0.000000 -0.010827  0.421805  0.000000
                     18        19        20        21        22        23   
                   1.13620   1.27642   1.74786   1.74786   2.33820   2.46486
                   0.00000   0.00000   0.00000   0.00000   0.00000   0.00000
                  --------  --------  --------  --------  --------  --------
  0Cl  1s        -0.000000 -0.010525  0.000000 -0.000000  0.000717 -0.000000
  0Cl  2s        -0.000000 -0.028781  0.000000 -0.000000  0.001121 -0.000000
  0Cl  3s         0.000000  0.042161  0.000000  0.000000  0.006509  0.000000
  0Cl  4s         0.000000  0.216337 -0.000000  0.000000 -0.049739  0.000000
  0Cl  5s        -0.000000 -0.773464  0.000000 -0.000000  0.267625 -0.000000
  0Cl  6s         0.000000  0.853133 -0.000000  0.000000 -0.432947 -0.000000
  0Cl  1pz       -0.000000  0.042804  0.000000  0.000000 -0.505417 -0.000000
  0Cl  1px       -0.000000  0.000000  0.065369  0.051022  0.000000 -0.214970
  0Cl  1py       -0.000000 -0.000000 -0.051022  0.065369 -0.000000  0.753278
  0Cl  2pz        0.000000  0.017106  0.000000  0.000000 -0.160624 -0.000000
  0Cl  2px        0.000000  0.000000  0.019108  0.014914  0.000000 -0.071273
  0Cl  2py       -0.000000 -0.000000 -0.014914  0.019108 -0.000000  0.249748
  0Cl  3pz        0.000000 -0.121763 -0.000000 -0.000000  1.149536  0.000000
  0Cl  3px       -0.000000 -0.000000 -0.108523 -0.084704 -0.000000  0.523770
  0Cl  3py        0.000000  0.000000  0.084704 -0.108523  0.000000 -1.835346
  0Cl  4pz       -0.000000  0.203066  0.000000  0.000000 -1.029009  0.000000
  0Cl  4px        0.000000  0.000000  0.006441  0.005027  0.000000 -0.499187
  0Cl  4py       -0.000000 -0.000000 -0.005027  0.006441 -0.000000  1.749205
  0Cl  5pz       -0.000000 -0.513953 -0.000000 -0.000000  0.383807  0.000000
  0Cl  5px       -0.000000 -0.000000 -0.133640 -0.104308 -0.000000  0.152110
  0Cl  5py       -0.000000  0.000000  0.104308 -0.133640  0.000000 -0.533009
  0Cl  1dz2       0.000000  0.836549  0.000000  0.000000 -0.218796 -0.000000
  0Cl  1dxz       0.000000 -0.000000  0.495404  0.386670 -0.000000  0.016966
  0Cl  1dyz      -0.000000  0.000000 -0.386670  0.495404  0.000000 -0.059449
  0Cl  1dx2y2     0.927928 -0.000000 -0.000000 -0.000000  0.000000  0.000000
  0Cl  1dxy      -0.372759  0.000000 -0.000000 -0.000000  0.000000 -0.000000
  1H   1s         0.000000  0.123426  0.000000 -0.000000  1.082376  0.000000
  1H   2s        -0.000000 -0.867929 -0.000000 -0.000000 -1.365446  0.000000
  1H   3s        -0.000000  0.062321  0.000000 -0.000000  0.850049  0.000000
  1H   1pz       -0.000000  0.311656  0.000000  0.000000  0.291621  0.000000
  1H   1px       -0.000000 -0.000000  0.759389  0.592713 -0.000000  0.041295
  1H   1py        0.000000 -0.000000 -0.592713  0.759389  0.000000 -0.144702
                     24        25        26        27        28        29   
                   2.46486   2.58719   2.70650  10.25174  26.22105  26.22105
                   0.00000   0.00000   0.00000   0.00000   0.00000   0.00000
                  --------  --------  --------  --------  --------  --------
  0Cl  1s         0.000000 -0.009829 -0.007748  0.115773  0.000000 -0.000000
  0Cl  2s         0.000000 -0.029697 -0.022113  0.482083  0.000000 -0.000000
  0Cl  3s        -0.000000  0.069899  0.040822 -2.651748 -0.000000  0.000000
  0Cl  4s        -0.000000  0.130797  0.150807  3.105427  0.000000 -0.000000
  0Cl  5s         0.000000 -0.255556 -0.334412 -1.689356 -0.000000  0.000000
  0Cl  6s        -0.000000 -0.578423 -0.588942  0.785395  0.000000 -0.000000
  0Cl  1pz       -0.000000  0.490418 -0.366382  0.000301  0.000000 -0.000000
  0Cl  1px       -0.753278  0.000000 -0.000000 -0.000000 -0.057315 -3.356965
  0Cl  1py       -0.214970 -0.000000 -0.000000 -0.000000 -3.356965  0.057315
  0Cl  2pz       -0.000000  0.175006 -0.114789 -0.008812  0.000000 -0.000000
  0Cl  2px       -0.249748 -0.000000 -0.000000 -0.000000 -0.058076 -3.401555
  0Cl  2py       -0.071273 -0.000000 -0.000000 -0.000000 -3.401555  0.058076
  0Cl  3pz        0.000000 -1.441755  0.751927 -0.072978 -0.000000  0.000000
  0Cl  3px        1.835346 -0.000000  0.000000 -0.000000  0.039547  2.316256
  0Cl  3py        0.523770  0.000000  0.000000 -0.000000  2.316256 -0.039547
  0Cl  4pz       -0.000000  2.346511  0.190702  0.275134  0.000000 -0.000000
  0Cl  4px       -1.749205  0.000000 -0.000000  0.000000 -0.018450 -1.080599
  0Cl  4py       -0.499187 -0.000000 -0.000000  0.000000 -1.080599  0.018450
  0Cl  5pz        0.000000 -0.441883  0.359801 -0.208623 -0.000000  0.000000
  0Cl  5px        0.533009 -0.000000  0.000000  0.000000  0.004817  0.282138
  0Cl  5py        0.152110  0.000000  0.000000 -0.000000  0.282138 -0.004817
  0Cl  1dz2       0.000000 -0.863016 -0.563631 -0.095128 -0.000000  0.000000
  0Cl  1dxz       0.059449 -0.000000  0.000000  0.000000  0.000129  0.007555
  0Cl  1dyz       0.016966  0.000000  0.000000  0.000000  0.007555 -0.000129
  0Cl  1dx2y2     0.000000 -0.000000  0.000000  0.000000 -0.000000  0.000000
  0Cl  1dxy       0.000000 -0.000000  0.000000  0.000000 -0.000000 -0.000000
  1H   1s         0.000000  0.415086 -1.075134 -0.031952  0.000000 -0.000000
  1H   2s        -0.000000  0.805961  2.054890  0.239657  0.000000 -0.000000
  1H   3s         0.000000 -0.054171 -0.315694 -0.339323 -0.000000  0.000000
  1H   1pz       -0.000000  1.185343  1.086175  0.201851  0.000000 -0.000000
  1H   1px        0.144702 -0.000000  0.000000  0.000000  0.000512  0.029972
  1H   1py        0.041295  0.000000  0.000000 -0.000000  0.029972 -0.000512
                     30        31   
                  26.42025 219.07472
                   0.00000   0.00000
                  --------  --------
  0Cl  1s         0.001253  1.542090
  0Cl  2s         0.003884 -1.914827
  0Cl  3s        -0.028754  1.437884
  0Cl  4s         0.046350 -0.964252
  0Cl  5s        -0.059210  0.383729
  0Cl  6s         0.085310 -0.179565
  0Cl  1pz        3.384700 -0.008788
  0Cl  1px       -0.000000  0.000000
  0Cl  1py        0.000000  0.000000
  0Cl  2pz        3.422671 -0.007380
  0Cl  2px       -0.000000  0.000000
  0Cl  2py        0.000000  0.000000
  0Cl  3pz       -2.370349  0.019958
  0Cl  3px        0.000000 -0.000000
  0Cl  3py       -0.000000 -0.000000
  0Cl  4pz        1.166988 -0.056420
  0Cl  4px       -0.000000  0.000000
  0Cl  4py        0.000000  0.000000
  0Cl  5pz       -0.345858  0.047804
  0Cl  5px        0.000000 -0.000000
  0Cl  5py       -0.000000 -0.000000
  0Cl  1dz2      -0.026995  0.017370
  0Cl  1dxz       0.000000 -0.000000
  0Cl  1dyz      -0.000000  0.000000
  0Cl  1dx2y2    -0.000000 -0.000000
  0Cl  1dxy       0.000000 -0.000000
  1H   1s         0.049283  0.006751
  1H   2s         0.110177 -0.046736
  1H   3s        -0.171483  0.077027
  1H   1pz       -0.006995 -0.038232
  1H   1px        0.000000 -0.000000
  1H   1py       -0.000000 -0.000000

                      0         1         2         3         4         5   
                 -104.85048 -10.57727  -8.04581  -8.04254  -8.04254  -1.12186
                   1.00000   1.00000   1.00000   1.00000   1.00000   1.00000
                  --------  --------  --------  --------  --------  --------
  0Cl  1s        -0.411732 -0.121940 -0.000667 -0.000000 -0.000000  0.034680
  0Cl  2s        -0.654663 -0.331491 -0.001857 -0.000000 -0.000000  0.100348
  0Cl  3s        -0.012083  0.511844  0.003512  0.000000  0.000000 -0.198284
  0Cl  4s         0.000905  0.605652  0.002689  0.000000  0.000000 -0.396099
  0Cl  5s        -0.000206  0.042346 -0.000621 -0.000000 -0.000000  0.600123
  0Cl  6s         0.000111 -0.009564 -0.000215 -0.000000 -0.000000  0.506631
  0Cl  1pz        0.000164 -0.005729  1.230122  0.000000  0.000000  0.044292
  0Cl  1px        0.000000  0.000000 -0.000000  0.974635  0.752533  0.000000
  0Cl  1py       -0.000000  0.000000  0.000000 -0.752533  0.974635  0.000000
  0Cl  2pz        0.000106 -0.001557  0.327111  0.000000  0.000000  0.011512
  0Cl  2px        0.000000  0.000000 -0.000000  0.259067  0.200030  0.000000
  0Cl  2py       -0.000000 -0.000000  0.000000 -0.200030  0.259067  0.000000
  0Cl  3pz       -0.000107 -0.000405  0.051592  0.000000  0.000000 -0.029821
  0Cl  3px       -0.000000 -0.000000 -0.000000  0.038955  0.030078 -0.000000
  0Cl  3py        0.000000 -0.000000  0.000000 -0.030078  0.038955 -0.000000
  0Cl  4pz        0.000087 -0.001969 -0.002887 -0.000000 -0.000000 -0.044493
  0Cl  4px        0.000000  0.000000  0.000000 -0.001721 -0.001329  0.000000
  0Cl  4py       -0.000000  0.000000  0.000000  0.001329 -0.001721 -0.000000
  0Cl  5pz       -0.000042  0.002042  0.001038  0.000000  0.000000 -0.014537
  0Cl  5px        0.000000 -0.000000 -0.000000  0.000538  0.000416 -0.000000
  0Cl  5py        0.000000 -0.000000 -0.000000 -0.000416  0.000538  0.000000
  0Cl  1dz2      -0.000018  0.000961 -0.000530 -0.000000 -0.000000  0.017999
  0Cl  1dxz      -0.000000  0.000000  0.000000 -0.000246 -0.000190 -0.000000
  0Cl  1dyz       0.000000  0.000000  0.000000  0.000190 -0.000246 -0.000000
  0Cl  1dx2y2     0.000000 -0.000000  0.000000 -0.000000  0.000000 -0.000000
  0Cl  1dxy       0.000000  0.000000  0.000000  0.000000  0.000000 -0.000000
  1H   1s         0.000003  0.000263 -0.000415 -0.000000 -0.000000  0.089181
  1H   2s         0.000034 -0.001755 -0.000194  0.000000 -0.000000  0.117185
  1H   3s        -0.000050  0.003553  0.000415  0.000000  0.000000 -0.009769
  1H   1pz        0.000024 -0.001392  0.000042  0.000000  0.000000  0.030140
  1H   1px       -0.000000  0.000000  0.000000  0.000022  0.000017  0.000000
  1H   1py        0.000000 -0.000000 -0.000000 -0.000017  0.000022  0.000000
                      6         7         8         9        10        11   
                  -0.62984  -0.47837  -0.47837   0.12367   0.31475   0.41728
                   1.00000   1.00000   1.00000   0.00000   0.00000   0.00000
                  --------  --------  --------  --------  --------  --------
  0Cl  1s         0.010623  0.000000  0.000000  0.010633  0.003154  0.000000
  0Cl  2s         0.031027  0.000000  0.000000  0.031828  0.009444  0.000000
  0Cl  3s        -0.063833 -0.000000 -0.000000 -0.071832 -0.021427 -0.000000
  0Cl  4s        -0.121408 -0.000000 -0.000000 -0.102296 -0.030536 -0.000000
  0Cl  5s         0.183354  0.000000  0.000000  0.072116 -0.019505  0.000000
  0Cl  6s         0.290838  0.000000  0.000000  1.027400  0.283361  0.000000
  0Cl  1pz       -0.278920  0.000000 -0.000000  0.130812  0.004484 -0.000000
  0Cl  1px       -0.000000  0.028421  0.333867  0.000000  0.000000 -0.031932
  0Cl  1py       -0.000000  0.333867 -0.028421  0.000000  0.000000 -0.186221
  0Cl  2pz       -0.068253  0.000000 -0.000000  0.031675  0.003668 -0.000000
  0Cl  2px       -0.000000  0.006782  0.079666  0.000000  0.000000 -0.005080
  0Cl  2py       -0.000000  0.079666 -0.006782  0.000000  0.000000 -0.029628
  0Cl  3pz        0.200856 -0.000000  0.000000 -0.100544 -0.012545  0.000000
  0Cl  3px        0.000000 -0.020466 -0.240413  0.000000 -0.000000  0.007308
  0Cl  3py        0.000000 -0.240413  0.020466  0.000000  0.000000  0.042616
  0Cl  4pz        0.426032 -0.000000  0.000000 -0.227948  0.059891  0.000000
  0Cl  4px        0.000000 -0.050630 -0.594759 -0.000000  0.000000  0.165451
  0Cl  4py        0.000000 -0.594759  0.050630  0.000000 -0.000000  0.964866
  0Cl  5pz        0.159618 -0.000000  0.000000 -0.828294 -0.980688 -0.000000
  0Cl  5px        0.000000 -0.028543 -0.335301  0.000000 -0.000000 -0.211951
  0Cl  5py        0.000000 -0.335301  0.028543  0.000000  0.000000 -1.236038
  0Cl  1dz2      -0.055231 -0.000000 -0.000000 -0.043814 -0.135815  0.000000
  0Cl  1dxz      -0.000000  0.001134  0.013319 -0.000000 -0.000000 -0.001745
  0Cl  1dyz       0.000000  0.013319 -0.001134 -0.000000 -0.000000 -0.010179
  0Cl  1dx2y2    -0.000000  0.000000  0.000000  0.000000 -0.000000 -0.000000
  0Cl  1dxy      -0.000000  0.000000 -0.000000  0.000000  0.000000 -0.000000
  1H   1s        -0.153090 -0.000000 -0.000000 -0.084216 -0.089941  0.000000
  1H   2s        -0.317393 -0.000000  0.000000 -0.049897 -1.219444  0.000000
  1H   3s        -0.039182 -0.000000 -0.000000 -1.723954  0.631200 -0.000000
  1H   1pz       -0.035410 -0.000000  0.000000  0.011558 -0.043229  0.000000
  1H   1px        0.000000 -0.002091 -0.024561  0.000000 -0.000000  0.001649
  1H   1py       -0.000000 -0.024561  0.002091 -0.000000 -0.000000  0.009617
                     12        13        14        15        16        17   
                   0.41728   0.45895   0.94435   0.99171   0.99171   1.13620
                   0.00000   0.00000   0.00000   0.00000   0.00000   0.00000
                  --------  --------  --------  --------  --------  --------
  0Cl  1s        -0.000000  0.004438  0.032343 -0.000000 -0.000000  0.000000
  0Cl  2s        -0.000000  0.012560  0.088638 -0.000000 -0.000000 -0.000000
  0Cl  3s        -0.000000 -0.022460 -0.132054  0.000000  0.000000  0.000000
  0Cl  4s         0.000000 -0.070814 -0.635166  0.000000  0.000000 -0.000000
  0Cl  5s         0.000000  0.225176  2.271407 -0.000000 -0.000000  0.000000
  0Cl  6s        -0.000000  0.027899 -2.638908  0.000000  0.000000 -0.000000
  0Cl  1pz       -0.000000 -0.220974  0.086292 -0.000000  0.000000  0.000000
  0Cl  1px       -0.186221  0.000000  0.000000 -0.021723 -0.000558  0.000000
  0Cl  1py        0.031932  0.000000  0.000000 -0.000558  0.021723 -0.000000
  0Cl  2pz       -0.000000 -0.037100  0.025817 -0.000000  0.000000  0.000000
  0Cl  2px       -0.029628  0.000000  0.000000 -0.003744 -0.000096  0.000000
  0Cl  2py        0.005080  0.000000  0.000000 -0.000096  0.003744 -0.000000
  0Cl  3pz        0.000000  0.046292 -0.143681  0.000000  0.000000 -0.000000
  0Cl  3px        0.042616  0.000000 -0.000000  0.010682  0.000274 -0.000000
  0Cl  3py       -0.007308 -0.000000 -0.000000  0.000274 -0.010682 -0.000000
  0Cl  4pz       -0.000000  1.152463  0.040881  0.000000 -0.000000  0.000000
  0Cl  4px        0.964866 -0.000000  0.000000  0.074223  0.001905  0.000000
  0Cl  4py       -0.165451 -0.000000  0.000000  0.001905 -0.074223 -0.000000
  0Cl  5pz        0.000000 -1.195652  0.707404 -0.000000 -0.000000  0.000000
  0Cl  5px       -1.236038  0.000000  0.000000  0.047612  0.001222 -0.000000
  0Cl  5py        0.211951  0.000000 -0.000000  0.001222 -0.047612 -0.000000
  0Cl  1dz2       0.000000  0.078103  0.115598  0.000000  0.000000  0.000000
  0Cl  1dxz      -0.010179 -0.000000  0.000000  0.815527  0.020932  0.000000
  0Cl  1dyz       0.001745 -0.000000 -0.000000  0.020932 -0.815527 -0.000000
  0Cl  1dx2y2    -0.000000 -0.000000  0.000000 -0.000000 -0.000000  0.372759
  0Cl  1dxy       0.000000  0.000000 -0.000000  0.000000 -0.000000  0.927928
  1H   1s         0.000000  0.083314 -0.063553  0.000000  0.000000  0.000000
  1H   2s         0.000000  0.816569 -0.052799 -0.000000 -0.000000 -0.000000
  1H   3s        -0.000000 -1.089089  1.292885 -0.000000 -0.000000  0.000000
  1H   1pz        0.000000  0.032388  0.234191 -0.000000 -0.000000 -0.000000
  1H   1px        0.009617 -0.000000 -0.000000 -0.421805 -0.010827  0.000000
  1H   1py       -0.001649 -0.000000  0.000000 -0.010827  0.421805  0.000000
                     18        19        20        21        22        23   
                   1.13620   1.27642   1.74786   1.74786   2.33820   2.46486
                   0.00000   0.00000   0.00000   0.00000   0.00000   0.00000
                  --------  --------  --------  --------  --------  --------
  0Cl  1s        -0.000000 -0.010525  0.000000 -0.000000  0.000717 -0.000000
  0Cl  2s        -0.000000 -0.028781  0.000000 -0.000000  0.001121 -0.000000
  0Cl  3s         0.000000  0.042161  0.000000  0.000000  0.006509  0.000000
  0Cl  4s         0.000000  0.216337 -0.000000  0.000000 -0.049739  0.000000
  0Cl  5s        -0.000000 -0.773464  0.000000 -0.000000  0.267625 -0.000000
  0Cl  6s         0.000000  0.853133 -0.000000  0.000000 -0.432947 -0.000000
  0Cl  1pz       -0.000000  0.042804  0.000000  0.000000 -0.505417 -0.000000
  0Cl  1px       -0.000000  0.000000  0.065369  0.051022  0.000000 -0.214970
  0Cl  1py       -0.000000 -0.000000 -0.051022  0.065369 -0.000000  0.753278
  0Cl  2pz        0.000000  0.017106  0.000000  0.000000 -0.160624 -0.000000
  0Cl  2px        0.000000  0.000000  0.019108  0.014914  0.000000 -0.071273
  0Cl  2py       -0.000000 -0.000000 -0.014914  0.019108 -0.000000  0.249748
  0Cl  3pz        0.000000 -0.121763 -0.000000 -0.000000  1.149536  0.000000
  0Cl  3px       -0.000000 -0.000000 -0.108523 -0.084704 -0.000000  0.523770
  0Cl  3py        0.000000  0.000000  0.084704 -0.108523  0.000000 -1.835346
  0Cl  4pz       -0.000000  0.203066  0.000000  0.000000 -1.029009  0.000000
  0Cl  4px        0.000000  0.000000  0.006441  0.005027  0.000000 -0.499187
  0Cl  4py       -0.000000 -0.000000 -0.005027  0.006441 -0.000000  1.749205
  0Cl  5pz       -0.000000 -0.513953 -0.000000 -0.000000  0.383807  0.000000
  0Cl  5px       -0.000000 -0.000000 -0.133640 -0.104308 -0.000000  0.152110
  0Cl  5py       -0.000000  0.000000  0.104308 -0.133640  0.000000 -0.533009
  0Cl  1dz2       0.000000  0.836549  0.000000  0.000000 -0.218796 -0.000000
  0Cl  1dxz       0.000000 -0.000000  0.495404  0.386670 -0.000000  0.016966
  0Cl  1dyz      -0.000000  0.000000 -0.386670  0.495404  0.000000 -0.059449
  0Cl  1dx2y2     0.927928 -0.000000 -0.000000 -0.000000  0.000000  0.000000
  0Cl  1dxy      -0.372759  0.000000 -0.000000 -0.000000  0.000000 -0.000000
  1H   1s         0.000000  0.123426  0.000000 -0.000000  1.082376  0.000000
  1H   2s        -0.000000 -0.867929 -0.000000 -0.000000 -1.365446  0.000000
  1H   3s        -0.000000  0.062321  0.000000 -0.000000  0.850049  0.000000
  1H   1pz       -0.000000  0.311656  0.000000  0.000000  0.291621  0.000000
  1H   1px       -0.000000 -0.000000  0.759389  0.592713 -0.000000  0.041295
  1H   1py        0.000000 -0.000000 -0.592713  0.759389  0.000000 -0.144702
                     24        25        26        27        28        29   
                   2.46486   2.58719   2.70650  10.25174  26.22105  26.22105
                   0.00000   0.00000   0.00000   0.00000   0.00000   0.00000
                  --------  --------  --------  --------  --------  --------
  0Cl  1s         0.000000 -0.009829 -0.007748  0.115773  0.000000 -0.000000
  0Cl  2s         0.000000 -0.029697 -0.022113  0.482083  0.000000 -0.000000
  0Cl  3s        -0.000000  0.069899  0.040822 -2.651748 -0.000000  0.000000
  0Cl  4s        -0.000000  0.130797  0.150807  3.105427  0.000000 -0.000000
  0Cl  5s         0.000000 -0.255556 -0.334412 -1.689356 -0.000000  0.000000
  0Cl  6s        -0.000000 -0.578423 -0.588942  0.785395  0.000000 -0.000000
  0Cl  1pz       -0.000000  0.490418 -0.366382  0.000301  0.000000 -0.000000
  0Cl  1px       -0.753278  0.000000 -0.000000 -0.000000 -0.057315 -3.356965
  0Cl  1py       -0.214970 -0.000000 -0.000000 -0.000000 -3.356965  0.057315
  0Cl  2pz       -0.000000  0.175006 -0.114789 -0.008812  0.000000 -0.000000
  0Cl  2px       -0.249748 -0.000000 -0.000000 -0.000000 -0.058076 -3.401555
  0Cl  2py       -0.071273 -0.000000 -0.000000 -0.000000 -3.401555  0.058076
  0Cl  3pz        0.000000 -1.441755  0.751927 -0.072978 -0.000000  0.000000
  0Cl  3px        1.835346 -0.000000  0.000000 -0.000000  0.039547  2.316256
  0Cl  3py        0.523770  0.000000  0.000000 -0.000000  2.316256 -0.039547
  0Cl  4pz       -0.000000  2.346511  0.190702  0.275134  0.000000 -0.000000
  0Cl  4px       -1.749205  0.000000 -0.000000  0.000000 -0.018450 -1.080599
  0Cl  4py       -0.499187 -0.000000 -0.000000  0.000000 -1.080599  0.018450
  0Cl  5pz        0.000000 -0.441883  0.359801 -0.208623 -0.000000  0.000000
  0Cl  5px        0.533009 -0.000000  0.000000  0.000000  0.004817  0.282138
  0Cl  5py        0.152110  0.000000  0.000000 -0.000000  0.282138 -0.004817
  0Cl  1dz2       0.000000 -0.863016 -0.563631 -0.095128 -0.000000  0.000000
  0Cl  1dxz       0.059449 -0.000000  0.000000  0.000000  0.000129  0.007555
  0Cl  1dyz       0.016966  0.000000  0.000000  0.000000  0.007555 -0.000129
  0Cl  1dx2y2     0.000000 -0.000000  0.000000  0.000000 -0.000000  0.000000
  0Cl  1dxy       0.000000 -0.000000  0.000000  0.000000 -0.000000 -0.000000
  1H   1s         0.000000  0.415086 -1.075134 -0.031952  0.000000 -0.000000
  1H   2s        -0.000000  0.805961  2.054890  0.239657  0.000000 -0.000000
  1H   3s         0.000000 -0.054171 -0.315694 -0.339323 -0.000000  0.000000
  1H   1pz       -0.000000  1.185343  1.086175  0.201851  0.000000 -0.000000
  1H   1px        0.144702 -0.000000  0.000000  0.000000  0.000512  0.029972
  1H   1py        0.041295  0.000000  0.000000 -0.000000  0.029972 -0.000512
                     30        31   
                  26.42025 219.07472
                   0.00000   0.00000
                  --------  --------
  0Cl  1s         0.001253  1.542090
  0Cl  2s         0.003884 -1.914827
  0Cl  3s        -0.028754  1.437884
  0Cl  4s         0.046350 -0.964252
  0Cl  5s        -0.059210  0.383729
  0Cl  6s         0.085310 -0.179565
  0Cl  1pz        3.384700 -0.008788
  0Cl  1px       -0.000000  0.000000
  0Cl  1py        0.000000  0.000000
  0Cl  2pz        3.422671 -0.007380
  0Cl  2px       -0.000000  0.000000
  0Cl  2py        0.000000  0.000000
  0Cl  3pz       -2.370349  0.019958
  0Cl  3px        0.000000 -0.000000
  0Cl  3py       -0.000000 -0.000000
  0Cl  4pz        1.166988 -0.056420
  0Cl  4px       -0.000000  0.000000
  0Cl  4py        0.000000  0.000000
  0Cl  5pz       -0.345858  0.047804
  0Cl  5px        0.000000 -0.000000
  0Cl  5py       -0.000000 -0.000000
  0Cl  1dz2      -0.026995  0.017370
  0Cl  1dxz       0.000000 -0.000000
  0Cl  1dyz      -0.000000  0.000000
  0Cl  1dx2y2    -0.000000 -0.000000
  0Cl  1dxy       0.000000 -0.000000
  1H   1s         0.049283  0.006751
  1H   2s         0.110177 -0.046736
  1H   3s        -0.171483  0.077027
  1H   1pz       -0.006995 -0.038232
  1H   1px        0.000000 -0.000000
  1H   1py       -0.000000 -0.000000



                    ********************************
                    * MULLIKEN POPULATION ANALYSIS *
                    ********************************

--------------------------------------------
MULLIKEN ATOMIC CHARGES AND SPIN POPULATIONS
--------------------------------------------
   0 Cl:   -0.167005    0.000000
   1 H :    0.167005    0.000000
Sum of atomic charges         :   -0.0000000
Sum of atomic spin populations:    0.0000000

-----------------------------------------------------
MULLIKEN REDUCED ORBITAL CHARGES AND SPIN POPULATIONS
-----------------------------------------------------
CHARGE
  0 Cls       :     5.929957  s :     5.929957
      pz      :     3.238415  p :    11.214143
      px      :     3.987864
      py      :     3.987864
      dz2     :     0.021876  d :     0.022906
      dxz     :     0.000515
      dyz     :     0.000515
      dx2y2   :     0.000000
      dxy     :     0.000000
  1 H s       :     0.779694  s :     0.779694
      pz      :     0.030058  p :     0.053300
      px      :     0.011621
      py      :     0.011621

SPIN
  0 Cls       :     0.000000  s :     0.000000
      pz      :     0.000000  p :     0.000000
      px      :     0.000000
      py      :     0.000000
      dz2     :     0.000000  d :     0.000000
      dxz     :     0.000000
      dyz     :     0.000000
      dx2y2   :     0.000000
      dxy     :     0.000000
  1 H s       :     0.000000  s :     0.000000
      pz      :     0.000000  p :     0.000000
      px      :     0.000000
      py      :     0.000000


                     *******************************
                     * LOEWDIN POPULATION ANALYSIS *
                     *******************************

-------------------------------------------
LOEWDIN ATOMIC CHARGES AND SPIN POPULATIONS
-------------------------------------------
   0 Cl:    0.034782    0.000000
   1 H :   -0.034782    0.000000

----------------------------------------------------
LOEWDIN REDUCED ORBITAL CHARGES AND SPIN POPULATIONS
----------------------------------------------------
CHARGE
  0 Cls       :     5.720635  s :     5.720635
      pz      :     3.274957  p :    11.220981
      px      :     3.973012
      py      :     3.973012
      dz2     :     0.023071  d :     0.023602
      dxz     :     0.000266
      dyz     :     0.000266
      dx2y2   :     0.000000
      dxy     :     0.000000
  1 H s       :     0.905387  s :     0.905387
      pz      :     0.075950  p :     0.129394
      px      :     0.026722
      py      :     0.026722

SPIN
  0 Cls       :     0.000000  s :     0.000000
      pz      :     0.000000  p :     0.000000
      px      :     0.000000
      py      :     0.000000
      dz2     :     0.000000  d :     0.000000
      dxz     :     0.000000
      dyz     :     0.000000
      dx2y2   :     0.000000
      dxy     :     0.000000
  1 H s       :     0.000000  s :     0.000000
      pz      :     0.000000  p :     0.000000
      px      :     0.000000
      py      :     0.000000


                      *****************************
                      * MAYER POPULATION ANALYSIS *
                      *****************************

  NA   - Mulliken gross atomic population
  ZA   - Total nuclear charge
  QA   - Mulliken gross atomic charge
  VA   - Mayer's total valence
  BVA  - Mayer's bonded valence
  FA   - Mayer's free valence

  ATOM       NA         ZA         QA         VA         BVA        FA
  0 Cl    17.1670    17.0000    -0.1670     0.9887     0.9887    -0.0000
  1 H      0.8330     1.0000     0.1670     0.9887     0.9887    -0.0000

  Mayer bond orders larger than 0.100000
B(  0-Cl,  1-H ) :   0.9887 

Now starting NBO....

 *********************************** NBO 7.0 ***********************************
             N A T U R A L   A T O M I C   O R B I T A L   A N D
          N A T U R A L   B O N D   O R B I T A L   A N A L Y S I S
 *********************** Giovanni  F. Caramori (I101916) ***********************
  (c) Copyright 1996-2020 Board of Regents of the University of Wisconsin System
      on behalf of the Theoretical Chemistry Institute.  All rights reserved.

          Cite this program [NBO 7.0.8 (11-Feb-2020)] as:

          NBO 7.0.  E. D. Glendening, J. K. Badenhoop, A. E. Reed,
          J. E. Carpenter, J. A. Bohmann, C. M. Morales, P. Karafiloglou,
          C. R. Landis, and F. Weinhold, Theoretical Chemistry Institute,
          University of Wisconsin, Madison, WI (2018)

       /NPA    / : Natural Population Analysis
       /NBO    / : Natural Bond Orbital Analysis
       /AONBO  / : Checkpoint the AO to NBO transformation
       /ARCHIVE/ : Write the archive file to lfn47

 Job title: ORCA Job: HCl


 NATURAL POPULATIONS:  Natural atomic orbital occupancies

  NAO Atom No lang   Type(AO)    Occupancy     Spin
 -----------------------------------------------------
   1   Cl  1  s      Cor( 1s)     2.00000     0.00000
   2   Cl  1  s      Cor( 2s)     1.99999     0.00000
   3   Cl  1  s      Val( 3s)     1.89214     0.00000
   4   Cl  1  s      Ryd( 4s)     0.00025     0.00000
   5   Cl  1  s      Ryd( 5s)     0.00000     0.00000
   6   Cl  1  s      Ryd( 6s)     0.00000     0.00000
   7   Cl  1  px     Cor( 2p)     2.00000     0.00000
   8   Cl  1  px     Val( 3p)     1.99797     0.00000
   9   Cl  1  px     Ryd( 4p)     0.00042     0.00000
  10   Cl  1  px     Ryd( 5p)     0.00000     0.00000
  11   Cl  1  px     Ryd( 6p)     0.00000     0.00000
  12   Cl  1  py     Cor( 2p)     2.00000     0.00000
  13   Cl  1  py     Val( 3p)     1.99797     0.00000
  14   Cl  1  py     Ryd( 4p)     0.00042     0.00000
  15   Cl  1  py     Ryd( 5p)     0.00000     0.00000
  16   Cl  1  py     Ryd( 6p)     0.00000     0.00000
  17   Cl  1  pz     Cor( 2p)     2.00000     0.00000
  18   Cl  1  pz     Val( 3p)     1.34808     0.00000
  19   Cl  1  pz     Ryd( 4p)     0.00250     0.00000
  20   Cl  1  pz     Ryd( 5p)     0.00001     0.00000
  21   Cl  1  pz     Ryd( 6p)     0.00000     0.00000
  22   Cl  1  dxy    Ryd( 3d)     0.00000     0.00000
  23   Cl  1  dxz    Ryd( 3d)     0.00050     0.00000
  24   Cl  1  dyz    Ryd( 3d)     0.00050     0.00000
  25   Cl  1  dx2y2  Ryd( 3d)     0.00000     0.00000
  26   Cl  1  dz2    Ryd( 3d)     0.00844     0.00000

  27    H  2  s      Val( 1s)     0.74259     0.00000
  28    H  2  s      Ryd( 3s)     0.00026     0.00000
  29    H  2  s      Ryd( 2s)     0.00000     0.00000
  30    H  2  px     Ryd( 2p)     0.00112     0.00000
  31    H  2  py     Ryd( 2p)     0.00112     0.00000
  32    H  2  pz     Ryd( 2p)     0.00573     0.00000


 Summary of Natural Population Analysis:

                                     Natural Population                 Natural
             Natural    ---------------------------------------------    Spin
  Atom No    Charge        Core      Valence    Rydberg      Total      Density
 -------------------------------------------------------------------------------
   Cl  1   -0.24918      9.99999     7.23616    0.01302    17.24918     0.00000
    H  2    0.24918      0.00000     0.74259    0.00823     0.75082     0.00000
 ===============================================================================
 * Total *  0.00000      9.99999     7.97875    0.02126    18.00000     0.00000

                                 Natural Population
 ---------------------------------------------------------
   Core                       9.99999 ( 99.9999% of   10)
   Valence                    7.97875 ( 99.7344% of    8)
   Natural Minimal Basis     17.97874 ( 99.8819% of   18)
   Natural Rydberg Basis      0.02126 (  0.1181% of   18)
 ---------------------------------------------------------

    Atom No         Natural Electron Configuration
 ----------------------------------------------------------------------------
     Cl  1      [core]3s( 1.89)3p( 5.34)3d( 0.01)
      H  2            1s( 0.74)2p( 0.01)


 ***************************************************
 *******         Alpha spin orbitals         *******
 ***************************************************


 NATURAL POPULATIONS:  Natural atomic orbital occupancies

  NAO Atom No lang   Type(AO)    Occupancy      Energy
 -------------------------------------------------------
   1   Cl  1  s      Cor( 1s)     1.00000    -104.83901
   2   Cl  1  s      Cor( 2s)     1.00000     -10.58853
   3   Cl  1  s      Val( 3s)     0.94607      -1.00169
   4   Cl  1  s      Ryd( 4s)     0.00013       1.66923
   5   Cl  1  s      Ryd( 5s)     0.00000      10.44934
   6   Cl  1  s      Ryd( 6s)     0.00000     217.97366
   7   Cl  1  px     Cor( 2p)     1.00000      -8.04253
   8   Cl  1  px     Val( 3p)     0.99898      -0.47684
   9   Cl  1  px     Ryd( 4p)     0.00021       0.75204
  10   Cl  1  px     Ryd( 5p)     0.00000       2.15190
  11   Cl  1  px     Ryd( 6p)     0.00000      26.19540
  12   Cl  1  py     Cor( 2p)     1.00000      -8.04253
  13   Cl  1  py     Val( 3p)     0.99898      -0.47684
  14   Cl  1  py     Ryd( 4p)     0.00021       0.75204
  15   Cl  1  py     Ryd( 5p)     0.00000       2.15190
  16   Cl  1  py     Ryd( 6p)     0.00000      26.19540
  17   Cl  1  pz     Cor( 2p)     1.00000      -8.04585
  18   Cl  1  pz     Val( 3p)     0.67404      -0.32905
  19   Cl  1  pz     Ryd( 4p)     0.00125       0.83036
  20   Cl  1  pz     Ryd( 5p)     0.00000       2.23701
  21   Cl  1  pz     Ryd( 6p)     0.00000      26.24018
  22   Cl  1  dxy    Ryd( 3d)     0.00000       1.13620
  23   Cl  1  dxz    Ryd( 3d)     0.00025       1.20808
  24   Cl  1  dyz    Ryd( 3d)     0.00025       1.20808
  25   Cl  1  dx2y2  Ryd( 3d)     0.00000       1.13620
  26   Cl  1  dz2    Ryd( 3d)     0.00422       1.62996

  27    H  2  s      Val( 1s)     0.37130      -0.05943
  28    H  2  s      Ryd( 3s)     0.00013       2.21152
  29    H  2  s      Ryd( 2s)     0.00000       0.67617
  30    H  2  px     Ryd( 2p)     0.00056       1.53380
  31    H  2  py     Ryd( 2p)     0.00056       1.53380
  32    H  2  pz     Ryd( 2p)     0.00286       2.21762


 Summary of Natural Population Analysis:

                                     Natural Population
             Natural    ---------------------------------------------
  Atom No    Charge        Core      Valence    Rydberg      Total
 --------------------------------------------------------------------
   Cl  1   -0.12459      5.00000     3.61808    0.00651     8.62459
    H  2    0.12459      0.00000     0.37130    0.00412     0.37541
 ====================================================================
 * Total *  0.00000      5.00000     3.98938    0.01063     9.00000

                                 Natural Population
 ---------------------------------------------------------
   Core                       5.00000 ( 99.9999% of    5)
   Valence                    3.98938 ( 99.7344% of    4)
   Natural Minimal Basis      8.98937 ( 99.8819% of    9)
   Natural Rydberg Basis      0.01063 (  0.1181% of    9)
 ---------------------------------------------------------

    Atom No         Natural Electron Configuration
 ----------------------------------------------------------------------------
     Cl  1      [core]3s( 0.95)3p( 2.67)
      H  2            1s( 0.37)


 NATURAL BOND ORBITAL ANALYSIS, alpha spin orbitals:

                            Occupancies       Lewis Structure    Low   High
         Max    Occ     -------------------  -----------------   occ   occ
  Cycle  Ctr   Thresh    Lewis   non-Lewis     CR  BD  nC  LP    (L)   (NL)
 ============================================================================
    1     2     0.95     8.99874   0.00126      5   1   0   3     0      0
 ----------------------------------------------------------------------------

 Structure accepted: No low occupancy Lewis orbitals

 -------------------------------------------------------
   Core                      5.00000 (100.000% of   5)
   Valence Lewis             3.99874 ( 99.969% of   4)
  ==================      =============================
   Total Lewis               8.99874 ( 99.986% of   9)
  -----------------------------------------------------
   Valence non-Lewis         0.00000 (  0.000% of   9)
   Rydberg non-Lewis         0.00126 (  0.014% of   9)
  ==================      =============================
   Total non-Lewis           0.00126 (  0.014% of   9)
 -------------------------------------------------------


     (Occupancy)   Bond orbital / Coefficients / Hybrids
 ------------------ Lewis ------------------------------------------------------
   1. (1.00000) CR ( 1)Cl  1            s(100.00%)
                                         1.0000  0.0000  0.0000  0.0000  0.0000
                                         0.0000  0.0000  0.0000  0.0000  0.0000
                                         0.0000  0.0000  0.0000  0.0000  0.0000
                                         0.0000  0.0000  0.0000  0.0000  0.0000
                                         0.0000  0.0000  0.0000  0.0000  0.0000
                                         0.0000
   2. (1.00000) CR ( 2)Cl  1            s(100.00%)
                                         0.0000  1.0000  0.0000  0.0000  0.0000
                                         0.0000  0.0000  0.0000  0.0000  0.0000
                                         0.0000  0.0000  0.0000  0.0000  0.0000
                                         0.0000  0.0000  0.0000  0.0000  0.0000
                                         0.0000  0.0000  0.0000  0.0000  0.0000
                                         0.0000
   3. (1.00000) CR ( 3)Cl  1            s(  0.00%)p 1.00(100.00%)
                                         0.0000  0.0000  0.0000  0.0000  0.0000
                                         0.0000  1.0000  0.0000  0.0000  0.0000
                                         0.0000  0.0000  0.0000  0.0000  0.0000
                                         0.0000  0.0000  0.0000  0.0000  0.0000
                                         0.0000  0.0000  0.0000  0.0000  0.0000
                                         0.0000
   4. (1.00000) CR ( 4)Cl  1            s(  0.00%)p 1.00(100.00%)
                                         0.0000  0.0000  0.0000  0.0000  0.0000
                                         0.0000  0.0000  0.0000  0.0000  0.0000
                                         0.0000  1.0000  0.0000  0.0000  0.0000
                                         0.0000  0.0000  0.0000  0.0000  0.0000
                                         0.0000  0.0000  0.0000  0.0000  0.0000
                                         0.0000
   5. (1.00000) CR ( 5)Cl  1            s(  0.00%)p 1.00(100.00%)
                                         0.0000  0.0000  0.0000  0.0000  0.0000
                                         0.0000  0.0000  0.0000  0.0000  0.0000
                                         0.0000  0.0000  0.0000  0.0000  0.0000
                                         0.0000  1.0000  0.0000  0.0000  0.0000
                                         0.0000  0.0000  0.0000  0.0000  0.0000
                                         0.0000
   6. (0.99986) LP ( 1)Cl  1            s( 85.67%)p 0.17( 14.31%)d 0.00(  0.02%)
                                         0.0000  0.0000  0.9256 -0.0034  0.0000
                                         0.0000  0.0000  0.0000  0.0000  0.0000
                                         0.0000  0.0000  0.0000  0.0000  0.0000
                                         0.0000  0.0000  0.3781  0.0132  0.0017
                                         0.0000  0.0000  0.0000  0.0000  0.0000
                                        -0.0150
   7. (0.99944) LP ( 2)Cl  1            s(  0.00%)p 1.00( 99.98%)d 0.00(  0.02%)
                                         0.0000  0.0000  0.0000  0.0000  0.0000
                                         0.0000  0.0000  0.9998 -0.0145 -0.0001
                                         0.0000  0.0000  0.0000  0.0000  0.0000
                                         0.0000  0.0000  0.0000  0.0000  0.0000
                                         0.0000  0.0000 -0.0157  0.0000  0.0000
                                         0.0000
   8. (0.99944) LP ( 3)Cl  1            s(  0.00%)p 1.00( 99.98%)d 0.00(  0.02%)
                                         0.0000  0.0000  0.0000  0.0000  0.0000
                                         0.0000  0.0000  0.0000  0.0000  0.0000
                                         0.0000  0.0000  0.9998 -0.0145 -0.0001
                                         0.0000  0.0000  0.0000  0.0000  0.0000
                                         0.0000  0.0000  0.0000 -0.0157  0.0000
                                         0.0000
   9. (1.00000) BD ( 1)Cl  1- H  2
               ( 62.58%)   0.7911*Cl  1 s( 14.32%)p 5.94( 85.04%)d 0.04(  0.64%)
                                         0.0000  0.0000  0.3782  0.0135  0.0000
                                         0.0000  0.0000  0.0000  0.0000  0.0000
                                         0.0000  0.0000  0.0000  0.0000  0.0000
                                         0.0000  0.0000 -0.9212 -0.0415  0.0009
                                         0.0000  0.0000  0.0000  0.0000  0.0000
                                         0.0799
               ( 37.42%)   0.6117* H  2 s( 99.24%)p 0.01(  0.76%)
                                         0.9962  0.0000  0.0000  0.0000  0.0000
                                         0.0874
 ---------------- non-Lewis ----------------------------------------------------
  10. (0.00000) BD*( 1)Cl  1- H  2
               ( 37.42%)   0.6117*Cl  1 s( 14.32%)p 5.94( 85.04%)d 0.04(  0.64%)
               ( 62.58%)  -0.7911* H  2 s( 99.24%)p 0.01(  0.76%)
  11. (0.00000) RY ( 1)Cl  1            s( 11.51%)p 4.53( 52.18%)d 3.15( 36.30%)
  12. (0.00000) RY ( 2)Cl  1            s( 71.11%)p 0.41( 28.89%)d 0.00(  0.00%)
  13. (0.00000) RY ( 3)Cl  1            s( 68.07%)p 0.44( 29.71%)d 0.03(  2.22%)
  14. (0.00000) RY ( 4)Cl  1            s( 99.82%)p 0.00(  0.08%)d 0.00(  0.10%)
  15. (0.00000) RY ( 5)Cl  1            s(  0.00%)p 1.00( 66.03%)d 0.51( 33.97%)
  16. (0.00000) RY ( 6)Cl  1            s(  0.00%)p 1.00(100.00%)d 0.00(  0.00%)
  17. (0.00000) RY ( 7)Cl  1            s(  0.00%)p 1.00( 99.90%)d 0.00(  0.10%)
  18. (0.00000) RY ( 8)Cl  1            s(  0.00%)p 1.00( 66.03%)d 0.51( 33.97%)
  19. (0.00000) RY ( 9)Cl  1            s(  0.00%)p 1.00(100.00%)d 0.00(  0.00%)
  20. (0.00000) RY (10)Cl  1            s(  0.00%)p 1.00( 99.90%)d 0.00(  0.10%)
  21. (0.00000) RY (11)Cl  1            s( 29.00%)p 2.43( 70.32%)d 0.02(  0.68%)
  22. (0.00000) RY (12)Cl  1            s(  5.00%)p16.99( 84.91%)d 2.02( 10.09%)
  23. (0.00000) RY (13)Cl  1            s(  0.00%)p 0.00(  0.00%)d 1.00(100.00%)
  24. (0.00000) RY (14)Cl  1            s(  0.00%)p 1.00( 34.09%)d 1.93( 65.91%)
  25. (0.00000) RY (15)Cl  1            s(  0.00%)p 1.00( 34.09%)d 1.93( 65.91%)
  26. (0.00000) RY (16)Cl  1            s(  0.00%)p 0.00(  0.00%)d 1.00(100.00%)
  27. (0.00000) RY (17)Cl  1            s( 15.50%)p 2.23( 34.56%)d 3.22( 49.94%)
  28. (0.00056) RY ( 1) H  2            s(  0.00%)p 1.00(100.00%)
                                         0.0000  0.0000  0.0000  1.0000  0.0000
                                         0.0000
  29. (0.00056) RY ( 2) H  2            s(  0.00%)p 1.00(100.00%)
                                         0.0000  0.0000  0.0000  0.0000  1.0000
                                         0.0000
  30. (0.00014) RY ( 3) H  2            s( 93.47%)p 0.07(  6.53%)
                                        -0.0224  0.9665 -0.0014  0.0000  0.0000
                                         0.2556
  31. (0.00000) RY ( 4) H  2            s( 65.19%)p 0.53( 34.81%)
  32. (0.00000) RY ( 5) H  2            s( 42.11%)p 1.37( 57.89%)


 NHO DIRECTIONALITY AND BOND BENDING (deviation from line of nuclear centers at
                                      the position of maximum hybrid amplitude)

         [Thresholds for printing:  angular deviation  >  1.0 degree]
                                    p- or d-character  > 25.0%
                                    orbital occupancy  >  0.10e

                        Line of Centers        Hybrid 1             Hybrid 2
                        ---------------  -------------------  ------------------
           NBO            Theta   Phi    Theta   Phi    Dev   Theta   Phi    Dev
 ===============================================================================
   7. LP ( 2)Cl  1          --     --     92.5  180.0   --      --     --    --
   8. LP ( 3)Cl  1          --     --     92.5   90.0   --      --     --    --


 SECOND ORDER PERTURBATION THEORY ANALYSIS OF FOCK MATRIX IN NBO BASIS

     Threshold for printing:   0.25 kcal/mol
                                                          E(2) E(NL)-E(L) F(L,NL)
      Donor (L) NBO              Acceptor (NL) NBO      kcal/mol   a.u.    a.u.
 ===============================================================================

 within unit  1
    6. LP ( 1)Cl  1            30. RY ( 3) H  2            0.27    3.03   0.036
    7. LP ( 2)Cl  1            28. RY ( 1) H  2            0.71    2.01   0.048
    8. LP ( 3)Cl  1            29. RY ( 2) H  2            0.71    2.01   0.048


 NATURAL BOND ORBITALS (Summary):

                                                     Principal Delocalizations
           NBO                 Occupancy    Energy   (geminal,vicinal,remote)
 ===============================================================================
 Molecular unit  1  (HCl)
 ------ Lewis --------------------------------------
    1. CR ( 1)Cl  1             1.00000  -104.83901
    2. CR ( 2)Cl  1             1.00000   -10.58853
    3. CR ( 3)Cl  1             1.00000    -8.04253
    4. CR ( 4)Cl  1             1.00000    -8.04253
    5. CR ( 5)Cl  1             1.00000    -8.04585
    6. LP ( 1)Cl  1             0.99986    -0.95757  30(v)
    7. LP ( 2)Cl  1             0.99944    -0.47725  28(v)
    8. LP ( 3)Cl  1             0.99944    -0.47725  29(v)
    9. BD ( 1)Cl  1- H  2       1.00000    -0.79382
 ------ non-Lewis ----------------------------------
   10. BD*( 1)Cl  1- H  2       0.00000     0.38472
   11. RY ( 1)Cl  1             0.00000     1.50739
   12. RY ( 2)Cl  1             0.00000     4.55330
   13. RY ( 3)Cl  1             0.00000     9.38265
   14. RY ( 4)Cl  1             0.00000   217.83379
   15. RY ( 5)Cl  1             0.00000     1.77454
   16. RY ( 6)Cl  1             0.00000     0.98401
   17. RY ( 7)Cl  1             0.00000    26.12674
   18. RY ( 8)Cl  1             0.00000     1.77454
   19. RY ( 9)Cl  1             0.00000     0.98401
   20. RY (10)Cl  1             0.00000    26.12674
   21. RY (11)Cl  1             0.00000     5.36451
   22. RY (12)Cl  1             0.00000    19.07044
   23. RY (13)Cl  1             0.00000     1.13620
   24. RY (14)Cl  1             0.00000     1.42254
   25. RY (15)Cl  1             0.00000     1.42254
   26. RY (16)Cl  1             0.00000     1.13620
   27. RY (17)Cl  1             0.00000     3.29738
   28. RY ( 1) H  2             0.00056     1.53380
   29. RY ( 2) H  2             0.00056     1.53380
   30. RY ( 3) H  2             0.00014     2.07616
   31. RY ( 4) H  2             0.00000     1.06214
   32. RY ( 5) H  2             0.00000     1.96380
          -------------------------------
                 Total Lewis    8.99874  ( 99.9860%)
           Valence non-Lewis    0.00000  (  0.0000%)
           Rydberg non-Lewis    0.00126  (  0.0140%)
          -------------------------------
               Total unit  1    9.00000  (100.0000%)
              Charge unit  1    0.00000


 ***************************************************
 *******         Beta  spin orbitals         *******
 ***************************************************


 NATURAL POPULATIONS:  Natural atomic orbital occupancies

  NAO Atom No lang   Type(AO)    Occupancy      Energy
 -------------------------------------------------------
   1   Cl  1  s      Cor( 1s)     1.00000    -104.83901
   2   Cl  1  s      Cor( 2s)     1.00000     -10.58853
[...]
                                         0.0000  0.0000  0.0000  0.0000  0.0000
                                         0.0000  0.0000 -0.0063  0.0000  0.0000
                                         0.0000
  21. (0.00031) RY (11)Cl  1            s(  0.00%)p 1.00(100.00%)d 0.00(  0.00%)
                                         0.0000  0.0000  0.0000  0.0000  0.0000
                                         0.0000  0.0000  0.0000  0.0000  0.0000
                                         0.0000  0.0000  0.0020  0.0112  0.9999
                                        -0.0011  0.0000  0.0000  0.0000  0.0000
                                         0.0000  0.0000  0.0000 -0.0063  0.0000
                                         0.0000
  22. (0.00029) RY (12)Cl  1            s( 63.92%)p 0.56( 35.97%)d 0.00(  0.11%)
                                         0.0000  0.0000 -0.0003  0.0022  0.7995
                                         0.0037  0.0000  0.0000  0.0000  0.0000
                                         0.0000  0.0000  0.0000  0.0000  0.0000
                                         0.0000  0.0000  0.0046 -0.0155 -0.5995
                                         0.0030  0.0000  0.0000  0.0000  0.0000
                                         0.0332
  23. (0.00021) RY (13)Cl  1            s( 36.05%)p 1.77( 63.90%)d 0.00(  0.05%)
                                         0.0000  0.0000  0.0006 -0.0804  0.5949
                                        -0.0122  0.0000  0.0000  0.0000  0.0000
                                         0.0000  0.0000  0.0000  0.0000  0.0000
                                         0.0000  0.0000 -0.0109  0.1127  0.7911
                                        -0.0200  0.0000  0.0000  0.0000  0.0000
                                         0.0214
  24. (0.00002) RY (14)Cl  1            s( 99.98%)p 0.00(  0.02%)d 0.00(  0.00%)
  25. (0.00001) RY (15)Cl  1            s(  0.00%)p 1.00(100.00%)d 0.00(  0.00%)
  26. (0.00001) RY (16)Cl  1            s(  0.01%)p99.99( 99.99%)d 0.01(  0.00%)
  27. (0.00001) RY (17)Cl  1            s(  0.00%)p 1.00(100.00%)d 0.00(  0.00%)
  28. (0.00165) RY ( 1) H  2            s(  0.00%)p 1.00(100.00%)
                                         0.0000  0.0000  0.0000  1.0000  0.0000
                                         0.0000
  29. (0.00165) RY ( 2) H  2            s(  0.00%)p 1.00(100.00%)
                                         0.0000  0.0000  0.0000  0.0000  1.0000
                                         0.0000
  30. (0.00106) RY ( 3) H  2            s( 61.57%)p 0.62( 38.43%)
                                         0.0449  0.7818 -0.0501  0.0000  0.0000
                                        -0.6200
  31. (0.00033) RY ( 4) H  2            s( 45.92%)p 1.18( 54.08%)
                                        -0.0533  0.6054  0.2998  0.0000  0.0000
                                         0.7354
  32. (0.00012) RY ( 5) H  2            s( 93.03%)p 0.07(  6.97%)
                                         0.0189 -0.1494  0.9527  0.0000  0.0000
                                        -0.2640


 NHO DIRECTIONALITY AND BOND BENDING (deviation from line of nuclear centers at
                                      the position of maximum hybrid amplitude)

         [Thresholds for printing:  angular deviation  >  1.0 degree]
                                    p- or d-character  > 25.0%
                                    orbital occupancy  >  0.10e

                        Line of Centers        Hybrid 1             Hybrid 2
                        ---------------  -------------------  ------------------
           NBO            Theta   Phi    Theta   Phi    Dev   Theta   Phi    Dev
 ===============================================================================
   7. LP ( 2)Cl  1          --     --     93.1  180.0   --      --     --    --
   8. LP ( 3)Cl  1          --     --     93.1   90.0   --      --     --    --


 NATURAL BOND ORBITALS (Summary):

           NBO                 Occupancy
 ========================================
 Molecular unit  1  (HCl)
 ------ Lewis ---------------------------
    1. CR ( 1)Cl  1             0.99998
    2. CR ( 2)Cl  1             0.99972
    3. CR ( 3)Cl  1             0.99968
    4. CR ( 4)Cl  1             0.99968
    5. CR ( 5)Cl  1             0.99963
    6. LP ( 1)Cl  1             0.99106
    7. LP ( 2)Cl  1             0.98558
    8. LP ( 3)Cl  1             0.98558
    9. BD ( 1)Cl  1- H  2       0.98617
 ------ non-Lewis -----------------------
   10. BD*( 1)Cl  1- H  2       0.00968
   11. RY ( 1)Cl  1             0.00511
   12. RY ( 2)Cl  1             0.00511
   13. RY ( 3)Cl  1             0.00501
   14. RY ( 4)Cl  1             0.00501
   15. RY ( 5)Cl  1             0.00443
   16. RY ( 6)Cl  1             0.00443
   17. RY ( 7)Cl  1             0.00404
   18. RY ( 8)Cl  1             0.00312
   19. RY ( 9)Cl  1             0.00101
   20. RY (10)Cl  1             0.00031
   21. RY (11)Cl  1             0.00031
   22. RY (12)Cl  1             0.00029
   23. RY (13)Cl  1             0.00021
   24. RY (14)Cl  1             0.00002
   25. RY (15)Cl  1             0.00001
   26. RY (16)Cl  1             0.00001
   27. RY (17)Cl  1             0.00001
   28. RY ( 1) H  2             0.00165
   29. RY ( 2) H  2             0.00165
   30. RY ( 3) H  2             0.00106
   31. RY ( 4) H  2             0.00033
   32. RY ( 5) H  2             0.00012
          -------------------------------
                 Total Lewis    8.94706  ( 99.4118%)
           Valence non-Lewis    0.00968  (  0.1076%)
           Rydberg non-Lewis    0.04325  (  0.4806%)
          -------------------------------
               Total unit  1    9.00000  (100.0000%)
              Charge unit  1    0.00000

 $CHOOSE
  ALPHA
   LONE 1 3 END
   BOND S 1 2 END
  END
  BETA
   LONE 1 3 END
   BOND S 1 2 END
  END
 $END

 NBO analysis completed in 0.06 CPU seconds (0 wall seconds)
 Maximum scratch memory used by NBO was 357022 words (2.72 MB)
Stopping NBO...Storing NBOs: HCl.pmp2re.nbo

                                *** returned from   NBO  program ***


----------------------------------
MP2 DERIVATIVE INTEGRAL GENERATION
----------------------------------


Input Wavefunction Amplitudes       ... HCl.mp2tbb.tmp
Input Correlated Electron Density   ... HCl.pmp2re
Input Energy Weighted Density       ... HCl.wmp2.tmp
Input SCF Electron Density          ... HCl.scfp

One-Electron Terms    ...
                        ... One-Electron Terms done
Prescreening matrices              ... done

Batch handling in the gradient evaluation:
Memory available                      ... 3000.0 MB
Memory per occupied orbital in Q2     ...    0.1 MB
Memory per occupied orbital in Q3     ...    0.0 MB
Total memory requirement per |i>      ...    0.1 MB
Max. Number of orbitals possible      ...  20445
Number of orbitals treated per batch  ...     18
Number of batches to be done          ...      1
Batch   0: i=    0 ...    17

---------------------------------------
MP2 TOTAL ENERGY:     -460.292970945 Eh
---------------------------------------

-----------------------------------
NORM OF THE MP2 GRADIENT:  0.000000
-----------------------------------

-------------------------   --------------------
FINAL SINGLE POINT ENERGY      -460.292970944551
-------------------------   --------------------

                                *** OPTIMIZATION RUN DONE ***

                            ***************************************
                            *     ORCA property calculations      *
                            ***************************************

                                    ---------------------
                                    Active property flags
                                    ---------------------
   (+) Dipole Moment


------------------------------------------------------------------------------
                       ORCA ELECTRIC PROPERTIES CALCULATION
------------------------------------------------------------------------------

Dipole Moment Calculation                       ... on
Quadrupole Moment Calculation                   ... off
Polarizability Calculation                      ... off
GBWName                                         ... HCl.gbw
Electron density file                           ... HCl.scfp
The origin for moment calculation is the CENTER OF MASS  = ( 0.000000,  0.000000  0.000886)

-------------
DIPOLE MOMENT
-------------
                                X             Y             Z
Electronic contribution:      0.00000       0.00000       0.63556
Nuclear contribution   :      0.00000       0.00000      -1.20904
                        -----------------------------------------
Total Dipole Moment    :      0.00000       0.00000      -0.57347
                        -----------------------------------------
Magnitude (a.u.)       :      0.57347
Magnitude (Debye)      :      1.45766



--------------------
Rotational spectrum 
--------------------
 
Rotational constants in cm-1:     0.000000    10.604299    10.604299 
Rotational constants in MHz :     0.000000 317908.891992 317908.891992 

 Dipole components along the rotational axes: 
x,y,z [a.u.] :    -0.573475     0.000000     0.000000 
x,y,z [Debye]:    -1.457657     0.000000     0.000000 

 

                         *** MP2 UNRELAXED DENSITY ***

------------------------------------------------------------------------------
                       ORCA ELECTRIC PROPERTIES CALCULATION
------------------------------------------------------------------------------

Dipole Moment Calculation                       ... on
Quadrupole Moment Calculation                   ... off
Polarizability Calculation                      ... off
GBWName                                         ... HCl.gbw
Electron density file                           ... HCl.pmp2ur
The origin for moment calculation is the CENTER OF MASS  = ( 0.000000,  0.000000  0.000886)

-------------
DIPOLE MOMENT
-------------
                                X             Y             Z
Electronic contribution:     -0.00000      -0.00000       0.64201
Nuclear contribution   :      0.00000       0.00000      -1.20904
                        -----------------------------------------
Total Dipole Moment    :     -0.00000      -0.00000      -0.56703
                        -----------------------------------------
Magnitude (a.u.)       :      0.56703
Magnitude (Debye)      :      1.44127



--------------------
Rotational spectrum 
--------------------
 
Rotational constants in cm-1:     0.000000    10.604299    10.604299 
Rotational constants in MHz :     0.000000 317908.891992 317908.891992 

 Dipole components along the rotational axes: 
x,y,z [a.u.] :    -0.567030    -0.000000    -0.000000 
x,y,z [Debye]:    -1.441275    -0.000000    -0.000000 

 

                           *** MP2 RELAXED DENSITY ***

------------------------------------------------------------------------------
                       ORCA ELECTRIC PROPERTIES CALCULATION
------------------------------------------------------------------------------

Dipole Moment Calculation                       ... on
Quadrupole Moment Calculation                   ... off
Polarizability Calculation                      ... off
GBWName                                         ... HCl.gbw
Electron density file                           ... HCl.pmp2re
The origin for moment calculation is the CENTER OF MASS  = ( 0.000000,  0.000000  0.000886)

-------------
DIPOLE MOMENT
-------------
                                X             Y             Z
Electronic contribution:     -0.00000      -0.00000       0.66254
Nuclear contribution   :      0.00000       0.00000      -1.20904
                        -----------------------------------------
Total Dipole Moment    :     -0.00000      -0.00000      -0.54649
                        -----------------------------------------
Magnitude (a.u.)       :      0.54649
Magnitude (Debye)      :      1.38908



--------------------
Rotational spectrum 
--------------------
 
Rotational constants in cm-1:     0.000000    10.604299    10.604299 
Rotational constants in MHz :     0.000000 317908.891992 317908.891992 

 Dipole components along the rotational axes: 
x,y,z [a.u.] :    -0.546494    -0.000000    -0.000000 
x,y,z [Debye]:    -1.389078    -0.000000    -0.000000 

 
------------------------------------------------------------------------------
                         ORCA MP2 H E S S I A N CALCULATION
------------------------------------------------------------------------------

Calculating analytic MP2 second derivatives ... (>HCl.last_mp2) done
Warning: T+R mode no 5 is zero 

-----------------------
VIBRATIONAL FREQUENCIES
-----------------------

Scaling factor for frequencies =  1.000000000  (already applied!)

   0:         0.00 cm**-1
   1:         0.00 cm**-1
   2:         0.00 cm**-1
   3:         0.00 cm**-1
   4:         0.00 cm**-1
   5:      3083.90 cm**-1


------------
NORMAL MODES
------------

These modes are the Cartesian displacements weighted by the diagonal matrix
M(i,i)=1/sqrt(m[i]) where m[i] is the mass of the displaced atom
Thus, these vectors are normalized but *not* orthogonal

                  0          1          2          3          4          5    
      0       0.000000   0.000000   0.000000   0.000000   0.000000   0.000000
      1       0.000000   0.000000   0.000000   0.000000   0.000000   0.000000
      2       0.000000   0.000000   0.000000   0.000000   0.000000   0.028421
      3       0.000000   0.000000   0.000000   0.000000   0.000000   0.000000
      4       0.000000   0.000000   0.000000   0.000000   0.000000   0.000000
      5       0.000000   0.000000   0.000000   0.000000   0.000000  -0.999596


-----------
IR SPECTRUM
-----------

 Mode    freq (cm**-1)   T**2         TX         TY         TZ
-------------------------------------------------------------------
   5:      3083.90   35.239294  (  0.000000   0.000000  -5.936269)

The first frequency considered to be a vibration is 5
The total number of vibrations considered is 1


--------------------------
THERMOCHEMISTRY AT 298.15K
--------------------------

Temperature         ... 298.15 K
Pressure            ... 1.00 atm
Total Mass          ... 36.46 AMU
The molecule is recognized as being linear

Throughout the following assumptions are being made:
  (1) The electronic state is orbitally nondegenerate
  (2) There are no thermally accessible electronically excited states
  (3) Hindered rotations indicated by low frequency modes are not
      treated as such but are treated as vibrations and this may
      cause some error
  (4) All equations used are the standard statistical mechanics
      equations for an ideal gas
  (5) All vibrations are strictly harmonic

freq.    3083.90  E(vib)   ...       0.00 

------------
INNER ENERGY
------------

The inner energy is: U= E(el) + E(ZPE) + E(vib) + E(rot) + E(trans)
    E(el)   - is the total energy from the electronic structure calculation
              = E(kin-el) + E(nuc-el) + E(el-el) + E(nuc-nuc)
    E(ZPE)  - the the zero temperature vibrational energy from the frequency calculation
    E(vib)  - the the finite temperature correction to E(ZPE) due to population
              of excited vibrational states
    E(rot)  - is the rotational thermal energy
    E(trans)- is the translational thermal energy

Summary of contributions to the inner energy U:
Electronic energy                ...   -460.29297094 Eh
Zero point energy                ...      0.00702565 Eh       4.41 kcal/mol
Thermal vibrational correction   ...      0.00000000 Eh       0.00 kcal/mol
Thermal rotational correction    ...      0.00094418 Eh       0.59 kcal/mol
Thermal translational correction ...      0.00141627 Eh       0.89 kcal/mol
-----------------------------------------------------------------------
Total thermal energy                   -460.28358484 Eh


Summary of corrections to the electronic energy:
(perhaps to be used in another calculation)
Total thermal correction                  0.00236046 Eh       1.48 kcal/mol
Non-thermal (ZPE) correction              0.00702565 Eh       4.41 kcal/mol
-----------------------------------------------------------------------
Total correction                          0.00938611 Eh       5.89 kcal/mol


--------
ENTHALPY
--------

The enthalpy is H = U + kB*T
                kB is Boltzmann's constant
Total free energy                 ...   -460.28358484 Eh 
Thermal Enthalpy correction       ...      0.00094421 Eh       0.59 kcal/mol
-----------------------------------------------------------------------
Total Enthalpy                    ...   -460.28264063 Eh


Note: Rotational entropy computed according to Herzberg 
Infrared and Raman Spectra, Chapter V,1, Van Nostrand Reinhold, 1945 
Point Group:  Cinfv, Symmetry Number:   1  
Rotational constants in cm-1:     0.000000    10.604299    10.604299 

Vibrational entropy computed according to the QRRHO of S. Grimme
Chem.Eur.J. 2012 18 9955


-------
ENTROPY
-------

The entropy contributions are T*S = T*(S(el)+S(vib)+S(rot)+S(trans))
     S(el)   - electronic entropy
     S(vib)  - vibrational entropy
     S(rot)  - rotational entropy
     S(trans)- translational entropy
The entropies will be listed as mutliplied by the temperature to get
units of energy

Electronic entropy                ...      0.00000000 Eh      0.00 kcal/mol
Vibrational entropy               ...      0.00000000 Eh      0.00 kcal/mol
Rotational entropy                ...      0.00375081 Eh      2.35 kcal/mol
Translational entropy             ...      0.01744233 Eh     10.95 kcal/mol
-----------------------------------------------------------------------
Final entropy term                ...      0.02119314 Eh     13.30 kcal/mol

In case the symmetry of your molecule has not been determined correctly
or in case you have a reason to use a different symmetry number we print 
out the resulting rotational entropy values for sn=1,12 :
 --------------------------------------------------------
|  sn= 1 | S(rot)=             -inf Eh      -inf kcal/mol|
|  sn= 2 | S(rot)=             -inf Eh      -inf kcal/mol|
|  sn= 3 | S(rot)=             -inf Eh      -inf kcal/mol|
|  sn= 4 | S(rot)=             -inf Eh      -inf kcal/mol|
|  sn= 5 | S(rot)=             -inf Eh      -inf kcal/mol|
|  sn= 6 | S(rot)=             -inf Eh      -inf kcal/mol|
|  sn= 7 | S(rot)=             -inf Eh      -inf kcal/mol|
|  sn= 8 | S(rot)=             -inf Eh      -inf kcal/mol|
|  sn= 9 | S(rot)=             -inf Eh      -inf kcal/mol|
|  sn=10 | S(rot)=             -inf Eh      -inf kcal/mol|
|  sn=11 | S(rot)=             -inf Eh      -inf kcal/mol|
|  sn=12 | S(rot)=             -inf Eh      -inf kcal/mol|
 --------------------------------------------------------


-------------------
GIBBS FREE ENERGY
-------------------

The Gibbs free energy is G = H - T*S

Total enthalpy                    ...   -460.28264063 Eh 
Total entropy correction          ...     -0.02119314 Eh    -13.30 kcal/mol
-----------------------------------------------------------------------
Final Gibbs free energy         ...   -460.30383377 Eh

For completeness - the Gibbs free energy minus the electronic energy
G-E(el)                           ...     -0.01086282 Eh     -6.82 kcal/mol


Timings for individual modules:

Sum of individual times         ...       23.113 sec (=   0.385 min)
GTO integral calculation        ...        2.631 sec (=   0.044 min)  11.4 %
SCF iterations                  ...        7.970 sec (=   0.133 min)  34.5 %
MP2 module                      ...        6.963 sec (=   0.116 min)  30.1 %
Geometry relaxation             ...        0.053 sec (=   0.001 min)   0.2 %
Analytical frequency calculation...        5.497 sec (=   0.092 min)  23.8 %
                             ****ORCA TERMINATED NORMALLY****
TOTAL RUN TIME: 0 days 0 hours 0 minutes 23 seconds 647 msec
