
                                 *****************
                                 * O   R   C   A *
                                 *****************

           --- An Ab Initio, DFT and Semiempirical electronic structure package ---

                  #######################################################
                  #                        -***-                        #
                  #          Department of theory and spectroscopy      #
                  #               Directorship: Frank Neese             #
                  #        Max Planck Institute fuer Kohlenforschung    #
                  #                Kaiser Wilhelm Platz 1               #
                  #                 D-45470 Muelheim/Ruhr               #
                  #                      Germany                        #
                  #                                                     #
                  #                  All rights reserved                #
                  #                        -***-                        #
                  #######################################################


                         Program Version 4.2.1 -  RELEASE  -


 With contributions from (in alphabetic order):
   Daniel Aravena         : Magnetic Suceptibility
   Michael Atanasov       : Ab Initio Ligand Field Theory (pilot matlab implementation)
   Alexander A. Auer      : GIAO ZORA, VPT2
   Ute Becker             : Parallelization
   Giovanni Bistoni       : ED, misc. LED, open-shell LED, HFLD
   Martin Brehm           : Molecular dynamics
   Dmytro Bykov           : SCF Hessian
   Vijay G. Chilkuri      : MRCI spin determinant printing, contributions to CSF-ICE
   Dipayan Datta          : RHF DLPNO-CCSD density
   Achintya Kumar Dutta   : EOM-CC, STEOM-CC
   Dmitry Ganyushin       : Spin-Orbit,Spin-Spin,Magnetic field MRCI
   Miquel Garcia          : C-PCM Hessian, Gaussian charge scheme
   Yang Guo               : DLPNO-NEVPT2, CIM, IAO-localization
   Andreas Hansen         : Spin unrestricted coupled pair/coupled cluster methods
   Benjamin Helmich-Paris : CASSCF linear response (MC-RPA)
   Lee Huntington         : MR-EOM, pCC
   Robert Izsak           : Overlap fitted RIJCOSX, COSX-SCS-MP3, EOM
   Christian Kollmar      : KDIIS, OOCD, Brueckner-CCSD(T), CCSD density
   Simone Kossmann        : Meta GGA functionals, TD-DFT gradient, OOMP2, MP2 Hessian
   Martin Krupicka        : AUTO-CI
   Lucas Lang             : DCDCAS
   Dagmar Lenk            : GEPOL surface, SMD
   Dimitrios Liakos       : Extrapolation schemes; Compound Job, initial MDCI parallelization
   Dimitrios Manganas     : Further ROCIS development; embedding schemes
   Dimitrios Pantazis     : SARC Basis sets
   Taras Petrenko         : DFT Hessian,TD-DFT gradient, ASA, ECA, R-Raman, ABS, FL, XAS/XES, NRVS
   Peter Pinski           : DLPNO-MP2, DLPNO-MP2 Gradient
   Christoph Reimann      : Effective Core Potentials
   Marius Retegan         : Local ZFS, SOC
   Christoph Riplinger    : Optimizer, TS searches, QM/MM, DLPNO-CCSD(T), (RO)-DLPNO pert. Triples
   Tobias Risthaus        : Range-separated hybrids, TD-DFT gradient, RPA, STAB
   Michael Roemelt        : Original ROCIS implementation
   Masaaki Saitow         : Open-shell DLPNO-CCSD energy and density
   Barbara Sandhoefer     : DKH picture change effects
   Avijit Sen             : IP-ROCIS
   Kantharuban Sivalingam : CASSCF convergence, NEVPT2, FIC-MRCI
   Bernardo de Souza      : ESD, SOC TD-DFT
   Georgi Stoychev        : AutoAux, RI-MP2 NMR
   Willem Van den Heuvel  : Paramagnetic NMR
   Boris Wezisla          : Elementary symmetry handling
   Frank Wennmohs         : Technical directorship


 We gratefully acknowledge several colleagues who have allowed us to
 interface, adapt or use parts of their codes:
   Stefan Grimme, W. Hujo, H. Kruse,             : VdW corrections, initial TS optimization,
                  C. Bannwarth                     DFT functionals, gCP, sTDA/sTD-DF
   Ed Valeev, F. Pavosevic, A. Kumar             : LibInt (2-el integral package), F12 methods
   Garnet Chan, S. Sharma, J. Yang, R. Olivares  : DMRG
   Ulf Ekstrom                                   : XCFun DFT Library
   Mihaly Kallay                                 : mrcc  (arbitrary order and MRCC methods)
   Andreas Klamt, Michael Diedenhofen            : otool_cosmo (COSMO solvation model)
   Jiri Pittner, Ondrej Demel                    : Mk-CCSD
   Frank Weinhold                                : gennbo (NPA and NBO analysis)
   Christopher J. Cramer and Donald G. Truhlar   : smd solvation model
   Lars Goerigk                                  : TD-DFT with DH, B97 family of functionals
   V. Asgeirsson, H. Jonsson                     : NEB implementation
   FAccTs GmbH                                   : IRC, NEB, NEB-TS, Multilevel, MM, QM/MM, CI optimization
   S Lehtola, MJT Oliveira, MAL Marques          : LibXC Library


 Your calculation uses the libint2 library for the computation of 2-el integrals
 For citations please refer to: http://libint.valeyev.net

 Your ORCA version has been built with support for libXC version: 4.2.3
 For citations please refer to: https://tddft.org/programs/libxc/

 This ORCA versions uses:
   CBLAS   interface :  Fast vector & matrix operations
   LAPACKE interface :  Fast linear algebra routines
   SCALAPACK package :  Parallel linear algebra routines


----- Orbital basis set information -----
Your calculation utilizes the basis: 6-311G(d,p)
   H, Li - Ne  : R. Krishnan, J. S. Binkley, R. Seeger and J. A. Pople, J. Chem. Phys. 72, 650 (1980).
   Na - Ar     : A. D. McLean and G. S. Chandler J. Chem. Phys. 72, 5639, (1980).
   K  - Ca     : J.-P. Blaudeau, M. P. McGrath, L. A. Curtiss and L. Radom, J. Chem. Phys. 107, 5016 (1997).
   Ga - Kr     : L. A. Curtiss, M. P. McGrath, J.-P. Blandeau, N. E. Davis, R. C. Binning and L. Radom, J. Chem. Phys. 103, 6104 (1995).
   Pol./Diff.
   H, Li - Cl  : T. Clark, J. Chandrasekhar and P. v. R. Schleyer, J. Comp. Chem. 4, 294 (1983).
   H - Ne      : M. J. Frisch, J. A. Pople and J. S. Binkley, J. Chem. Phys. 80, 3265 (1984).

================================================================================
                                        WARNINGS
                       Please study these warnings very carefully!
================================================================================


WARNING: Geometry Optimization
  ===> : Switching off AutoStart
         For restart on a previous wavefunction, please use MOREAD

WARNING: Post HF methods need fully converged wavefunctions
  ===> : Setting SCFConvForced true
         You can overwrite this default with %scf ConvForced false 


INFO   : the flag for use of LIBINT has been found!

================================================================================
                                       INPUT FILE
================================================================================
NAME = methane.inp
|  1> ! UHF MP2 6-311G(d,p) Opt Freq NoFrozenCore TightOpt TightSCF Grid4 FinalGrid5 PrintBasis PrintMOs NBO
|  2> %maxcore 3000
|  3> 
|  4> *xyz 0 1
|  5> C        0.000000000      0.000000000      0.000000000
|  6> H       -0.625911000     -0.625911000      0.625911000
|  7> H        0.625911000     -0.625911000     -0.625911000
|  8> H       -0.625911000      0.625911000     -0.625911000
|  9> H        0.625911000      0.625911000      0.625911000
| 10> *
| 11> 
| 12> %pal
| 13>  nprocs 12
| 14> end
| 15> 
| 16>                          ****END OF INPUT****
================================================================================

                       *****************************
                       * Geometry Optimization Run *
                       *****************************

Geometry optimization settings:
Update method            Update   .... BFGS
Choice of coordinates    CoordSys .... Z-matrix Internals
Initial Hessian          InHess   .... Almoef's Model

Convergence Tolerances:
Energy Change            TolE     ....  1.0000e-06 Eh
Max. Gradient            TolMAXG  ....  1.0000e-04 Eh/bohr
RMS Gradient             TolRMSG  ....  3.0000e-05 Eh/bohr
Max. Displacement        TolMAXD  ....  1.0000e-03 bohr
RMS Displacement         TolRMSD  ....  6.0000e-04 bohr
Strict Convergence                ....  False
------------------------------------------------------------------------------
                        ORCA OPTIMIZATION COORDINATE SETUP
------------------------------------------------------------------------------

The optimization will be done in new redundant internal coordinates
Making redundant internal coordinates   ...  (new redundants) done
Evaluating the initial hessian          ...  (Almloef) done
Evaluating the coordinates              ...  done
Calculating the B-matrix                .... done
Calculating the G-matrix                .... done
Diagonalizing the G-matrix              .... done
The first mode is                       ....    1
The number of degrees of freedom        ....    9

    -----------------------------------------------------------------
                    Redundant Internal Coordinates


    -----------------------------------------------------------------
         Definition                    Initial Value    Approx d2E/dq
    -----------------------------------------------------------------
      1. B(H   1,C   0)                  1.0841         0.367977   
      2. B(H   2,C   0)                  1.0841         0.367977   
      3. B(H   3,C   0)                  1.0841         0.367977   
      4. B(H   4,C   0)                  1.0841         0.367977   
      5. A(H   1,C   0,H   3)          109.4712         0.292826   
      6. A(H   2,C   0,H   3)          109.4712         0.292826   
      7. A(H   1,C   0,H   4)          109.4712         0.292826   
      8. A(H   2,C   0,H   4)          109.4712         0.292826   
      9. A(H   3,C   0,H   4)          109.4712         0.292826   
     10. A(H   1,C   0,H   2)          109.4712         0.292826   
    -----------------------------------------------------------------

Number of atoms                         .... 5
Number of degrees of freedom            .... 10

         *************************************************************
         *                GEOMETRY OPTIMIZATION CYCLE   1            *
         *************************************************************
---------------------------------
CARTESIAN COORDINATES (ANGSTROEM)
---------------------------------
  C      0.000000    0.000000    0.000000
  H     -0.625911   -0.625911    0.625911
  H      0.625911   -0.625911   -0.625911
  H     -0.625911    0.625911   -0.625911
  H      0.625911    0.625911    0.625911

----------------------------
CARTESIAN COORDINATES (A.U.)
----------------------------
  NO LB      ZA    FRAG     MASS         X           Y           Z
   0 C     6.0000    0    12.011    0.000000    0.000000    0.000000
   1 H     1.0000    0     1.008   -1.182800   -1.182800    1.182800
   2 H     1.0000    0     1.008    1.182800   -1.182800   -1.182800
   3 H     1.0000    0     1.008   -1.182800    1.182800   -1.182800
   4 H     1.0000    0     1.008    1.182800    1.182800    1.182800

--------------------------------
INTERNAL COORDINATES (ANGSTROEM)
--------------------------------
 C      0   0   0     0.000000000000     0.00000000     0.00000000
 H      1   0   0     1.084109653016     0.00000000     0.00000000
 H      1   2   0     1.084109653016   109.47122063     0.00000000
 H      1   2   3     1.084109653016   109.47122063   120.00000000
 H      1   2   3     1.084109653016   109.47122063   240.00000000

---------------------------
INTERNAL COORDINATES (A.U.)
---------------------------
 C      0   0   0     0.000000000000     0.00000000     0.00000000
 H      1   0   0     2.048670343341     0.00000000     0.00000000
 H      1   2   0     2.048670343341   109.47122063     0.00000000
 H      1   2   3     2.048670343341   109.47122063   120.00000000
 H      1   2   3     2.048670343341   109.47122063   240.00000000

---------------------
BASIS SET INFORMATION
---------------------
There are 2 groups of distinct atoms

 Group   1 Type C   : 11s5p1d contracted to 4s3p1d pattern {6311/311/1}
 Group   2 Type H   : 5s1p contracted to 3s1p pattern {311/1}

Atom   0C    basis set group =>   1
Atom   1H    basis set group =>   2
Atom   2H    basis set group =>   2
Atom   3H    basis set group =>   2
Atom   4H    basis set group =>   2

-------------------------
BASIS SET IN INPUT FORMAT
-------------------------

 # Basis set for element : H 
 NewGTO H 
 S 3 
   1      33.8650000000      0.0254938145
   2       5.0947900000      0.1903731086
   3       1.1587900000      0.8521614860
 S 1 
   1       0.3258400000      1.0000000000
 S 1 
   1       0.1027410000      1.0000000000
 P 1 
   1       0.7500000000      1.0000000000
  end;

 # Basis set for element : C 
 NewGTO C 
 S 6 
   1    4563.2400000000      0.0019666502
   2     682.0240000000      0.0152306019
   3     154.9730000000      0.0761269097
   4      44.4553000000      0.2608010331
   5      13.0290000000      0.6164620782
   6       1.8277300000      0.2210060280
 S 3 
   1      20.9642000000      0.1146600807
   2       4.8033100000      0.9199996477
   3       1.4593300000     -0.0030306821
 P 3 
   1      20.9642000000      0.0402486927
   2       4.8033100000      0.2375939567
   3       1.4593300000      0.8158538515
 S 1 
   1       0.4834560000      1.0000000000
 P 1 
   1       0.4834560000      1.0000000000
 S 1 
   1       0.1455850000      1.0000000000
 P 1 
   1       0.1455850000      1.0000000000
 D 1 
   1       0.6260000000      1.0000000000
  end;



           ************************************************************
           *        Program running with 12 parallel MPI-processes    *
           *              working on a common directory               *
           ************************************************************
------------------------------------------------------------------------------
                           ORCA GTO INTEGRAL CALCULATION
------------------------------------------------------------------------------

                         BASIS SET STATISTICS AND STARTUP INFO

 # of primitive gaussian shells          ...   41
 # of primitive gaussian functions       ...   63
 # of contracted shells                  ...   24
 # of contracted basis functions         ...   42
 Highest angular momentum                ...    2
 Maximum contraction depth               ...    6
 Integral package used                   ... LIBINT
 Integral threshhold            Thresh   ...  2.500e-11
 Primitive cut-off              TCut     ...  2.500e-12


------------------------------ INTEGRAL EVALUATION ----------------------------


 * One electron integrals 
 Pre-screening matrix                    ... done
 Shell pair data                         ... done (   0.000 sec)



           ************************************************************
           *        Program running with 12 parallel MPI-processes    *
           *              working on a common directory               *
           ************************************************************
-------------------------------------------------------------------------------
                                 ORCA SCF
-------------------------------------------------------------------------------

------------
SCF SETTINGS
------------
Hamiltonian:
 Ab initio Hamiltonian  Method          .... Hartree-Fock(GTOs)


General Settings:
 Integral files         IntName         .... methane
 Hartree-Fock type      HFTyp           .... UHF
 Total Charge           Charge          ....    0
 Multiplicity           Mult            ....    1
 Number of Electrons    NEL             ....   10
 Basis Dimension        Dim             ....   42
 Nuclear Repulsion      ENuc            ....     13.5083883574 Eh

Convergence Acceleration:
 DIIS                   CNVDIIS         .... on
   Start iteration      DIISMaxIt       ....    12
   Startup error        DIISStart       ....  0.200000
   # of expansion vecs  DIISMaxEq       ....     5
   Bias factor          DIISBfac        ....   1.050
   Max. coefficient     DIISMaxC        ....  10.000
 Newton-Raphson         CNVNR           .... off
 SOSCF                  CNVSOSCF        .... off
 Level Shifting         CNVShift        .... on
   Level shift para.    LevelShift      ....    0.2500
   Turn off err/grad.   ShiftErr        ....    0.0010
 Zerner damping         CNVZerner       .... off
 Static damping         CNVDamp         .... on
   Fraction old density DampFac         ....    0.7000
   Max. Damping (<1)    DampMax         ....    0.9800
   Min. Damping (>=0)   DampMin         ....    0.0000
   Turn off err/grad.   DampErr         ....    0.1000
 Fernandez-Rico         CNVRico         .... off

SCF Procedure:
 Maximum # iterations   MaxIter         ....   125
 SCF integral mode      SCFMode         .... Direct
   Integral package                     .... LIBINT
 Reset frequency        DirectResetFreq ....    20
 Integral Threshold     Thresh          ....  2.500e-11 Eh
 Primitive CutOff       TCut            ....  2.500e-12 Eh

Convergence Tolerance:
 Convergence Check Mode ConvCheckMode   .... Total+1el-Energy
 Convergence forced     ConvForced      .... 1
 Energy Change          TolE            ....  1.000e-08 Eh
 1-El. energy change                    ....  1.000e-05 Eh
 DIIS Error             TolErr          ....  5.000e-07


Diagonalization of the overlap matrix:
Smallest eigenvalue                        ... 1.247e-02
Time for diagonalization                   ...    0.001 sec
Threshold for overlap eigenvalues          ... 1.000e-08
Number of eigenvalues below threshold      ... 0
Time for construction of square roots      ...    0.001 sec
Total time needed                          ...    0.001 sec

-------------------
DFT GRID GENERATION
-------------------

General Integration Accuracy     IntAcc      ...  4.670
Radial Grid Type                 RadialGrid  ... Gauss-Chebyshev
Angular Grid (max. acc.)         AngularGrid ... Lebedev-302
Angular grid pruning method      GridPruning ... 3 (G Style)
Weight generation scheme         WeightScheme... Becke
Basis function cutoff            BFCut       ...    1.0000e-11
Integration weight cutoff        WCut        ...    1.0000e-14
Grids for H and He will be reduced by one unit

# of grid points (after initial pruning)     ...  19788 (   0.0 sec)
# of grid points (after weights+screening)   ...  19276 (   0.0 sec)
nearest neighbour list constructed           ...    0.0 sec
Grid point re-assignment to atoms done       ...    0.0 sec
Grid point division into batches done        ...    0.1 sec
Reduced shell lists constructed in    0.1 sec

Total number of grid points                  ...    19276
Total number of batches                      ...      303
Average number of points per batch           ...       63
Average number of grid points per atom       ...     3855
Average number of shells per batch           ...    23.11 (96.30%)
Average number of basis functions per batch  ...    40.44 (96.30%)
Average number of large shells per batch     ...    23.11 (100.00%)
Average number of large basis fcns per batch ...    40.44 (100.00%)
Maximum spatial batch extension              ...   1.44,  1.38,  1.38 au
Average spatial batch extension              ...   0.09,  0.09,  0.09 au

Time for grid setup =    0.112 sec

------------------------------
INITIAL GUESS: MODEL POTENTIAL
------------------------------
Loading Hartree-Fock densities                     ... done
Calculating cut-offs                               ... done
Setting up the integral package                    ... done
Initializing the effective Hamiltonian             ... done
Starting the Coulomb interaction                   ... done (   0.0 sec)
Reading the grid                                   ... done
Mapping shells                                     ... done
Starting the XC term evaluation                    ... done (   0.0 sec)
Transforming the Hamiltonian                       ... done (   0.0 sec)
Diagonalizing the Hamiltonian                      ... done (   0.0 sec)
Back transforming the eigenvectors                 ... done (   0.0 sec)
Now organizing SCF variables                       ... done
                      ------------------
                      INITIAL GUESS DONE (   0.2 sec)
                      ------------------
--------------
SCF ITERATIONS
--------------
ITER       Energy         Delta-E        Max-DP      RMS-DP      [F,P]     Damp
               ***  Starting incremental Fock matrix formation  ***
  0    -40.0942404631   0.000000000000 0.03147615  0.00120850  0.3114794 0.7000
  1    -40.1360448772  -0.041804414107 0.02176322  0.00092639  0.1991524 0.7000
                               ***Turning on DIIS***
  2    -40.1608988749  -0.024853997679 0.01254555  0.00059242  0.1167497 0.7000
  3    -40.3410534850  -0.180154610084 0.01565747  0.00109796  0.0667116 0.0000
  4    -40.1813922139   0.159661271047 0.00455855  0.00019782  0.0110026 0.0000
  5    -40.2063794828  -0.024987268879 0.00100062  0.00009179  0.0028006 0.0000
  6    -40.2086020102  -0.002222527412 0.00057347  0.00004994  0.0008474 0.0000
  7    -40.2090070565  -0.000405046312 0.00007246  0.00000644  0.0000636 0.0000
  8    -40.2090207122  -0.000013655648 0.00000672  0.00000065  0.0000039 0.0000
                            ***DIIS convergence achieved***

               *****************************************************
               *                     SUCCESS                       *
               *           SCF CONVERGED AFTER   9 CYCLES          *
               *****************************************************


----------------
TOTAL SCF ENERGY
----------------

Total Energy       :          -40.20901220 Eh           -1094.14285 eV

Components:
Nuclear Repulsion  :           13.50838836 Eh             367.58193 eV
Electronic Energy  :          -53.71740055 Eh           -1461.72478 eV
One Electron Energy:          -79.85804845 Eh           -2173.04797 eV
Two Electron Energy:           26.14064789 Eh             711.32319 eV

Virial components:
Potential Energy   :          -80.39712534 Eh           -2187.71700 eV
Kinetic Energy     :           40.18811315 Eh            1093.57415 eV
Virial Ratio       :            2.00052003


---------------
SCF CONVERGENCE
---------------

  Last Energy change         ...    8.5150e-06  Tolerance :   1.0000e-08
  Last MAX-Density change    ...    9.4897e-07  Tolerance :   1.0000e-07
  Last RMS-Density change    ...    7.0287e-08  Tolerance :   5.0000e-09
  Last DIIS Error            ...    2.2205e-07  Tolerance :   5.0000e-07

             **** THE GBW FILE WAS UPDATED (methane.gbw) ****
             **** DENSITY FILE WAS UPDATED (methane.scfp) ****
             **** ENERGY FILE WAS UPDATED (methane.en.tmp) ****
----------------------
UHF SPIN CONTAMINATION
----------------------

Expectation value of <S**2>     :    -0.000000
Ideal value S*(S+1) for S=0.0   :     0.000000
Deviation                       :    -0.000000

             **** THE GBW FILE WAS UPDATED (methane.gbw) ****
             **** DENSITY FILE WAS UPDATED (methane.scfp) ****
----------------
ORBITAL ENERGIES
----------------
                 SPIN UP ORBITALS
  NO   OCC          E(Eh)            E(eV) 
   0   1.0000     -11.204935      -304.9018 
   1   1.0000      -0.945077       -25.7169 
   2   1.0000      -0.546121       -14.8607 
   3   1.0000      -0.546121       -14.8607 
   4   1.0000      -0.546121       -14.8607 
   5   0.0000       0.162270         4.4156 
   6   0.0000       0.237493         6.4625 
   7   0.0000       0.237493         6.4625 
   8   0.0000       0.237493         6.4625 
   9   0.0000       0.427698        11.6382 
  10   0.0000       0.427698        11.6382 
  11   0.0000       0.427698        11.6382 
  12   0.0000       0.759204        20.6590 
  13   0.0000       0.814642        22.1675 
  14   0.0000       0.814642        22.1675 
  15   0.0000       0.814642        22.1675 
  16   0.0000       0.935376        25.4529 
  17   0.0000       1.202570        32.7236 
  18   0.0000       1.202570        32.7236 
  19   0.0000       1.721326        46.8397 
  20   0.0000       1.721326        46.8397 
  21   0.0000       1.721326        46.8397 
  22   0.0000       1.728257        47.0283 
  23   0.0000       1.728257        47.0283 
  24   0.0000       1.728257        47.0283 
  25   0.0000       2.184614        59.4464 
  26   0.0000       2.184614        59.4464 
  27   0.0000       2.184614        59.4464 
  28   0.0000       2.531123        68.8753 
  29   0.0000       2.630707        71.5852 
  30   0.0000       2.630707        71.5852 
  31   0.0000       2.700579        73.4865 
  32   0.0000       2.700579        73.4865 
  33   0.0000       2.700579        73.4865 
  34   0.0000       2.913030        79.2676 
  35   0.0000       2.913030        79.2676 
  36   0.0000       2.913030        79.2676 
  37   0.0000       3.190686        86.8230 
  38   0.0000       4.205532       114.4384 
  39   0.0000       4.205532       114.4384 
  40   0.0000       4.205532       114.4384 
  41   0.0000      25.176426       685.0854 

                 SPIN DOWN ORBITALS
  NO   OCC          E(Eh)            E(eV) 
   0   1.0000     -11.204935      -304.9018 
   1   1.0000      -0.945077       -25.7169 
   2   1.0000      -0.546121       -14.8607 
   3   1.0000      -0.546121       -14.8607 
   4   1.0000      -0.546121       -14.8607 
   5   0.0000       0.162270         4.4156 
   6   0.0000       0.237493         6.4625 
   7   0.0000       0.237493         6.4625 
   8   0.0000       0.237493         6.4625 
   9   0.0000       0.427698        11.6382 
  10   0.0000       0.427698        11.6382 
  11   0.0000       0.427698        11.6382 
  12   0.0000       0.759204        20.6590 
  13   0.0000       0.814642        22.1675 
  14   0.0000       0.814642        22.1675 
  15   0.0000       0.814642        22.1675 
  16   0.0000       0.935376        25.4529 
  17   0.0000       1.202570        32.7236 
  18   0.0000       1.202570        32.7236 
  19   0.0000       1.721326        46.8397 
  20   0.0000       1.721326        46.8397 
  21   0.0000       1.721326        46.8397 
  22   0.0000       1.728257        47.0283 
  23   0.0000       1.728257        47.0283 
  24   0.0000       1.728257        47.0283 
  25   0.0000       2.184614        59.4464 
  26   0.0000       2.184614        59.4464 
  27   0.0000       2.184614        59.4464 
  28   0.0000       2.531123        68.8753 
  29   0.0000       2.630707        71.5852 
  30   0.0000       2.630707        71.5852 
  31   0.0000       2.700579        73.4865 
  32   0.0000       2.700579        73.4865 
  33   0.0000       2.700579        73.4865 
  34   0.0000       2.913030        79.2676 
  35   0.0000       2.913030        79.2676 
  36   0.0000       2.913030        79.2676 
  37   0.0000       3.190686        86.8230 
  38   0.0000       4.205532       114.4384 
  39   0.0000       4.205532       114.4384 
  40   0.0000       4.205532       114.4384 
  41   0.0000      25.176426       685.0854 
------------------
MOLECULAR ORBITALS
------------------
                      0         1         2         3         4         5   
                 -11.20493  -0.94508  -0.54612  -0.54612  -0.54612   0.16227
                   1.00000   1.00000   1.00000   1.00000   1.00000   0.00000
                  --------  --------  --------  --------  --------  --------
  0C   1s         0.563309  0.102996 -0.000000 -0.000000  0.000000  0.048558
  0C   2s         0.466534  0.169624 -0.000000 -0.000000  0.000000  0.077887
  0C   1pz        0.000000  0.000000  0.126025  0.113319  0.084969 -0.000000
  0C   1px       -0.000000  0.000000  0.140774 -0.112749 -0.058426  0.000000
  0C   1py        0.000000 -0.000000 -0.015609 -0.101930  0.159091  0.000000
  0C   3s         0.004524 -0.423122 -0.000000  0.000000 -0.000000 -0.063461
  0C   2pz       -0.000000 -0.000000  0.198182  0.178202  0.133619  0.000000
  0C   2px        0.000000  0.000000  0.221376 -0.177304 -0.091879 -0.000000
  0C   2py       -0.000000 -0.000000 -0.024547 -0.160291  0.250180  0.000000
  0C   4s        -0.001091 -0.261139  0.000000 -0.000000  0.000000 -2.171161
  0C   3pz       -0.000000  0.000000  0.129772  0.116689  0.087495 -0.000000
  0C   3px       -0.000000 -0.000000  0.144960 -0.116101 -0.060163  0.000000
  0C   3py       -0.000000  0.000000 -0.016073 -0.104961  0.163821  0.000000
  0C   1dz2       0.000000  0.000000  0.000000 -0.000000  0.000000  0.000000
  0C   1dxz      -0.000000 -0.000000 -0.002707 -0.017676  0.027588  0.000000
  0C   1dyz       0.000000  0.000000  0.024412 -0.019552 -0.010132 -0.000000
  0C   1dx2y2     0.000000 -0.000000 -0.000000  0.000000  0.000000 -0.000000
  0C   1dxy      -0.000000 -0.000000  0.021854  0.019651  0.014734  0.000000
  1H   1s         0.000374 -0.083900  0.000454  0.173166 -0.008287  0.008311
  1H   2s         0.000061 -0.113302  0.000713  0.271852 -0.013009 -0.006142
  1H   3s         0.000217 -0.007562  0.000307  0.117263 -0.005611  0.786235
  1H   1pz        0.000004  0.011254  0.007429 -0.010423  0.005860 -0.001279
  1H   1px       -0.000004 -0.011254  0.008394  0.010457 -0.004285  0.001279
  1H   1py       -0.000004 -0.011254 -0.000881  0.011098  0.008615  0.001279
  2H   1s         0.000374 -0.083900  0.016028 -0.065539 -0.159697  0.008311
  2H   2s         0.000061 -0.113302  0.025162 -0.102888 -0.250707 -0.006142
  2H   3s         0.000217 -0.007562  0.010854 -0.044381 -0.108142  0.786235
  2H   1pz       -0.000004 -0.011254  0.009061  0.000232 -0.010771  0.001279
  2H   1px        0.000004  0.011254  0.006762 -0.000198  0.012345 -0.001279
  2H   1py       -0.000004 -0.011254  0.000661 -0.012533 -0.006375  0.001279
  3H   1s         0.000374 -0.083900 -0.149097 -0.054115  0.069979  0.008311
  3H   2s         0.000061 -0.113302 -0.234066 -0.084955  0.109859 -0.006142
  3H   3s         0.000217 -0.007562 -0.100964 -0.036645  0.047387  0.786235
  3H   1pz       -0.000004 -0.011254 -0.007286  0.001363  0.011967  0.001279
  3H   1px       -0.000004 -0.011254 -0.006412 -0.012044  0.003463  0.001279
  3H   1py        0.000004  0.011254  0.013835 -0.000688  0.002507 -0.001279
  4H   1s         0.000374 -0.083900  0.132615 -0.053512  0.098005  0.008311
  4H   2s         0.000061 -0.113302  0.208191 -0.084008  0.153857 -0.006142
  4H   3s         0.000217 -0.007562  0.089803 -0.036237  0.066366  0.786235
  4H   1pz        0.000004  0.011254 -0.005655  0.012018 -0.004663 -0.001279
  4H   1px        0.000004  0.011254 -0.004780 -0.001389 -0.013167 -0.001279
  4H   1py        0.000004  0.011254 -0.014055 -0.000747 -0.000267 -0.001279
                      6         7         8         9        10        11   
                   0.23749   0.23749   0.23749   0.42770   0.42770   0.42770
                   0.00000   0.00000   0.00000   0.00000   0.00000   0.00000
                  --------  --------  --------  --------  --------  --------
  0C   1s         0.000000  0.000000 -0.000000  0.000000 -0.000000  0.000000
  0C   2s         0.000000  0.000000 -0.000000  0.000000 -0.000000  0.000000
  0C   1pz        0.126514  0.016421 -0.050492 -0.001653  0.003341  0.001295
  0C   1px        0.052698 -0.054760  0.114233  0.001072  0.001822 -0.003332
  0C   1py       -0.006481 -0.124727 -0.056801 -0.003419 -0.001044 -0.001671
  0C   3s        -0.000000 -0.000000  0.000000 -0.000000  0.000000  0.000000
  0C   2pz        0.055426  0.007194 -0.022121 -0.021924  0.044310  0.017172
  0C   2px        0.023087 -0.023990  0.050045  0.014217  0.024161 -0.044193
  0C   2py       -0.002839 -0.054642 -0.024884 -0.045345 -0.013848 -0.022159
  0C   4s         0.000000  0.000000  0.000000  0.000000 -0.000000 -0.000000
  0C   3pz        1.047100  0.135908 -0.417902 -0.662688  1.339353  0.519058
  0C   3px        0.436160 -0.453223  0.945454  0.429736  0.730315 -1.335818
  0C   3py       -0.053636 -1.032302 -0.470112 -1.370626 -0.418590 -0.669784
  0C   1dz2       0.000000  0.000000  0.000000 -0.000000 -0.000000 -0.000000
  0C   1dxz       0.001592  0.030635  0.013951 -0.036907 -0.011271 -0.018035
  0C   1dyz      -0.012944  0.013450 -0.028058  0.011572  0.019665 -0.035970
  0C   1dx2y2    -0.000000  0.000000  0.000000 -0.000000 -0.000000  0.000000
  0C   1dxy      -0.031075 -0.004033  0.012402 -0.017844  0.036065  0.013977
  1H   1s        -0.006174 -0.015063  0.008298 -0.006673 -0.024649 -0.060558
  1H   2s         0.072397  0.176635 -0.097308 -0.141833 -0.523908 -1.287128
  1H   3s        -0.801999 -1.956721  1.077952  0.003092  0.011421  0.028060
  1H   1pz       -0.005271 -0.021003  0.010416  0.002166  0.019957  0.040279
  1H   1px        0.010265  0.019935 -0.008640 -0.002901 -0.013422 -0.042858
  1H   1py        0.008616  0.017985 -0.013405 -0.008585 -0.017050 -0.040755
  2H   1s         0.005177 -0.004117 -0.017033 -0.059080  0.004568  0.028426
  2H   2s        -0.060711  0.048278  0.199734 -1.255718  0.097095  0.604186
  2H   3s         0.672545 -0.534812 -2.212600  0.027375 -0.002117 -0.013171
  2H   1pz       -0.003851  0.006323  0.022860 -0.039790  0.007143  0.019777
  2H   1px        0.008845 -0.007392 -0.021084  0.039054 -0.000609 -0.022356
  2H   1py       -0.007557  0.002390  0.022685 -0.042025  0.001593  0.016023
  3H   1s         0.014278  0.006642  0.009269  0.027289  0.059685 -0.003525
  3H   2s        -0.167426 -0.077889 -0.108683  0.580011  1.268569 -0.074931
  3H   3s         1.854702  0.862835  1.203966 -0.012644 -0.027655  0.001634
  3H   1pz       -0.016817 -0.009006 -0.014612  0.015320  0.042312 -0.000611
  3H   1px       -0.018873 -0.010989 -0.010022  0.018769  0.040389 -0.006467
  3H   1py        0.020161  0.005988  0.011622 -0.021740 -0.039405  0.000135
  4H   1s        -0.013282  0.012538 -0.000534  0.038464 -0.039604  0.035657
  4H   2s         0.155740 -0.147024  0.006257  0.817539 -0.841756  0.757873
  4H   3s        -1.725248  1.628697 -0.069318 -0.017823  0.018351 -0.016522
  4H   1pz       -0.015397  0.018321 -0.002167 -0.026635  0.029499 -0.021113
  4H   1px       -0.017454  0.016337  0.002423 -0.023186  0.027576 -0.026969
  4H   1py       -0.019103  0.014388 -0.002343 -0.028870  0.023949 -0.024867
                     12        13        14        15        16        17   
                   0.75920   0.81464   0.81464   0.81464   0.93538   1.20257
                   0.00000   0.00000   0.00000   0.00000   0.00000   0.00000
                  --------  --------  --------  --------  --------  --------
  0C   1s         0.065417 -0.000000  0.000000  0.000000  0.103780  0.000000
  0C   2s         0.126271 -0.000000  0.000000  0.000000  0.218960  0.000000
  0C   1pz        0.000000  0.216948  0.088103 -0.098604  0.000000 -0.000000
  0C   1px       -0.000000  0.106153 -0.003074  0.230810 -0.000000  0.000000
  0C   1py       -0.000000 -0.078845  0.238284  0.039436 -0.000000  0.000000
  0C   3s        -0.375874  0.000000 -0.000000 -0.000000 -1.917720 -0.000000
  0C   2pz        0.000000  0.890429  0.361606 -0.404703  0.000000  0.000000
  0C   2px       -0.000000  0.435687 -0.012618  0.947325 -0.000000 -0.000000
  0C   2py       -0.000000 -0.323606  0.978002  0.161857 -0.000000  0.000000
  0C   4s        -2.297548 -0.000000  0.000000  0.000000  5.713271  0.000000
  0C   3pz       -0.000000 -1.436517 -0.583375  0.652903 -0.000000 -0.000000
  0C   3px        0.000000 -0.702889  0.020357 -1.528307  0.000000  0.000000
  0C   3py        0.000000  0.522069 -1.577799 -0.261122  0.000000 -0.000000
  0C   1dz2       0.000000  0.000000 -0.000000  0.000000 -0.000000  0.225924
  0C   1dxz       0.000000  0.020508 -0.061980 -0.010258  0.000000  0.000000
  0C   1dyz      -0.000000 -0.027611  0.000800 -0.060036  0.000000 -0.000000
  0C   1dx2y2    -0.000000  0.000000  0.000000  0.000000  0.000000 -0.401539
  0C   1dxy       0.000000 -0.056430 -0.022916  0.025648 -0.000000 -0.000000
  1H   1s         0.047355 -0.026488  0.020547  0.051519  0.014685 -0.000000
  1H   2s         1.221542 -0.257780  0.199964  0.501381 -0.725404 -0.000000
  1H   3s        -0.134864  0.769962 -0.597274 -1.497577 -0.747427 -0.000000
  1H   1pz        0.011141  0.016221  0.040418  0.035295  0.089139  0.123612
  1H   1px       -0.011141  0.050570 -0.022841 -0.007965 -0.089139  0.252069
  1H   1py       -0.011141  0.012328  0.027052 -0.047526 -0.089139 -0.128458
  2H   1s         0.047355  0.004463  0.046017 -0.040502  0.014685 -0.000000
  2H   2s         1.221542  0.043431  0.447842 -0.394171 -0.725404 -0.000000
  2H   3s        -0.134864 -0.129723 -1.337660  1.177350 -0.747427 -0.000000
  2H   1pz       -0.011141  0.040024 -0.031520  0.023389 -0.089139 -0.123612
  2H   1px        0.011141  0.026766  0.049097  0.003940  0.089139 -0.252069
  2H   1py       -0.011141 -0.021121 -0.000475  0.051924 -0.089139 -0.128458
  3H   1s         0.047355  0.056141 -0.021406  0.012958  0.014685  0.000000
  3H   2s         1.221542  0.546369 -0.208322  0.126105 -0.725404 -0.000000
  3H   3s        -0.134864 -1.631950  0.622238 -0.376662 -0.747427 -0.000000
  3H   1pz       -0.011141 -0.015827  0.041346 -0.034387 -0.089139 -0.123612
  3H   1px       -0.011141 -0.038730  0.022498  0.033709 -0.089139  0.252069
  3H   1py        0.011141  0.044375  0.026123  0.022156  0.089139  0.128458
  4H   1s         0.047355 -0.034116 -0.045158 -0.023974  0.014685 -0.000000
  4H   2s         1.221542 -0.332020 -0.439484 -0.233315 -0.725404 -0.000000
  4H   3s        -0.134864  0.991711  1.312696  0.696890 -0.747427 -0.000000
  4H   1pz        0.011141  0.007976 -0.030592 -0.046292  0.089139  0.123612
  4H   1px        0.011141 -0.014927 -0.049440  0.021803  0.089139 -0.252069
  4H   1py        0.011141 -0.053169  0.000453 -0.017757  0.089139  0.128458
                     18        19        20        21        22        23   
                   1.20257   1.72133   1.72133   1.72133   1.72826   1.72826
                   0.00000   0.00000   0.00000   0.00000   0.00000   0.00000
                  --------  --------  --------  --------  --------  --------
  0C   1s         0.000000  0.000000 -0.000000 -0.000000 -0.000000 -0.000000
  0C   2s        -0.000000  0.000000 -0.000000 -0.000000 -0.000000  0.000000
  0C   1pz       -0.000000  0.029636 -0.035388 -0.035431 -0.000000  0.000000
  0C   1px        0.000000  0.010540 -0.035840  0.044613 -0.000000  0.000000
  0C   1py       -0.000000  0.048955  0.029139  0.011843  0.000000 -0.000000
  0C   3s         0.000000 -0.000000  0.000000  0.000000  0.000000 -0.000000
  0C   2pz       -0.000000  0.105611 -0.126112 -0.126265 -0.000000  0.000000
  0C   2px        0.000000  0.037562 -0.127723  0.158986 -0.000000  0.000000
  0C   2py       -0.000000  0.174460  0.103843  0.042205  0.000000 -0.000000
  0C   4s        -0.000000  0.000000 -0.000000 -0.000000  0.000000  0.000000
  0C   3pz       -0.000000  0.508794 -0.607559 -0.608296 -0.000000  0.000000
  0C   3px        0.000000  0.180961 -0.615320  0.765935  0.000000  0.000000
  0C   3py       -0.000000  0.840479  0.500276  0.203328  0.000000 -0.000000
  0C   1dz2       0.401539  0.000000  0.000000 -0.000000  0.000000  0.000000
  0C   1dxz      -0.000000  0.721071  0.429201  0.174441  0.000000 -0.000000
  0C   1dyz       0.000000  0.155252 -0.527901  0.657118 -0.000000  0.000000
  0C   1dx2y2     0.225924  0.000000  0.000000  0.000000  0.000000 -0.000000
  0C   1dxy      -0.000000  0.436509 -0.521242 -0.521874 -0.000000  0.000000
  1H   1s        -0.000000 -0.101842 -0.097843 -0.313397 -0.000000  0.000000
  1H   2s         0.000000  0.463024  0.444841  1.424857  0.000000 -0.000000
  1H   3s        -0.000000 -0.055184 -0.053016 -0.169816 -0.000000  0.000000
  1H   1pz        0.219697 -0.180415  0.134351  0.054912 -0.388096 -0.303941
  1H   1px        0.002798 -0.013155  0.208833 -0.099151 -0.071514 -0.072668
  1H   1py        0.216899 -0.198238 -0.104243  0.058736 -0.316582 -0.231273
  2H   1s         0.000000 -0.232096 -0.100927  0.232611  0.000000  0.000000
  2H   2s        -0.000000  1.055223  0.458862 -1.057564 -0.000000 -0.000000
  2H   3s        -0.000000 -0.125762 -0.054687  0.126041  0.000000  0.000000
  2H   1pz       -0.219697 -0.057028  0.207794  0.084762 -0.340610  0.284210
  2H   1px       -0.002798 -0.136542  0.135389 -0.129001 -0.024027  0.515483
  2H   1py        0.216899 -0.150111 -0.103104 -0.143009  0.316582  0.231273
  3H   1s         0.000000  0.029943  0.342322  0.009077  0.000000 -0.000000
  3H   2s         0.000000 -0.136134 -1.556360 -0.041266 -0.000000  0.000000
  3H   3s         0.000000  0.016225  0.185488  0.004918  0.000000 -0.000000
  3H   1pz       -0.219697 -0.153849  0.044018  0.167356  0.340610 -0.284210
  3H   1px        0.002798 -0.061848  0.046196 -0.218302  0.071514  0.072668
  3H   1py       -0.216899 -0.224805 -0.013911 -0.053707  0.412124 -0.211542
  4H   1s         0.000000  0.303996 -0.143552  0.071710 -0.000000 -0.000000
  4H   2s         0.000000 -1.382113  0.652658 -0.326027  0.000000  0.000000
  4H   3s        -0.000000  0.164721 -0.077784  0.038856 -0.000000 -0.000000
  4H   1pz        0.219697 -0.030462  0.117461  0.197205  0.388096  0.303941
  4H   1px       -0.002798  0.061539  0.119640 -0.188453  0.024027 -0.515483
  4H   1py       -0.216899 -0.123545 -0.193436 -0.030565 -0.412124  0.211542
                     24        25        26        27        28        29   
                   1.72826   2.18461   2.18461   2.18461   2.53112   2.63071
                   0.00000   0.00000   0.00000   0.00000   0.00000   0.00000
                  --------  --------  --------  --------  --------  --------
  0C   1s        -0.000000 -0.000000 -0.000000 -0.000000  0.061613 -0.000000
  0C   2s        -0.000000 -0.000000 -0.000000  0.000000  0.116372 -0.000000
  0C   1pz       -0.000000  0.248407  0.065423 -0.071308  0.000000 -0.000000
  0C   1px       -0.000000  0.095818 -0.193815  0.155968 -0.000000 -0.000000
  0C   1py        0.000000 -0.013567 -0.170958 -0.204109  0.000000 -0.000000
  0C   3s         0.000000  0.000000  0.000000  0.000000 -0.594778  0.000000
  0C   2pz       -0.000000 -0.505195 -0.133053  0.145022 -0.000000 -0.000000
  0C   2px       -0.000000 -0.194868  0.394169 -0.317197  0.000000  0.000000
  0C   2py        0.000000  0.027591  0.347684  0.415104  0.000000 -0.000000
  0C   4s         0.000000 -0.000000 -0.000000 -0.000000  0.876439  0.000000
  0C   3pz       -0.000000  0.665250  0.175207 -0.190968 -0.000000 -0.000000
  0C   3px       -0.000000  0.256605 -0.519049  0.417691  0.000000  0.000000
  0C   3py        0.000000 -0.036332 -0.457837 -0.546616  0.000000 -0.000000
  0C   1dz2       0.000000 -0.000000 -0.000000 -0.000000  0.000000 -1.120094
  0C   1dxz       0.000000  0.039522  0.498027  0.594599  0.000000 -0.000000
  0C   1dyz      -0.000000 -0.279131  0.564612 -0.454357  0.000000  0.000000
  0C   1dx2y2    -0.000000  0.000000 -0.000000 -0.000000  0.000000  0.575709
  0C   1dxy      -0.000000 -0.723647 -0.190587  0.207732 -0.000000 -0.000000
  1H   1s         0.000000 -0.152966 -0.396045  0.021328  0.708641  0.000000
  1H   2s        -0.000000  0.359358  0.930416 -0.050105 -0.873743 -0.000000
  1H   3s         0.000000 -0.286644 -0.742152  0.039967  0.169982  0.000000
  1H   1pz       -0.167926 -0.547035 -0.019162  0.164962 -0.145693  0.419456
  1H   1px       -0.510688 -0.285432  0.329663 -0.369700  0.145693  0.396437
  1H   1py        0.342763 -0.020899  0.274386  0.501101  0.145693  0.023019
  2H   1s        -0.000000  0.127987  0.081272 -0.397139  0.708641  0.000000
  2H   2s         0.000000 -0.300674 -0.190929  0.932986 -0.873743 -0.000000
  2H   3s        -0.000000  0.239835  0.152296 -0.744202  0.169982  0.000000
  2H   1pz        0.272777 -0.555805 -0.129682  0.033010  0.145693 -0.419456
  2H   1px       -0.069986 -0.276661  0.440183 -0.237749 -0.145693 -0.396437
  2H   1py       -0.342763  0.077747  0.441977  0.354173  0.145693  0.023019
  3H   1s         0.000000  0.329388  0.039187  0.265844  0.708641 -0.000000
  3H   2s        -0.000000 -0.773820 -0.092061 -0.624539 -0.873743  0.000000
  3H   3s         0.000000  0.617243  0.073433  0.498167  0.169982 -0.000000
  3H   1pz       -0.272777 -0.485091 -0.144459  0.265792  0.145693 -0.419456
  3H   1px        0.510688 -0.116071  0.482478 -0.283848  0.145693  0.396437
  3H   1py        0.237911 -0.082843  0.399683  0.400272 -0.145693 -0.023019
  4H   1s        -0.000000 -0.304409  0.275586  0.109967  0.708641 -0.000000
  4H   2s         0.000000  0.715137 -0.647426 -0.258342 -0.873743  0.000000
  4H   3s        -0.000000 -0.570434  0.516423  0.206068  0.169982 -0.000000
  4H   1pz        0.167926 -0.493862 -0.254979  0.133840 -0.145693  0.419456
  4H   1px        0.069986 -0.124842  0.371957 -0.415800 -0.145693 -0.396437
  4H   1py       -0.237911  0.139691  0.316680  0.455002 -0.145693 -0.023019
                     30        31        32        33        34        35   
                   2.63071   2.70058   2.70058   2.70058   2.91303   2.91303
                   0.00000   0.00000   0.00000   0.00000   0.00000   0.00000
                  --------  --------  --------  --------  --------  --------
  0C   1s         0.000000 -0.000000 -0.000000  0.000000 -0.000000  0.000000
  0C   2s         0.000000 -0.000000 -0.000000  0.000000 -0.000000  0.000000
  0C   1pz       -0.000000 -0.013231 -0.049117  0.052053 -0.673523 -0.526017
  0C   1px        0.000000  0.062306 -0.033951 -0.016198 -0.031187 -0.086320
  0C   1py        0.000000 -0.035213 -0.041617 -0.048220 -0.530829  0.672489
  0C   3s        -0.000000  0.000000 -0.000000 -0.000000  0.000000 -0.000000
  0C   2pz        0.000000 -0.313770 -1.164777  1.234410  0.180519  0.140984
  0C   2px        0.000000  1.477551 -0.805118 -0.384127  0.008359  0.023136
  0C   2py        0.000000 -0.835055 -0.986918 -1.143505  0.142274 -0.180242
  0C   4s        -0.000000  0.000000 -0.000000  0.000000  0.000000 -0.000000
  0C   3pz        0.000000 -0.106448 -0.395155  0.418778 -0.427506 -0.333879
  0C   3px        0.000000  0.501264 -0.273139 -0.130317 -0.019795 -0.054790
  0C   3py        0.000000 -0.283295 -0.334815 -0.387938 -0.336934  0.426849
  0C   1dz2      -0.575709  0.000000 -0.000000  0.000000  0.000000  0.000000
  0C   1dxz      -0.000000 -0.227033 -0.268321 -0.310893 -0.595772  0.754763
  0C   1dyz       0.000000  0.401713 -0.218893 -0.104436 -0.035002 -0.096881
  0C   1dx2y2    -1.120094 -0.000000 -0.000000  0.000000 -0.000000  0.000000
  0C   1dxy       0.000000 -0.085307 -0.316676  0.335608 -0.755924 -0.590371
  1H   1s         0.000000 -0.246951  0.161986  0.713283  0.053284  0.531455
  1H   2s        -0.000000  0.838563 -0.550051 -2.422071 -0.001712 -0.017076
  1H   3s         0.000000 -0.130549  0.085633  0.377072  0.046125  0.460058
  1H   1pz        0.215593 -0.273528  0.433471  0.729226 -0.180609 -0.353449
  1H   1px       -0.255463  0.057811 -0.068334 -0.886834  0.015811  0.210252
  1H   1py        0.471056  0.486473 -0.034635 -0.746077 -0.101032  0.387702
  2H   1s         0.000000  0.678248  0.347746 -0.122675 -0.560595  0.111239
  2H   2s         0.000000 -2.303104 -1.180831  0.416563  0.018013 -0.003574
  2H   3s         0.000000  0.358551  0.183833 -0.064851 -0.485283  0.096295
  2H   1pz       -0.215593 -0.852819 -0.251168 -0.064040 -0.400579 -0.074778
  2H   1px        0.255463  0.637101  0.616306 -0.093567  0.235780 -0.068419
  2H   1py        0.471056 -0.756194 -0.284136  0.376728 -0.367209  0.205497
  3H   1s        -0.000000 -0.516189  0.253849 -0.514885 -0.083088 -0.613951
  3H   2s         0.000000  1.752805 -0.861986  1.748379  0.002670  0.019727
  3H   3s        -0.000000 -0.272879  0.134195 -0.272190 -0.071926 -0.531471
  3H   1pz       -0.215593  0.751472 -0.125051  0.462751 -0.193533 -0.389219
  3H   1px       -0.255463  0.419434 -0.191717  0.762762 -0.043320 -0.286394
  3H   1py       -0.471056 -0.538526  0.523887 -0.479602 -0.088109  0.423472
  4H   1s         0.000000  0.084892 -0.763581 -0.075723  0.590399 -0.028743
  4H   2s        -0.000000 -0.288264  2.592868  0.257130 -0.018970  0.000924
  4H   3s         0.000000  0.044877 -0.403661 -0.040030  0.511083 -0.024882
  4H   1pz        0.215593  0.172181 -0.809691 -0.330515 -0.413502 -0.110548
  4H   1px        0.255463 -0.159856 -0.876357 -0.030505 -0.263289 -0.007723
  4H   1py       -0.471056  0.268806 -0.842659  0.110253 -0.380132  0.169727
                     36        37        38        39        40        41   
                   2.91303   3.19069   4.20553   4.20553   4.20553  25.17643
                   0.00000   0.00000   0.00000   0.00000   0.00000   0.00000
                  --------  --------  --------  --------  --------  --------
  0C   1s         0.000000  0.092582  0.000000  0.000000 -0.000000 -2.041345
  0C   2s         0.000000  0.264858  0.000000 -0.000000  0.000000  2.244535
  0C   1pz       -0.077836 -0.000000  1.037396  0.549482  0.094438  0.000000
  0C   1px        0.853207  0.000000 -0.553919  1.038463  0.042530 -0.000000
  0C   1py        0.048633 -0.000000 -0.063428 -0.081879  1.173164 -0.000000
  0C   3s        -0.000000 -1.945205 -0.000000  0.000000  0.000000 -0.766801
  0C   2pz        0.020862  0.000000 -3.041890 -1.611211 -0.276914 -0.000000
  0C   2px       -0.228678  0.000000  1.624220 -3.045018 -0.124709  0.000000
  0C   2py       -0.013035  0.000000  0.185985  0.240090 -3.439992  0.000000
  0C   4s         0.000000 -3.818825 -0.000000 -0.000000 -0.000000 -0.104654
  0C   3pz       -0.049405 -0.000000  0.140848  0.074604  0.012822  0.000000
  0C   3px        0.541557  0.000000 -0.075206  0.140993  0.005774 -0.000000
  0C   3py        0.030869 -0.000000 -0.008612 -0.011117  0.159282 -0.000000
  0C   1dz2      -0.000000 -0.000000  0.000000 -0.000000  0.000000 -0.000000
  0C   1dxz       0.054583 -0.000000  0.079947  0.103204 -1.478700  0.000000
  0C   1dyz       0.957591  0.000000  0.698180 -1.308919 -0.053607  0.000000
  0C   1dx2y2     0.000000  0.000000 -0.000000 -0.000000 -0.000000 -0.000000
  0C   1dxy      -0.087359  0.000000 -1.307574 -0.692588 -0.119033 -0.000000
  1H   1s         0.468136 -0.417842  0.717575 -0.176539 -0.486230 -0.012735
  1H   2s        -0.015042  1.931095  1.406241 -0.345965 -0.952871  0.256136
  1H   3s         0.405246  0.139681 -0.348942  0.085847  0.236444 -0.040882
  1H   1pz       -0.221186 -0.541670 -0.647382  0.303976  0.582056 -0.096492
  1H   1px        0.402508  0.541670  0.734324 -0.018423 -0.557426  0.096492
  1H   1py        0.214356  0.541670  0.822526 -0.219889 -0.354109  0.096492
  2H   1s        -0.421658 -0.417842 -0.662564  0.247552 -0.531249 -0.012735
  2H   2s         0.013548  1.931095 -1.298436  0.485131 -1.041096  0.256136
  2H   3s        -0.365011  0.139681  0.322192 -0.120380  0.258336 -0.040882
  2H   1pz       -0.201032  0.541670 -0.583452  0.386504 -0.600411  0.096492
  2H   1px        0.382355 -0.541670  0.670393 -0.100952  0.625041 -0.096492
  2H   1py       -0.171457  0.541670 -0.781408  0.272970 -0.406429  0.096492
  3H   1s         0.347270 -0.417842 -0.237164 -0.724115  0.449344 -0.012735
  3H   2s        -0.011158  1.931095 -0.464774 -1.419058  0.880584  0.256136
  3H   3s         0.300616  0.139681  0.115328  0.352123 -0.218507 -0.040882
  3H   1pz        0.132373  0.541670 -0.089071 -0.742722  0.539189  0.096492
  3H   1px        0.350101  0.541670 -0.375230 -0.654791  0.529854  0.096492
  3H   1py       -0.139202 -0.541670  0.264215  0.826809 -0.311242 -0.096492
  4H   1s        -0.393748 -0.417842  0.182154  0.653102  0.568135 -0.012735
  4H   2s         0.012652  1.931095  0.356969  1.279892  1.113382  0.256136
  4H   3s        -0.340851  0.139681 -0.088578 -0.317590 -0.276273 -0.040882
  4H   1pz        0.152526 -0.541670 -0.025140 -0.660194 -0.643278 -0.096492
  4H   1px        0.370254 -0.541670 -0.311299 -0.572263 -0.652612 -0.096492
  4H   1py        0.182102 -0.541670 -0.223096 -0.773728 -0.449296 -0.096492

                      0         1         2         3         4         5   
                 -11.20493  -0.94508  -0.54612  -0.54612  -0.54612   0.16227
                   1.00000   1.00000   1.00000   1.00000   1.00000   0.00000
                  --------  --------  --------  --------  --------  --------
  0C   1s         0.563309  0.102996 -0.000000 -0.000000  0.000000  0.048558
  0C   2s         0.466534  0.169624 -0.000000 -0.000000  0.000000  0.077887
  0C   1pz        0.000000  0.000000  0.126025  0.113319  0.084969 -0.000000
  0C   1px       -0.000000  0.000000  0.140774 -0.112749 -0.058426  0.000000
  0C   1py        0.000000 -0.000000 -0.015609 -0.101930  0.159091  0.000000
  0C   3s         0.004524 -0.423122 -0.000000  0.000000 -0.000000 -0.063461
  0C   2pz       -0.000000 -0.000000  0.198182  0.178202  0.133619  0.000000
  0C   2px        0.000000  0.000000  0.221376 -0.177304 -0.091879 -0.000000
  0C   2py       -0.000000 -0.000000 -0.024547 -0.160291  0.250180  0.000000
  0C   4s        -0.001091 -0.261139  0.000000 -0.000000  0.000000 -2.171161
  0C   3pz       -0.000000  0.000000  0.129772  0.116689  0.087495 -0.000000
  0C   3px       -0.000000 -0.000000  0.144960 -0.116101 -0.060163  0.000000
  0C   3py       -0.000000  0.000000 -0.016073 -0.104961  0.163821  0.000000
  0C   1dz2       0.000000  0.000000  0.000000 -0.000000  0.000000  0.000000
  0C   1dxz      -0.000000 -0.000000 -0.002707 -0.017676  0.027588  0.000000
  0C   1dyz       0.000000  0.000000  0.024412 -0.019552 -0.010132 -0.000000
  0C   1dx2y2     0.000000 -0.000000 -0.000000  0.000000  0.000000 -0.000000
  0C   1dxy      -0.000000 -0.000000  0.021854  0.019651  0.014734  0.000000
  1H   1s         0.000374 -0.083900  0.000454  0.173166 -0.008287  0.008311
  1H   2s         0.000061 -0.113302  0.000713  0.271852 -0.013009 -0.006142
  1H   3s         0.000217 -0.007562  0.000307  0.117263 -0.005611  0.786235
  1H   1pz        0.000004  0.011254  0.007429 -0.010423  0.005860 -0.001279
  1H   1px       -0.000004 -0.011254  0.008394  0.010457 -0.004285  0.001279
  1H   1py       -0.000004 -0.011254 -0.000881  0.011098  0.008615  0.001279
  2H   1s         0.000374 -0.083900  0.016028 -0.065539 -0.159697  0.008311
  2H   2s         0.000061 -0.113302  0.025162 -0.102888 -0.250707 -0.006142
  2H   3s         0.000217 -0.007562  0.010854 -0.044381 -0.108142  0.786235
  2H   1pz       -0.000004 -0.011254  0.009061  0.000232 -0.010771  0.001279
  2H   1px        0.000004  0.011254  0.006762 -0.000198  0.012345 -0.001279
  2H   1py       -0.000004 -0.011254  0.000661 -0.012533 -0.006375  0.001279
  3H   1s         0.000374 -0.083900 -0.149097 -0.054115  0.069979  0.008311
  3H   2s         0.000061 -0.113302 -0.234066 -0.084955  0.109859 -0.006142
  3H   3s         0.000217 -0.007562 -0.100964 -0.036645  0.047387  0.786235
  3H   1pz       -0.000004 -0.011254 -0.007286  0.001363  0.011967  0.001279
  3H   1px       -0.000004 -0.011254 -0.006412 -0.012044  0.003463  0.001279
  3H   1py        0.000004  0.011254  0.013835 -0.000688  0.002507 -0.001279
  4H   1s         0.000374 -0.083900  0.132615 -0.053512  0.098005  0.008311
  4H   2s         0.000061 -0.113302  0.208191 -0.084008  0.153857 -0.006142
  4H   3s         0.000217 -0.007562  0.089803 -0.036237  0.066366  0.786235
  4H   1pz        0.000004  0.011254 -0.005655  0.012018 -0.004663 -0.001279
  4H   1px        0.000004  0.011254 -0.004780 -0.001389 -0.013167 -0.001279
  4H   1py        0.000004  0.011254 -0.014055 -0.000747 -0.000267 -0.001279
                      6         7         8         9        10        11   
                   0.23749   0.23749   0.23749   0.42770   0.42770   0.42770
                   0.00000   0.00000   0.00000   0.00000   0.00000   0.00000
                  --------  --------  --------  --------  --------  --------
  0C   1s         0.000000  0.000000 -0.000000  0.000000 -0.000000  0.000000
  0C   2s         0.000000  0.000000 -0.000000  0.000000 -0.000000  0.000000
  0C   1pz        0.126514  0.016421 -0.050492 -0.001653  0.003341  0.001295
  0C   1px        0.052698 -0.054760  0.114233  0.001072  0.001822 -0.003332
  0C   1py       -0.006481 -0.124727 -0.056801 -0.003419 -0.001044 -0.001671
  0C   3s        -0.000000 -0.000000  0.000000 -0.000000  0.000000  0.000000
  0C   2pz        0.055426  0.007194 -0.022121 -0.021924  0.044310  0.017172
  0C   2px        0.023087 -0.023990  0.050045  0.014217  0.024161 -0.044193
  0C   2py       -0.002839 -0.054642 -0.024884 -0.045345 -0.013848 -0.022159
  0C   4s         0.000000  0.000000  0.000000  0.000000 -0.000000 -0.000000
  0C   3pz        1.047100  0.135908 -0.417902 -0.662688  1.339353  0.519058
  0C   3px        0.436160 -0.453223  0.945454  0.429736  0.730315 -1.335818
  0C   3py       -0.053636 -1.032302 -0.470112 -1.370626 -0.418590 -0.669784
  0C   1dz2       0.000000  0.000000  0.000000 -0.000000 -0.000000 -0.000000
  0C   1dxz       0.001592  0.030635  0.013951 -0.036907 -0.011271 -0.018035
  0C   1dyz      -0.012944  0.013450 -0.028058  0.011572  0.019665 -0.035970
  0C   1dx2y2    -0.000000  0.000000  0.000000 -0.000000 -0.000000  0.000000
  0C   1dxy      -0.031075 -0.004033  0.012402 -0.017844  0.036065  0.013977
  1H   1s        -0.006174 -0.015063  0.008298 -0.006673 -0.024649 -0.060558
  1H   2s         0.072397  0.176635 -0.097308 -0.141833 -0.523908 -1.287128
  1H   3s        -0.801999 -1.956721  1.077952  0.003092  0.011421  0.028060
  1H   1pz       -0.005271 -0.021003  0.010416  0.002166  0.019957  0.040279
  1H   1px        0.010265  0.019935 -0.008640 -0.002901 -0.013422 -0.042858
  1H   1py        0.008616  0.017985 -0.013405 -0.008585 -0.017050 -0.040755
  2H   1s         0.005177 -0.004117 -0.017033 -0.059080  0.004568  0.028426
  2H   2s        -0.060711  0.048278  0.199734 -1.255718  0.097095  0.604186
  2H   3s         0.672545 -0.534812 -2.212600  0.027375 -0.002117 -0.013171
  2H   1pz       -0.003851  0.006323  0.022860 -0.039790  0.007143  0.019777
  2H   1px        0.008845 -0.007392 -0.021084  0.039054 -0.000609 -0.022356
  2H   1py       -0.007557  0.002390  0.022685 -0.042025  0.001593  0.016023
  3H   1s         0.014278  0.006642  0.009269  0.027289  0.059685 -0.003525
  3H   2s        -0.167426 -0.077889 -0.108683  0.580011  1.268569 -0.074931
  3H   3s         1.854702  0.862835  1.203966 -0.012644 -0.027655  0.001634
  3H   1pz       -0.016817 -0.009006 -0.014612  0.015320  0.042312 -0.000611
  3H   1px       -0.018873 -0.010989 -0.010022  0.018769  0.040389 -0.006467
  3H   1py        0.020161  0.005988  0.011622 -0.021740 -0.039405  0.000135
  4H   1s        -0.013282  0.012538 -0.000534  0.038464 -0.039604  0.035657
  4H   2s         0.155740 -0.147024  0.006257  0.817539 -0.841756  0.757873
  4H   3s        -1.725248  1.628697 -0.069318 -0.017823  0.018351 -0.016522
  4H   1pz       -0.015397  0.018321 -0.002167 -0.026635  0.029499 -0.021113
  4H   1px       -0.017454  0.016337  0.002423 -0.023186  0.027576 -0.026969
  4H   1py       -0.019103  0.014388 -0.002343 -0.028870  0.023949 -0.024867
                     12        13        14        15        16        17   
                   0.75920   0.81464   0.81464   0.81464   0.93538   1.20257
                   0.00000   0.00000   0.00000   0.00000   0.00000   0.00000
                  --------  --------  --------  --------  --------  --------
  0C   1s         0.065417 -0.000000  0.000000  0.000000  0.103780  0.000000
  0C   2s         0.126271 -0.000000  0.000000  0.000000  0.218960  0.000000
  0C   1pz        0.000000  0.216948  0.088103 -0.098604  0.000000 -0.000000
  0C   1px       -0.000000  0.106153 -0.003074  0.230810 -0.000000  0.000000
  0C   1py       -0.000000 -0.078845  0.238284  0.039436 -0.000000  0.000000
  0C   3s        -0.375874  0.000000 -0.000000 -0.000000 -1.917720 -0.000000
  0C   2pz        0.000000  0.890429  0.361606 -0.404703  0.000000  0.000000
  0C   2px       -0.000000  0.435687 -0.012618  0.947325 -0.000000 -0.000000
  0C   2py       -0.000000 -0.323606  0.978002  0.161857 -0.000000  0.000000
  0C   4s        -2.297548 -0.000000  0.000000  0.000000  5.713271  0.000000
  0C   3pz       -0.000000 -1.436517 -0.583375  0.652903 -0.000000 -0.000000
  0C   3px        0.000000 -0.702889  0.020357 -1.528307  0.000000  0.000000
  0C   3py        0.000000  0.522069 -1.577799 -0.261122  0.000000 -0.000000
  0C   1dz2       0.000000  0.000000 -0.000000  0.000000 -0.000000  0.225924
  0C   1dxz       0.000000  0.020508 -0.061980 -0.010258  0.000000  0.000000
  0C   1dyz      -0.000000 -0.027611  0.000800 -0.060036  0.000000 -0.000000
  0C   1dx2y2    -0.000000  0.000000  0.000000  0.000000  0.000000 -0.401539
  0C   1dxy       0.000000 -0.056430 -0.022916  0.025648 -0.000000 -0.000000
  1H   1s         0.047355 -0.026488  0.020547  0.051519  0.014685 -0.000000
  1H   2s         1.221542 -0.257780  0.199964  0.501381 -0.725404 -0.000000
  1H   3s        -0.134864  0.769962 -0.597274 -1.497577 -0.747427 -0.000000
  1H   1pz        0.011141  0.016221  0.040418  0.035295  0.089139  0.123612
  1H   1px       -0.011141  0.050570 -0.022841 -0.007965 -0.089139  0.252069
  1H   1py       -0.011141  0.012328  0.027052 -0.047526 -0.089139 -0.128458
  2H   1s         0.047355  0.004463  0.046017 -0.040502  0.014685 -0.000000
  2H   2s         1.221542  0.043431  0.447842 -0.394171 -0.725404 -0.000000
  2H   3s        -0.134864 -0.129723 -1.337660  1.177350 -0.747427 -0.000000
  2H   1pz       -0.011141  0.040024 -0.031520  0.023389 -0.089139 -0.123612
  2H   1px        0.011141  0.026766  0.049097  0.003940  0.089139 -0.252069
  2H   1py       -0.011141 -0.021121 -0.000475  0.051924 -0.089139 -0.128458
  3H   1s         0.047355  0.056141 -0.021406  0.012958  0.014685  0.000000
  3H   2s         1.221542  0.546369 -0.208322  0.126105 -0.725404 -0.000000
  3H   3s        -0.134864 -1.631950  0.622238 -0.376662 -0.747427 -0.000000
  3H   1pz       -0.011141 -0.015827  0.041346 -0.034387 -0.089139 -0.123612
  3H   1px       -0.011141 -0.038730  0.022498  0.033709 -0.089139  0.252069
  3H   1py        0.011141  0.044375  0.026123  0.022156  0.089139  0.128458
  4H   1s         0.047355 -0.034116 -0.045158 -0.023974  0.014685 -0.000000
  4H   2s         1.221542 -0.332020 -0.439484 -0.233315 -0.725404 -0.000000
  4H   3s        -0.134864  0.991711  1.312696  0.696890 -0.747427 -0.000000
  4H   1pz        0.011141  0.007976 -0.030592 -0.046292  0.089139  0.123612
  4H   1px        0.011141 -0.014927 -0.049440  0.021803  0.089139 -0.252069
  4H   1py        0.011141 -0.053169  0.000453 -0.017757  0.089139  0.128458
                     18        19        20        21        22        23   
                   1.20257   1.72133   1.72133   1.72133   1.72826   1.72826
                   0.00000   0.00000   0.00000   0.00000   0.00000   0.00000
                  --------  --------  --------  --------  --------  --------
  0C   1s         0.000000  0.000000 -0.000000 -0.000000 -0.000000 -0.000000
  0C   2s        -0.000000  0.000000 -0.000000 -0.000000 -0.000000  0.000000
  0C   1pz       -0.000000  0.029636 -0.035388 -0.035431 -0.000000  0.000000
  0C   1px        0.000000  0.010540 -0.035840  0.044613 -0.000000  0.000000
  0C   1py       -0.000000  0.048955  0.029139  0.011843  0.000000 -0.000000
  0C   3s         0.000000 -0.000000  0.000000  0.000000  0.000000 -0.000000
  0C   2pz       -0.000000  0.105611 -0.126112 -0.126265 -0.000000  0.000000
  0C   2px        0.000000  0.037562 -0.127723  0.158986 -0.000000  0.000000
  0C   2py       -0.000000  0.174460  0.103843  0.042205  0.000000 -0.000000
  0C   4s        -0.000000  0.000000 -0.000000 -0.000000  0.000000  0.000000
  0C   3pz       -0.000000  0.508794 -0.607559 -0.608296 -0.000000  0.000000
  0C   3px        0.000000  0.180961 -0.615320  0.765935  0.000000  0.000000
  0C   3py       -0.000000  0.840479  0.500276  0.203328  0.000000 -0.000000
  0C   1dz2       0.401539  0.000000  0.000000 -0.000000  0.000000  0.000000
  0C   1dxz      -0.000000  0.721071  0.429201  0.174441  0.000000 -0.000000
  0C   1dyz       0.000000  0.155252 -0.527901  0.657118 -0.000000  0.000000
  0C   1dx2y2     0.225924  0.000000  0.000000  0.000000  0.000000 -0.000000
  0C   1dxy      -0.000000  0.436509 -0.521242 -0.521874 -0.000000  0.000000
  1H   1s        -0.000000 -0.101842 -0.097843 -0.313397 -0.000000  0.000000
  1H   2s         0.000000  0.463024  0.444841  1.424857  0.000000 -0.000000
  1H   3s        -0.000000 -0.055184 -0.053016 -0.169816 -0.000000  0.000000
  1H   1pz        0.219697 -0.180415  0.134351  0.054912 -0.388096 -0.303941
  1H   1px        0.002798 -0.013155  0.208833 -0.099151 -0.071514 -0.072668
  1H   1py        0.216899 -0.198238 -0.104243  0.058736 -0.316582 -0.231273
  2H   1s         0.000000 -0.232096 -0.100927  0.232611  0.000000  0.000000
  2H   2s        -0.000000  1.055223  0.458862 -1.057564 -0.000000 -0.000000
  2H   3s        -0.000000 -0.125762 -0.054687  0.126041  0.000000  0.000000
  2H   1pz       -0.219697 -0.057028  0.207794  0.084762 -0.340610  0.284210
  2H   1px       -0.002798 -0.136542  0.135389 -0.129001 -0.024027  0.515483
  2H   1py        0.216899 -0.150111 -0.103104 -0.143009  0.316582  0.231273
  3H   1s         0.000000  0.029943  0.342322  0.009077  0.000000 -0.000000
  3H   2s         0.000000 -0.136134 -1.556360 -0.041266 -0.000000  0.000000
  3H   3s         0.000000  0.016225  0.185488  0.004918  0.000000 -0.000000
  3H   1pz       -0.219697 -0.153849  0.044018  0.167356  0.340610 -0.284210
  3H   1px        0.002798 -0.061848  0.046196 -0.218302  0.071514  0.072668
  3H   1py       -0.216899 -0.224805 -0.013911 -0.053707  0.412124 -0.211542
  4H   1s         0.000000  0.303996 -0.143552  0.071710 -0.000000 -0.000000
  4H   2s         0.000000 -1.382113  0.652658 -0.326027  0.000000  0.000000
  4H   3s        -0.000000  0.164721 -0.077784  0.038856 -0.000000 -0.000000
  4H   1pz        0.219697 -0.030462  0.117461  0.197205  0.388096  0.303941
  4H   1px       -0.002798  0.061539  0.119640 -0.188453  0.024027 -0.515483
  4H   1py       -0.216899 -0.123545 -0.193436 -0.030565 -0.412124  0.211542
                     24        25        26        27        28        29   
                   1.72826   2.18461   2.18461   2.18461   2.53112   2.63071
                   0.00000   0.00000   0.00000   0.00000   0.00000   0.00000
                  --------  --------  --------  --------  --------  --------
  0C   1s        -0.000000 -0.000000 -0.000000 -0.000000  0.061613 -0.000000
  0C   2s        -0.000000 -0.000000 -0.000000  0.000000  0.116372 -0.000000
  0C   1pz       -0.000000  0.248407  0.065423 -0.071308  0.000000 -0.000000
  0C   1px       -0.000000  0.095818 -0.193815  0.155968 -0.000000 -0.000000
  0C   1py        0.000000 -0.013567 -0.170958 -0.204109  0.000000 -0.000000
  0C   3s         0.000000  0.000000  0.000000  0.000000 -0.594778  0.000000
  0C   2pz       -0.000000 -0.505195 -0.133053  0.145022 -0.000000 -0.000000
  0C   2px       -0.000000 -0.194868  0.394169 -0.317197  0.000000  0.000000
  0C   2py        0.000000  0.027591  0.347684  0.415104  0.000000 -0.000000
  0C   4s         0.000000 -0.000000 -0.000000 -0.000000  0.876439  0.000000
  0C   3pz       -0.000000  0.665250  0.175207 -0.190968 -0.000000 -0.000000
  0C   3px       -0.000000  0.256605 -0.519049  0.417691  0.000000  0.000000
  0C   3py        0.000000 -0.036332 -0.457837 -0.546616  0.000000 -0.000000
  0C   1dz2       0.000000 -0.000000 -0.000000 -0.000000  0.000000 -1.120094
  0C   1dxz       0.000000  0.039522  0.498027  0.594599  0.000000 -0.000000
  0C   1dyz      -0.000000 -0.279131  0.564612 -0.454357  0.000000  0.000000
  0C   1dx2y2    -0.000000  0.000000 -0.000000 -0.000000  0.000000  0.575709
  0C   1dxy      -0.000000 -0.723647 -0.190587  0.207732 -0.000000 -0.000000
  1H   1s         0.000000 -0.152966 -0.396045  0.021328  0.708641  0.000000
  1H   2s        -0.000000  0.359358  0.930416 -0.050105 -0.873743 -0.000000
  1H   3s         0.000000 -0.286644 -0.742152  0.039967  0.169982  0.000000
  1H   1pz       -0.167926 -0.547035 -0.019162  0.164962 -0.145693  0.419456
  1H   1px       -0.510688 -0.285432  0.329663 -0.369700  0.145693  0.396437
  1H   1py        0.342763 -0.020899  0.274386  0.501101  0.145693  0.023019
  2H   1s        -0.000000  0.127987  0.081272 -0.397139  0.708641  0.000000
  2H   2s         0.000000 -0.300674 -0.190929  0.932986 -0.873743 -0.000000
  2H   3s        -0.000000  0.239835  0.152296 -0.744202  0.169982  0.000000
  2H   1pz        0.272777 -0.555805 -0.129682  0.033010  0.145693 -0.419456
  2H   1px       -0.069986 -0.276661  0.440183 -0.237749 -0.145693 -0.396437
  2H   1py       -0.342763  0.077747  0.441977  0.354173  0.145693  0.023019
  3H   1s         0.000000  0.329388  0.039187  0.265844  0.708641 -0.000000
  3H   2s        -0.000000 -0.773820 -0.092061 -0.624539 -0.873743  0.000000
  3H   3s         0.000000  0.617243  0.073433  0.498167  0.169982 -0.000000
  3H   1pz       -0.272777 -0.485091 -0.144459  0.265792  0.145693 -0.419456
  3H   1px        0.510688 -0.116071  0.482478 -0.283848  0.145693  0.396437
  3H   1py        0.237911 -0.082843  0.399683  0.400272 -0.145693 -0.023019
  4H   1s        -0.000000 -0.304409  0.275586  0.109967  0.708641 -0.000000
  4H   2s         0.000000  0.715137 -0.647426 -0.258342 -0.873743  0.000000
  4H   3s        -0.000000 -0.570434  0.516423  0.206068  0.169982 -0.000000
  4H   1pz        0.167926 -0.493862 -0.254979  0.133840 -0.145693  0.419456
  4H   1px        0.069986 -0.124842  0.371957 -0.415800 -0.145693 -0.396437
  4H   1py       -0.237911  0.139691  0.316680  0.455002 -0.145693 -0.023019
                     30        31        32        33        34        35   
                   2.63071   2.70058   2.70058   2.70058   2.91303   2.91303
                   0.00000   0.00000   0.00000   0.00000   0.00000   0.00000
                  --------  --------  --------  --------  --------  --------
  0C   1s         0.000000 -0.000000 -0.000000  0.000000 -0.000000  0.000000
  0C   2s         0.000000 -0.000000 -0.000000  0.000000 -0.000000  0.000000
  0C   1pz       -0.000000 -0.013231 -0.049117  0.052053 -0.673523 -0.526017
  0C   1px        0.000000  0.062306 -0.033951 -0.016198 -0.031187 -0.086320
  0C   1py        0.000000 -0.035213 -0.041617 -0.048220 -0.530829  0.672489
  0C   3s        -0.000000  0.000000 -0.000000 -0.000000  0.000000 -0.000000
  0C   2pz        0.000000 -0.313770 -1.164777  1.234410  0.180519  0.140984
  0C   2px        0.000000  1.477551 -0.805118 -0.384127  0.008359  0.023136
  0C   2py        0.000000 -0.835055 -0.986918 -1.143505  0.142274 -0.180242
  0C   4s        -0.000000  0.000000 -0.000000  0.000000  0.000000 -0.000000
  0C   3pz        0.000000 -0.106448 -0.395155  0.418778 -0.427506 -0.333879
  0C   3px        0.000000  0.501264 -0.273139 -0.130317 -0.019795 -0.054790
  0C   3py        0.000000 -0.283295 -0.334815 -0.387938 -0.336934  0.426849
  0C   1dz2      -0.575709  0.000000 -0.000000  0.000000  0.000000  0.000000
  0C   1dxz      -0.000000 -0.227033 -0.268321 -0.310893 -0.595772  0.754763
  0C   1dyz       0.000000  0.401713 -0.218893 -0.104436 -0.035002 -0.096881
  0C   1dx2y2    -1.120094 -0.000000 -0.000000  0.000000 -0.000000  0.000000
  0C   1dxy       0.000000 -0.085307 -0.316676  0.335608 -0.755924 -0.590371
  1H   1s         0.000000 -0.246951  0.161986  0.713283  0.053284  0.531455
  1H   2s        -0.000000  0.838563 -0.550051 -2.422071 -0.001712 -0.017076
  1H   3s         0.000000 -0.130549  0.085633  0.377072  0.046125  0.460058
  1H   1pz        0.215593 -0.273528  0.433471  0.729226 -0.180609 -0.353449
  1H   1px       -0.255463  0.057811 -0.068334 -0.886834  0.015811  0.210252
  1H   1py        0.471056  0.486473 -0.034635 -0.746077 -0.101032  0.387702
  2H   1s         0.000000  0.678248  0.347746 -0.122675 -0.560595  0.111239
  2H   2s         0.000000 -2.303104 -1.180831  0.416563  0.018013 -0.003574
  2H   3s         0.000000  0.358551  0.183833 -0.064851 -0.485283  0.096295
  2H   1pz       -0.215593 -0.852819 -0.251168 -0.064040 -0.400579 -0.074778
  2H   1px        0.255463  0.637101  0.616306 -0.093567  0.235780 -0.068419
  2H   1py        0.471056 -0.756194 -0.284136  0.376728 -0.367209  0.205497
  3H   1s        -0.000000 -0.516189  0.253849 -0.514885 -0.083088 -0.613951
  3H   2s         0.000000  1.752805 -0.861986  1.748379  0.002670  0.019727
  3H   3s        -0.000000 -0.272879  0.134195 -0.272190 -0.071926 -0.531471
  3H   1pz       -0.215593  0.751472 -0.125051  0.462751 -0.193533 -0.389219
  3H   1px       -0.255463  0.419434 -0.191717  0.762762 -0.043320 -0.286394
  3H   1py       -0.471056 -0.538526  0.523887 -0.479602 -0.088109  0.423472
  4H   1s         0.000000  0.084892 -0.763581 -0.075723  0.590399 -0.028743
  4H   2s        -0.000000 -0.288264  2.592868  0.257130 -0.018970  0.000924
  4H   3s         0.000000  0.044877 -0.403661 -0.040030  0.511083 -0.024882
  4H   1pz        0.215593  0.172181 -0.809691 -0.330515 -0.413502 -0.110548
  4H   1px        0.255463 -0.159856 -0.876357 -0.030505 -0.263289 -0.007723
  4H   1py       -0.471056  0.268806 -0.842659  0.110253 -0.380132  0.169727
                     36        37        38        39        40        41   
                   2.91303   3.19069   4.20553   4.20553   4.20553  25.17643
                   0.00000   0.00000   0.00000   0.00000   0.00000   0.00000
                  --------  --------  --------  --------  --------  --------
  0C   1s         0.000000  0.092582  0.000000  0.000000 -0.000000 -2.041345
  0C   2s         0.000000  0.264858  0.000000 -0.000000  0.000000  2.244535
  0C   1pz       -0.077836 -0.000000  1.037396  0.549482  0.094438  0.000000
  0C   1px        0.853207  0.000000 -0.553919  1.038463  0.042530 -0.000000
  0C   1py        0.048633 -0.000000 -0.063428 -0.081879  1.173164 -0.000000
  0C   3s        -0.000000 -1.945205 -0.000000  0.000000  0.000000 -0.766801
  0C   2pz        0.020862  0.000000 -3.041890 -1.611211 -0.276914 -0.000000
  0C   2px       -0.228678  0.000000  1.624220 -3.045018 -0.124709  0.000000
  0C   2py       -0.013035  0.000000  0.185985  0.240090 -3.439992  0.000000
  0C   4s         0.000000 -3.818825 -0.000000 -0.000000 -0.000000 -0.104654
  0C   3pz       -0.049405 -0.000000  0.140848  0.074604  0.012822  0.000000
  0C   3px        0.541557  0.000000 -0.075206  0.140993  0.005774 -0.000000
  0C   3py        0.030869 -0.000000 -0.008612 -0.011117  0.159282 -0.000000
  0C   1dz2      -0.000000 -0.000000  0.000000 -0.000000  0.000000 -0.000000
  0C   1dxz       0.054583 -0.000000  0.079947  0.103204 -1.478700  0.000000
  0C   1dyz       0.957591  0.000000  0.698180 -1.308919 -0.053607  0.000000
  0C   1dx2y2     0.000000  0.000000 -0.000000 -0.000000 -0.000000 -0.000000
  0C   1dxy      -0.087359  0.000000 -1.307574 -0.692588 -0.119033 -0.000000
  1H   1s         0.468136 -0.417842  0.717575 -0.176539 -0.486230 -0.012735
  1H   2s        -0.015042  1.931095  1.406241 -0.345965 -0.952871  0.256136
  1H   3s         0.405246  0.139681 -0.348942  0.085847  0.236444 -0.040882
  1H   1pz       -0.221186 -0.541670 -0.647382  0.303976  0.582056 -0.096492
  1H   1px        0.402508  0.541670  0.734324 -0.018423 -0.557426  0.096492
  1H   1py        0.214356  0.541670  0.822526 -0.219889 -0.354109  0.096492
  2H   1s        -0.421658 -0.417842 -0.662564  0.247552 -0.531249 -0.012735
  2H   2s         0.013548  1.931095 -1.298436  0.485131 -1.041096  0.256136
  2H   3s        -0.365011  0.139681  0.322192 -0.120380  0.258336 -0.040882
  2H   1pz       -0.201032  0.541670 -0.583452  0.386504 -0.600411  0.096492
  2H   1px        0.382355 -0.541670  0.670393 -0.100952  0.625041 -0.096492
  2H   1py       -0.171457  0.541670 -0.781408  0.272970 -0.406429  0.096492
  3H   1s         0.347270 -0.417842 -0.237164 -0.724115  0.449344 -0.012735
  3H   2s        -0.011158  1.931095 -0.464774 -1.419058  0.880584  0.256136
  3H   3s         0.300616  0.139681  0.115328  0.352123 -0.218507 -0.040882
  3H   1pz        0.132373  0.541670 -0.089071 -0.742722  0.539189  0.096492
  3H   1px        0.350101  0.541670 -0.375230 -0.654791  0.529854  0.096492
  3H   1py       -0.139202 -0.541670  0.264215  0.826809 -0.311242 -0.096492
  4H   1s        -0.393748 -0.417842  0.182154  0.653102  0.568135 -0.012735
  4H   2s         0.012652  1.931095  0.356969  1.279892  1.113382  0.256136
  4H   3s        -0.340851  0.139681 -0.088578 -0.317590 -0.276273 -0.040882
  4H   1pz        0.152526 -0.541670 -0.025140 -0.660194 -0.643278 -0.096492
  4H   1px        0.370254 -0.541670 -0.311299 -0.572263 -0.652612 -0.096492
  4H   1py        0.182102 -0.541670 -0.223096 -0.773728 -0.449296 -0.096492



                    ********************************
                    * MULLIKEN POPULATION ANALYSIS *
                    ********************************

--------------------------------------------
MULLIKEN ATOMIC CHARGES AND SPIN POPULATIONS
--------------------------------------------
   0 C :   -0.359561    0.000000
   1 H :    0.089890    0.000000
   2 H :    0.089890    0.000000
   3 H :    0.089890    0.000000
   4 H :    0.089890    0.000000
Sum of atomic charges         :   -0.0000000
Sum of atomic spin populations:    0.0000000

-----------------------------------------------------
MULLIKEN REDUCED ORBITAL CHARGES AND SPIN POPULATIONS
-----------------------------------------------------
CHARGE
  0 C s       :     3.182670  s :     3.182670
      pz      :     1.043766  p :     3.131298
      px      :     1.043766
      py      :     1.043766
      dz2     :     0.000000  d :     0.045592
      dxz     :     0.015197
      dyz     :     0.015197
      dx2y2   :     0.000000
      dxy     :     0.015197
  1 H s       :     0.884912  s :     0.884912
      pz      :     0.008399  p :     0.025198
      px      :     0.008399
      py      :     0.008399
  2 H s       :     0.884912  s :     0.884912
      pz      :     0.008399  p :     0.025198
      px      :     0.008399
      py      :     0.008399
  3 H s       :     0.884912  s :     0.884912
      pz      :     0.008399  p :     0.025198
      px      :     0.008399
      py      :     0.008399
  4 H s       :     0.884912  s :     0.884912
      pz      :     0.008399  p :     0.025198
      px      :     0.008399
      py      :     0.008399

SPIN
  0 C s       :     0.000000  s :     0.000000
      pz      :     0.000000  p :     0.000000
      px      :     0.000000
      py      :     0.000000
      dz2     :     0.000000  d :     0.000000
      dxz     :     0.000000
      dyz     :     0.000000
      dx2y2   :     0.000000
      dxy     :     0.000000
  1 H s       :     0.000000  s :     0.000000
      pz      :     0.000000  p :     0.000000
      px      :     0.000000
      py      :     0.000000
  2 H s       :     0.000000  s :     0.000000
      pz      :     0.000000  p :     0.000000
      px      :     0.000000
      py      :     0.000000
  3 H s       :     0.000000  s :     0.000000
      pz      :     0.000000  p :     0.000000
      px      :     0.000000
      py      :     0.000000
  4 H s       :     0.000000  s :     0.000000
      pz      :     0.000000  p :     0.000000
      px      :     0.000000
      py      :     0.000000


                     *******************************
                     * LOEWDIN POPULATION ANALYSIS *
                     *******************************

-------------------------------------------
LOEWDIN ATOMIC CHARGES AND SPIN POPULATIONS
-------------------------------------------
   0 C :   -0.010479    0.000000
   1 H :    0.002620    0.000000
[...]
    3. BD ( 1) C  1- H  3       0.98573
    4. BD ( 1) C  1- H  4       0.98573
    5. BD ( 1) C  1- H  5       0.98573
 ------ non-Lewis -----------------------
    6. BD*( 1) C  1- H  2       0.00686
    7. BD*( 1) C  1- H  3       0.00686
    8. BD*( 1) C  1- H  4       0.00686
    9. BD*( 1) C  1- H  5       0.00686
   10. RY ( 1) C  1             0.00353
   11. RY ( 2) C  1             0.00353
   12. RY ( 3) C  1             0.00353
   13. RY ( 4) C  1             0.00221
   14. RY ( 5) C  1             0.00221
   15. RY ( 6) C  1             0.00098
   16. RY ( 7) C  1             0.00074
   17. RY ( 8) C  1             0.00074
   18. RY ( 9) C  1             0.00074
   19. RY (10) C  1             0.00016
   20. RY (11) C  1             0.00013
   21. RY (12) C  1             0.00013
   22. RY (13) C  1             0.00013
   23. RY ( 1) H  2             0.00134
   24. RY ( 2) H  2             0.00057
   25. RY ( 3) H  2             0.00057
   26. RY ( 4) H  2             0.00022
   27. RY ( 5) H  2             0.00012
   28. RY ( 1) H  3             0.00134
   29. RY ( 2) H  3             0.00057
   30. RY ( 3) H  3             0.00057
   31. RY ( 4) H  3             0.00022
   32. RY ( 5) H  3             0.00012
   33. RY ( 1) H  4             0.00134
   34. RY ( 2) H  4             0.00057
   35. RY ( 3) H  4             0.00057
   36. RY ( 4) H  4             0.00022
   37. RY ( 5) H  4             0.00012
   38. RY ( 1) H  5             0.00134
   39. RY ( 2) H  5             0.00057
   40. RY ( 3) H  5             0.00057
   41. RY ( 4) H  5             0.00022
   42. RY ( 5) H  5             0.00012
          -------------------------------
                 Total Lewis    4.94250  ( 98.8500%)
           Valence non-Lewis    0.02742  (  0.5484%)
           Rydberg non-Lewis    0.03008  (  0.6015%)
          -------------------------------
               Total unit  1    5.00000  (100.0000%)
              Charge unit  1    0.00000

 $CHOOSE
  ALPHA
   BOND S 1 2 S 1 3 S 1 4 S 1 5 END
  END
  BETA
   BOND S 1 2 S 1 3 S 1 4 S 1 5 END
  END
 $END

 NBO analysis completed in 0.07 CPU seconds (1 wall second)
 Maximum scratch memory used by NBO was 281665 words (2.15 MB)
Stopping NBO...Storing NBOs: methane.pmp2re.nbo

                                *** returned from   NBO  program ***


----------------------------------
MP2 DERIVATIVE INTEGRAL GENERATION
----------------------------------


Input Wavefunction Amplitudes       ... methane.mp2tbb.tmp
Input Correlated Electron Density   ... methane.pmp2re
Input Energy Weighted Density       ... methane.wmp2.tmp
Input SCF Electron Density          ... methane.scfp

One-Electron Terms    ...
                        ... One-Electron Terms done
Prescreening matrices              ... done

Batch handling in the gradient evaluation:
Memory available                      ... 3000.0 MB
Memory per occupied orbital in Q2     ...    0.1 MB
Memory per occupied orbital in Q3     ...    0.0 MB
Total memory requirement per |i>      ...    0.1 MB
Max. Number of orbitals possible      ...  21038
Number of orbitals treated per batch  ...     10
Number of batches to be done          ...      1
Batch   0: i=    0 ...     9

---------------------------------------
MP2 TOTAL ENERGY:      -40.398042650 Eh
---------------------------------------

-----------------------------------
NORM OF THE MP2 GRADIENT:  0.000000
-----------------------------------

-------------------------   --------------------
FINAL SINGLE POINT ENERGY       -40.398042649528
-------------------------   --------------------

                                *** OPTIMIZATION RUN DONE ***

                            ***************************************
                            *     ORCA property calculations      *
                            ***************************************

                                    ---------------------
                                    Active property flags
                                    ---------------------
   (+) Dipole Moment


------------------------------------------------------------------------------
                       ORCA ELECTRIC PROPERTIES CALCULATION
------------------------------------------------------------------------------

Dipole Moment Calculation                       ... on
Quadrupole Moment Calculation                   ... off
Polarizability Calculation                      ... off
GBWName                                         ... methane.gbw
Electron density file                           ... methane.scfp
The origin for moment calculation is the CENTER OF MASS  = (-0.000000,  0.000000 -0.000000)

-------------
DIPOLE MOMENT
-------------
                                X             Y             Z
Electronic contribution:     -0.00000       0.00000      -0.00000
Nuclear contribution   :      0.00000      -0.00000       0.00000
                        -----------------------------------------
Total Dipole Moment    :      0.00000      -0.00000      -0.00000
                        -----------------------------------------
Magnitude (a.u.)       :      0.00000
Magnitude (Debye)      :      0.00000



--------------------
Rotational spectrum 
--------------------
 
Rotational constants in cm-1:     5.281182     5.281182     5.281182 
Rotational constants in MHz : 158325.840992 158325.840992 158325.840989 

 Dipole components along the rotational axes: 
x,y,z [a.u.] :     0.000000    -0.000000    -0.000000 
x,y,z [Debye]:     0.000000    -0.000000    -0.000000 

 

                         *** MP2 UNRELAXED DENSITY ***

------------------------------------------------------------------------------
                       ORCA ELECTRIC PROPERTIES CALCULATION
------------------------------------------------------------------------------

Dipole Moment Calculation                       ... on
Quadrupole Moment Calculation                   ... off
Polarizability Calculation                      ... off
GBWName                                         ... methane.gbw
Electron density file                           ... methane.pmp2ur
The origin for moment calculation is the CENTER OF MASS  = (-0.000000,  0.000000 -0.000000)

-------------
DIPOLE MOMENT
-------------
                                X             Y             Z
Electronic contribution:     -0.00000       0.00000      -0.00000
Nuclear contribution   :      0.00000      -0.00000       0.00000
                        -----------------------------------------
Total Dipole Moment    :      0.00000      -0.00000      -0.00000
                        -----------------------------------------
Magnitude (a.u.)       :      0.00000
Magnitude (Debye)      :      0.00000



--------------------
Rotational spectrum 
--------------------
 
Rotational constants in cm-1:     5.281182     5.281182     5.281182 
Rotational constants in MHz : 158325.840992 158325.840992 158325.840989 

 Dipole components along the rotational axes: 
x,y,z [a.u.] :     0.000000    -0.000000    -0.000000 
x,y,z [Debye]:     0.000000    -0.000000    -0.000000 

 

                           *** MP2 RELAXED DENSITY ***

------------------------------------------------------------------------------
                       ORCA ELECTRIC PROPERTIES CALCULATION
------------------------------------------------------------------------------

Dipole Moment Calculation                       ... on
Quadrupole Moment Calculation                   ... off
Polarizability Calculation                      ... off
GBWName                                         ... methane.gbw
Electron density file                           ... methane.pmp2re
The origin for moment calculation is the CENTER OF MASS  = (-0.000000,  0.000000 -0.000000)

-------------
DIPOLE MOMENT
-------------
                                X             Y             Z
Electronic contribution:     -0.00000       0.00000      -0.00000
Nuclear contribution   :      0.00000      -0.00000       0.00000
                        -----------------------------------------
Total Dipole Moment    :      0.00000      -0.00000      -0.00000
                        -----------------------------------------
Magnitude (a.u.)       :      0.00000
Magnitude (Debye)      :      0.00000



--------------------
Rotational spectrum 
--------------------
 
Rotational constants in cm-1:     5.281182     5.281182     5.281182 
Rotational constants in MHz : 158325.840992 158325.840992 158325.840989 

 Dipole components along the rotational axes: 
x,y,z [a.u.] :     0.000000    -0.000000    -0.000000 
x,y,z [Debye]:     0.000000    -0.000000    -0.000000 

 
------------------------------------------------------------------------------
                         ORCA MP2 H E S S I A N CALCULATION
------------------------------------------------------------------------------

Calculating analytic MP2 second derivatives ... (>methane.last_mp2) done

-----------------------
VIBRATIONAL FREQUENCIES
-----------------------

Scaling factor for frequencies =  1.000000000  (already applied!)

   0:         0.00 cm**-1
   1:         0.00 cm**-1
   2:         0.00 cm**-1
   3:         0.00 cm**-1
   4:         0.00 cm**-1
   5:         0.00 cm**-1
   6:      1362.84 cm**-1
   7:      1362.84 cm**-1
   8:      1362.84 cm**-1
   9:      1579.19 cm**-1
  10:      1579.19 cm**-1
  11:      3081.74 cm**-1
  12:      3219.97 cm**-1
  13:      3219.97 cm**-1
  14:      3219.97 cm**-1


------------
NORMAL MODES
------------

These modes are the Cartesian displacements weighted by the diagonal matrix
M(i,i)=1/sqrt(m[i]) where m[i] is the mass of the displaced atom
Thus, these vectors are normalized but *not* orthogonal

                  0          1          2          3          4          5    
      0       0.000000   0.000000   0.000000   0.000000   0.000000   0.000000
      1       0.000000   0.000000   0.000000   0.000000   0.000000   0.000000
      2       0.000000   0.000000   0.000000   0.000000   0.000000   0.000000
      3       0.000000   0.000000   0.000000   0.000000   0.000000   0.000000
      4       0.000000   0.000000   0.000000   0.000000   0.000000   0.000000
      5       0.000000   0.000000   0.000000   0.000000   0.000000   0.000000
      6       0.000000   0.000000   0.000000   0.000000   0.000000   0.000000
      7       0.000000   0.000000   0.000000   0.000000   0.000000   0.000000
      8       0.000000   0.000000   0.000000   0.000000   0.000000   0.000000
      9       0.000000   0.000000   0.000000   0.000000   0.000000   0.000000
     10       0.000000   0.000000   0.000000   0.000000   0.000000   0.000000
     11       0.000000   0.000000   0.000000   0.000000   0.000000   0.000000
     12       0.000000   0.000000   0.000000   0.000000   0.000000   0.000000
     13       0.000000   0.000000   0.000000   0.000000   0.000000   0.000000
     14       0.000000   0.000000   0.000000   0.000000   0.000000   0.000000
                  6          7          8          9         10         11    
      0       0.088510  -0.087680  -0.000119  -0.000000   0.000000  -0.000000
      1       0.087680   0.088510   0.000023  -0.000000  -0.000000   0.000000
      2       0.000068  -0.000100   0.124586   0.000000  -0.000000  -0.000000
      3      -0.099962   0.426758  -0.232390  -0.355696   0.200368   0.288675
      4      -0.095940  -0.427305  -0.233079   0.351372   0.207857   0.288675
      5      -0.329410  -0.001252  -0.370954  -0.004324   0.408225  -0.288675
      6      -0.427619   0.095999  -0.232477   0.355696  -0.200368  -0.288675
      7      -0.426443  -0.100022   0.232940   0.351372   0.207857   0.288675
      8      -0.001753   0.329506  -0.370867   0.004324  -0.408225   0.288675
      9      -0.427365   0.095625   0.233098  -0.355696   0.200368   0.288675
     10      -0.426698  -0.099648  -0.232635  -0.351372  -0.207857  -0.288675
     11       0.001348  -0.328909  -0.371398   0.004324  -0.408225   0.288675
     12      -0.099708   0.426383   0.233185   0.355696  -0.200368  -0.288675
     13      -0.095685  -0.427679   0.232496  -0.351372  -0.207857  -0.288675
     14       0.329005   0.001849  -0.371311  -0.004324   0.408225  -0.288675
                  12         13         14    
      0       0.065512   0.065244   0.000000
      1       0.065244  -0.065512   0.000015
      2      -0.000011   0.000010   0.092459
      3      -0.402131   0.013466   0.293211
      4      -0.402182  -0.011753   0.293214
      5       0.414764  -0.000880  -0.275378
      6       0.011751  -0.402114   0.293306
      7       0.013468   0.402063  -0.293303
      8       0.000882   0.414700  -0.275474
      9       0.011821  -0.402180  -0.293213
     10       0.013398   0.402129   0.293216
     11      -0.000817  -0.414762  -0.275381
     12      -0.402061   0.013400  -0.293309
     13      -0.402113  -0.011819  -0.293306
     14      -0.414699   0.000818  -0.275477


-----------
IR SPECTRUM
-----------

 Mode    freq (cm**-1)   T**2         TX         TY         TZ
-------------------------------------------------------------------
   6:      1362.84   14.364702  ( -2.692583  -2.667339  -0.002069)
   7:      1362.84   14.364702  (  2.667337  -2.692583   0.003046)
   8:      1362.84   14.364700  (  0.003614  -0.000708  -3.790077)
   9:      1579.19    0.000000  (  0.000000  -0.000000   0.000000)
  10:      1579.19    0.000000  ( -0.000000   0.000000  -0.000000)
  11:      3081.74    0.000000  ( -0.000000   0.000000  -0.000002)
  12:      3219.97   21.196970  (  3.262191   3.248858  -0.000547)
  13:      3219.97   21.196969  (  3.248858  -3.262191   0.000519)
  14:      3219.97   21.196964  (  0.000021   0.000753   4.604016)

The first frequency considered to be a vibration is 6
The total number of vibrations considered is 9


--------------------------
THERMOCHEMISTRY AT 298.15K
--------------------------

Temperature         ... 298.15 K
Pressure            ... 1.00 atm
Total Mass          ... 16.04 AMU

Throughout the following assumptions are being made:
  (1) The electronic state is orbitally nondegenerate
  (2) There are no thermally accessible electronically excited states
  (3) Hindered rotations indicated by low frequency modes are not
      treated as such but are treated as vibrations and this may
      cause some error
  (4) All equations used are the standard statistical mechanics
      equations for an ideal gas
  (5) All vibrations are strictly harmonic

freq.    1362.84  E(vib)   ...       0.01 
freq.    1362.84  E(vib)   ...       0.01 
freq.    1362.84  E(vib)   ...       0.01 
freq.    1579.19  E(vib)   ...       0.00 
freq.    1579.19  E(vib)   ...       0.00 
freq.    3081.74  E(vib)   ...       0.00 
freq.    3219.97  E(vib)   ...       0.00 
freq.    3219.97  E(vib)   ...       0.00 
freq.    3219.97  E(vib)   ...       0.00 

------------
INNER ENERGY
------------

The inner energy is: U= E(el) + E(ZPE) + E(vib) + E(rot) + E(trans)
    E(el)   - is the total energy from the electronic structure calculation
              = E(kin-el) + E(nuc-el) + E(el-el) + E(nuc-nuc)
    E(ZPE)  - the the zero temperature vibrational energy from the frequency calculation
    E(vib)  - the the finite temperature correction to E(ZPE) due to population
              of excited vibrational states
    E(rot)  - is the rotational thermal energy
    E(trans)- is the translational thermal energy

Summary of contributions to the inner energy U:
Electronic energy                ...    -40.39804265 Eh
Zero point energy                ...      0.04553722 Eh      28.57 kcal/mol
Thermal vibrational correction   ...      0.00003305 Eh       0.02 kcal/mol
Thermal rotational correction    ...      0.00141627 Eh       0.89 kcal/mol
Thermal translational correction ...      0.00141627 Eh       0.89 kcal/mol
-----------------------------------------------------------------------
Total thermal energy                    -40.34963983 Eh


Summary of corrections to the electronic energy:
(perhaps to be used in another calculation)
Total thermal correction                  0.00286560 Eh       1.80 kcal/mol
Non-thermal (ZPE) correction              0.04553722 Eh      28.57 kcal/mol
-----------------------------------------------------------------------
Total correction                          0.04840282 Eh      30.37 kcal/mol


--------
ENTHALPY
--------

The enthalpy is H = U + kB*T
                kB is Boltzmann's constant
Total free energy                 ...    -40.34963983 Eh 
Thermal Enthalpy correction       ...      0.00094421 Eh       0.59 kcal/mol
-----------------------------------------------------------------------
Total Enthalpy                    ...    -40.34869562 Eh


Note: Rotational entropy computed according to Herzberg 
Infrared and Raman Spectra, Chapter V,1, Van Nostrand Reinhold, 1945 
Point Group:  Td, Symmetry Number:  12  
Rotational constants in cm-1:     5.281182     5.281182     5.281182 

Vibrational entropy computed according to the QRRHO of S. Grimme
Chem.Eur.J. 2012 18 9955


-------
ENTROPY
-------

The entropy contributions are T*S = T*(S(el)+S(vib)+S(rot)+S(trans))
     S(el)   - electronic entropy
     S(vib)  - vibrational entropy
     S(rot)  - rotational entropy
     S(trans)- translational entropy
The entropies will be listed as mutliplied by the temperature to get
units of energy

Electronic entropy                ...      0.00000000 Eh      0.00 kcal/mol
Vibrational entropy               ...      0.00003794 Eh      0.02 kcal/mol
Rotational entropy                ...      0.00480772 Eh      3.02 kcal/mol
Translational entropy             ...      0.01627961 Eh     10.22 kcal/mol
-----------------------------------------------------------------------
Final entropy term                ...      0.02112527 Eh     13.26 kcal/mol

In case the symmetry of your molecule has not been determined correctly
or in case you have a reason to use a different symmetry number we print 
out the resulting rotational entropy values for sn=1,12 :
 --------------------------------------------------------
|  sn= 1 | S(rot)=       0.00715392 Eh      4.49 kcal/mol|
|  sn= 2 | S(rot)=       0.00649947 Eh      4.08 kcal/mol|
|  sn= 3 | S(rot)=       0.00611663 Eh      3.84 kcal/mol|
|  sn= 4 | S(rot)=       0.00584501 Eh      3.67 kcal/mol|
|  sn= 5 | S(rot)=       0.00563432 Eh      3.54 kcal/mol|
|  sn= 6 | S(rot)=       0.00546218 Eh      3.43 kcal/mol|
|  sn= 7 | S(rot)=       0.00531663 Eh      3.34 kcal/mol|
|  sn= 8 | S(rot)=       0.00519055 Eh      3.26 kcal/mol|
|  sn= 9 | S(rot)=       0.00507934 Eh      3.19 kcal/mol|
|  sn=10 | S(rot)=       0.00497987 Eh      3.12 kcal/mol|
|  sn=11 | S(rot)=       0.00488988 Eh      3.07 kcal/mol|
|  sn=12 | S(rot)=       0.00480772 Eh      3.02 kcal/mol|
 --------------------------------------------------------


-------------------
GIBBS FREE ENERGY
-------------------

The Gibbs free energy is G = H - T*S

Total enthalpy                    ...    -40.34869562 Eh 
Total entropy correction          ...     -0.02112527 Eh    -13.26 kcal/mol
-----------------------------------------------------------------------
Final Gibbs free energy         ...    -40.36982089 Eh

For completeness - the Gibbs free energy minus the electronic energy
G-E(el)                           ...      0.02822176 Eh     17.71 kcal/mol


Timings for individual modules:

Sum of individual times         ...       24.868 sec (=   0.414 min)
GTO integral calculation        ...        1.993 sec (=   0.033 min)   8.0 %
SCF iterations                  ...        6.102 sec (=   0.102 min)  24.5 %
MP2 module                      ...        5.870 sec (=   0.098 min)  23.6 %
Geometry relaxation             ...        0.049 sec (=   0.001 min)   0.2 %
Analytical frequency calculation...       10.854 sec (=   0.181 min)  43.6 %
                             ****ORCA TERMINATED NORMALLY****
TOTAL RUN TIME: 0 days 0 hours 0 minutes 25 seconds 425 msec
