
                                 *****************
                                 * O   R   C   A *
                                 *****************

           --- An Ab Initio, DFT and Semiempirical electronic structure package ---

                  #######################################################
                  #                        -***-                        #
                  #          Department of theory and spectroscopy      #
                  #               Directorship: Frank Neese             #
                  #        Max Planck Institute fuer Kohlenforschung    #
                  #                Kaiser Wilhelm Platz 1               #
                  #                 D-45470 Muelheim/Ruhr               #
                  #                      Germany                        #
                  #                                                     #
                  #                  All rights reserved                #
                  #                        -***-                        #
                  #######################################################


                         Program Version 4.2.1 -  RELEASE  -


 With contributions from (in alphabetic order):
   Daniel Aravena         : Magnetic Suceptibility
   Michael Atanasov       : Ab Initio Ligand Field Theory (pilot matlab implementation)
   Alexander A. Auer      : GIAO ZORA, VPT2
   Ute Becker             : Parallelization
   Giovanni Bistoni       : ED, misc. LED, open-shell LED, HFLD
   Martin Brehm           : Molecular dynamics
   Dmytro Bykov           : SCF Hessian
   Vijay G. Chilkuri      : MRCI spin determinant printing, contributions to CSF-ICE
   Dipayan Datta          : RHF DLPNO-CCSD density
   Achintya Kumar Dutta   : EOM-CC, STEOM-CC
   Dmitry Ganyushin       : Spin-Orbit,Spin-Spin,Magnetic field MRCI
   Miquel Garcia          : C-PCM Hessian, Gaussian charge scheme
   Yang Guo               : DLPNO-NEVPT2, CIM, IAO-localization
   Andreas Hansen         : Spin unrestricted coupled pair/coupled cluster methods
   Benjamin Helmich-Paris : CASSCF linear response (MC-RPA)
   Lee Huntington         : MR-EOM, pCC
   Robert Izsak           : Overlap fitted RIJCOSX, COSX-SCS-MP3, EOM
   Christian Kollmar      : KDIIS, OOCD, Brueckner-CCSD(T), CCSD density
   Simone Kossmann        : Meta GGA functionals, TD-DFT gradient, OOMP2, MP2 Hessian
   Martin Krupicka        : AUTO-CI
   Lucas Lang             : DCDCAS
   Dagmar Lenk            : GEPOL surface, SMD
   Dimitrios Liakos       : Extrapolation schemes; Compound Job, initial MDCI parallelization
   Dimitrios Manganas     : Further ROCIS development; embedding schemes
   Dimitrios Pantazis     : SARC Basis sets
   Taras Petrenko         : DFT Hessian,TD-DFT gradient, ASA, ECA, R-Raman, ABS, FL, XAS/XES, NRVS
   Peter Pinski           : DLPNO-MP2, DLPNO-MP2 Gradient
   Christoph Reimann      : Effective Core Potentials
   Marius Retegan         : Local ZFS, SOC
   Christoph Riplinger    : Optimizer, TS searches, QM/MM, DLPNO-CCSD(T), (RO)-DLPNO pert. Triples
   Tobias Risthaus        : Range-separated hybrids, TD-DFT gradient, RPA, STAB
   Michael Roemelt        : Original ROCIS implementation
   Masaaki Saitow         : Open-shell DLPNO-CCSD energy and density
   Barbara Sandhoefer     : DKH picture change effects
   Avijit Sen             : IP-ROCIS
   Kantharuban Sivalingam : CASSCF convergence, NEVPT2, FIC-MRCI
   Bernardo de Souza      : ESD, SOC TD-DFT
   Georgi Stoychev        : AutoAux, RI-MP2 NMR
   Willem Van den Heuvel  : Paramagnetic NMR
   Boris Wezisla          : Elementary symmetry handling
   Frank Wennmohs         : Technical directorship


 We gratefully acknowledge several colleagues who have allowed us to
 interface, adapt or use parts of their codes:
   Stefan Grimme, W. Hujo, H. Kruse,             : VdW corrections, initial TS optimization,
                  C. Bannwarth                     DFT functionals, gCP, sTDA/sTD-DF
   Ed Valeev, F. Pavosevic, A. Kumar             : LibInt (2-el integral package), F12 methods
   Garnet Chan, S. Sharma, J. Yang, R. Olivares  : DMRG
   Ulf Ekstrom                                   : XCFun DFT Library
   Mihaly Kallay                                 : mrcc  (arbitrary order and MRCC methods)
   Andreas Klamt, Michael Diedenhofen            : otool_cosmo (COSMO solvation model)
   Jiri Pittner, Ondrej Demel                    : Mk-CCSD
   Frank Weinhold                                : gennbo (NPA and NBO analysis)
   Christopher J. Cramer and Donald G. Truhlar   : smd solvation model
   Lars Goerigk                                  : TD-DFT with DH, B97 family of functionals
   V. Asgeirsson, H. Jonsson                     : NEB implementation
   FAccTs GmbH                                   : IRC, NEB, NEB-TS, Multilevel, MM, QM/MM, CI optimization
   S Lehtola, MJT Oliveira, MAL Marques          : LibXC Library


 Your calculation uses the libint2 library for the computation of 2-el integrals
 For citations please refer to: http://libint.valeyev.net

 Your ORCA version has been built with support for libXC version: 4.2.3
 For citations please refer to: https://tddft.org/programs/libxc/

 This ORCA versions uses:
   CBLAS   interface :  Fast vector & matrix operations
   LAPACKE interface :  Fast linear algebra routines
   SCALAPACK package :  Parallel linear algebra routines


----- Orbital basis set information -----
Your calculation utilizes the basis: 6-311G(d,p)
   H, Li - Ne  : R. Krishnan, J. S. Binkley, R. Seeger and J. A. Pople, J. Chem. Phys. 72, 650 (1980).
   Na - Ar     : A. D. McLean and G. S. Chandler J. Chem. Phys. 72, 5639, (1980).
   K  - Ca     : J.-P. Blaudeau, M. P. McGrath, L. A. Curtiss and L. Radom, J. Chem. Phys. 107, 5016 (1997).
   Ga - Kr     : L. A. Curtiss, M. P. McGrath, J.-P. Blandeau, N. E. Davis, R. C. Binning and L. Radom, J. Chem. Phys. 103, 6104 (1995).
   Pol./Diff.
   H, Li - Cl  : T. Clark, J. Chandrasekhar and P. v. R. Schleyer, J. Comp. Chem. 4, 294 (1983).
   H - Ne      : M. J. Frisch, J. A. Pople and J. S. Binkley, J. Chem. Phys. 80, 3265 (1984).

================================================================================
                                        WARNINGS
                       Please study these warnings very carefully!
================================================================================


WARNING: Geometry Optimization
  ===> : Switching off AutoStart
         For restart on a previous wavefunction, please use MOREAD

WARNING: Post HF methods need fully converged wavefunctions
  ===> : Setting SCFConvForced true
         You can overwrite this default with %scf ConvForced false 


INFO   : the flag for use of LIBINT has been found!

================================================================================
                                       INPUT FILE
================================================================================
NAME = products.inp
|  1> ! UHF MP2 6-311G(d,p) Opt Freq NoFrozenCore TightOpt TightSCF Grid4 FinalGrid5 PrintBasis PrintMOs NBO
|  2> %maxcore 3000
|  3> 
|  4> *xyz 0 2
|  5> C        0.000000000      0.000000000     -2.553686000
|  6> H       -0.539069000      0.933695000     -2.616996000
|  7> H        1.078139000      0.000000000     -2.616996000
|  8> H        0.000000000      0.000000000     -0.172281000
|  9> H       -0.539069000     -0.933695000     -2.616996000
| 10> Cl       0.000000000      0.000000000      1.107567000
| 11> *
| 12> 
| 13> %pal
| 14>  nprocs 12
| 15> end
| 16> 
| 17>                          ****END OF INPUT****
================================================================================

                       *****************************
                       * Geometry Optimization Run *
                       *****************************

Geometry optimization settings:
Update method            Update   .... BFGS
Choice of coordinates    CoordSys .... Z-matrix Internals
Initial Hessian          InHess   .... Almoef's Model

Convergence Tolerances:
Energy Change            TolE     ....  1.0000e-06 Eh
Max. Gradient            TolMAXG  ....  1.0000e-04 Eh/bohr
RMS Gradient             TolRMSG  ....  3.0000e-05 Eh/bohr
Max. Displacement        TolMAXD  ....  1.0000e-03 bohr
RMS Displacement         TolRMSD  ....  6.0000e-04 bohr
Strict Convergence                ....  False
------------------------------------------------------------------------------
                        ORCA OPTIMIZATION COORDINATE SETUP
------------------------------------------------------------------------------

The optimization will be done in new redundant internal coordinates
Making redundant internal coordinates   ...  (new redundants) done
Evaluating the initial hessian          ...  (Almloef) done
Evaluating the coordinates              ...  done
Calculating the B-matrix                .... done
Calculating the G-matrix                .... done
Diagonalizing the G-matrix              .... done
The first mode is                       ....   35
The number of degrees of freedom        ....   12

    -----------------------------------------------------------------
                    Redundant Internal Coordinates


    -----------------------------------------------------------------
         Definition                    Initial Value    Approx d2E/dq
    -----------------------------------------------------------------
      1. B(H   1,C   0)                  1.0800         0.373581   
      2. B(H   2,C   0)                  1.0800         0.373580   
      3. B(H   3,H   2)                  2.6719         0.000206   
      4. B(H   3,C   0)                  2.3814         0.003134   
      5. B(H   3,H   1)                  2.6719         0.000206   
      6. B(H   4,C   0)                  1.0800         0.373581   
      7. B(H   4,H   3)                  2.6719         0.000206   
      8. B(Cl  5,H   3)                  1.2798         0.402280   
      9. A(H   1,C   0,H   4)          119.6596         0.294226   
     10. A(H   1,C   0,H   2)          119.6596         0.294225   
     11. A(H   2,C   0,H   4)          119.6596         0.294225   
     12. A(H   1,C   0,H   3)           93.3606         0.158548   
     13. A(H   3,C   0,H   4)           93.3606         0.158548   
     14. A(H   2,C   0,H   3)           93.3606         0.158548   
     15. A(C   0,H   1,H   3)           62.8415         0.119044   
     16. A(C   0,H   2,H   3)           62.8415         0.119044   
     17. A(H   4,H   3,Cl  5)          156.2022         0.122005   
     18. A(H   1,H   3,H   2)           40.9075         0.093398   
     19. A(C   0,H   3,H   2)           23.7979         0.099182   
     20. A(H   2,H   3,Cl  5)          156.2021         0.122005   
     21. A(C   0,H   3,H   1)           23.7978         0.099182   
     22. A(H   1,H   3,H   4)           40.9074         0.093398   
     23. A(C   0,H   3,H   4)           23.7978         0.099182   
     24. A(H   1,H   3,Cl  5)          156.2022         0.122005   
     25. A(H   2,H   3,H   4)           40.9075         0.093398   
     26. A(C   0,H   4,H   3)           62.8415         0.119044   
     27. D(H   3,H   1,C   0,H   4)     95.7976         0.132868   
     28. D(H   3,H   1,C   0,H   2)    -95.7976         0.132868   
     29. D(H   3,H   2,C   0,H   4)    -95.7976         0.132867   
     30. D(H   3,H   2,C   0,H   1)     95.7976         0.132867   
     31. D(H   2,H   3,H   1,C   0)     32.2520         0.001501   
     32. D(H   2,H   3,C   0,H   1)   -120.0000         0.001506   
     33. D(H   1,H   3,C   0,H   4)   -120.0000         0.001506   
     34. D(H   4,H   3,C   0,H   2)   -120.0000         0.001506   
     35. D(H   4,H   3,C   0,H   1)    120.0000         0.001506   
     36. D(Cl  5,H   3,H   1,C   0)    180.0000         0.001501   
     37. D(H   2,H   3,C   0,H   4)    120.0000         0.001506   
     38. D(H   4,H   3,H   1,C   0)    -32.2520         0.001501   
     39. D(Cl  5,H   3,H   2,C   0)    180.0000         0.001501   
     40. D(H   1,H   3,H   2,C   0)    -32.2520         0.001501   
     41. D(H   4,H   3,H   2,C   0)     32.2520         0.001501   
     42. D(H   1,H   3,C   0,H   2)    120.0000         0.001506   
     43. D(C   0,H   4,H   3,H   2)    -32.2520         0.001501   
     44. D(C   0,H   4,H   3,H   1)     32.2520         0.001501   
     45. D(C   0,H   4,H   3,Cl  5)    180.0000         0.001501   
     46. D(H   3,H   4,C   0,H   2)     95.7976         0.132868   
     47. D(H   3,H   4,C   0,H   1)    -95.7976         0.132868   
    -----------------------------------------------------------------

Number of atoms                         .... 6
Number of degrees of freedom            .... 47

         *************************************************************
         *                GEOMETRY OPTIMIZATION CYCLE   1            *
         *************************************************************
---------------------------------
CARTESIAN COORDINATES (ANGSTROEM)
---------------------------------
  C      0.000000    0.000000   -2.553686
  H     -0.539069    0.933695   -2.616996
  H      1.078139    0.000000   -2.616996
  H      0.000000    0.000000   -0.172281
  H     -0.539069   -0.933695   -2.616996
  Cl     0.000000    0.000000    1.107567

----------------------------
CARTESIAN COORDINATES (A.U.)
----------------------------
  NO LB      ZA    FRAG     MASS         X           Y           Z
   0 C     6.0000    0    12.011    0.000000    0.000000   -4.825767
   1 H     1.0000    0     1.008   -1.018693    1.764428   -4.945406
   2 H     1.0000    0     1.008    2.037387    0.000000   -4.945406
   3 H     1.0000    0     1.008    0.000000    0.000000   -0.325564
   4 H     1.0000    0     1.008   -1.018693   -1.764428   -4.945406
   5 Cl   17.0000    0    35.453    0.000000    0.000000    2.092998

--------------------------------
INTERNAL COORDINATES (ANGSTROEM)
--------------------------------
 C      0   0   0     0.000000000000     0.00000000     0.00000000
 H      1   0   0     1.079995322159     0.00000000     0.00000000
 H      1   2   0     1.079996231207   119.65955613     0.00000000
 H      1   2   3     2.381405000000    93.36064098    95.79759211
 H      1   2   3     1.079995322159   119.65956402   191.59518842
 Cl     4   1   2     1.279848000000   179.99999915     0.00000000

---------------------------
INTERNAL COORDINATES (A.U.)
---------------------------
 C      0   0   0     0.000000000000     0.00000000     0.00000000
 H      1   0   0     2.040895384797     0.00000000     0.00000000
 H      1   2   0     2.040897102648   119.65955613     0.00000000
 H      1   2   3     4.500203263951    93.36064098    95.79759211
 H      1   2   3     2.040895384797   119.65956402   191.59518842
 Cl     4   1   2     2.418562213047   179.99999915     0.00000000

---------------------
BASIS SET INFORMATION
---------------------
There are 3 groups of distinct atoms

 Group   1 Type C   : 11s5p1d contracted to 4s3p1d pattern {6311/311/1}
 Group   2 Type H   : 5s1p contracted to 3s1p pattern {311/1}
 Group   3 Type Cl  : 13s10p1d contracted to 6s5p1d pattern {631111/52111/1}

Atom   0C    basis set group =>   1
Atom   1H    basis set group =>   2
Atom   2H    basis set group =>   2
Atom   3H    basis set group =>   2
Atom   4H    basis set group =>   2
Atom   5Cl   basis set group =>   3

-------------------------
BASIS SET IN INPUT FORMAT
-------------------------

 # Basis set for element : H 
 NewGTO H 
 S 3 
   1      33.8650000000      0.0254938145
   2       5.0947900000      0.1903731086
   3       1.1587900000      0.8521614860
 S 1 
   1       0.3258400000      1.0000000000
 S 1 
   1       0.1027410000      1.0000000000
 P 1 
   1       0.7500000000      1.0000000000
  end;

 # Basis set for element : C 
 NewGTO C 
 S 6 
   1    4563.2400000000      0.0019666502
   2     682.0240000000      0.0152306019
   3     154.9730000000      0.0761269097
   4      44.4553000000      0.2608010331
   5      13.0290000000      0.6164620782
   6       1.8277300000      0.2210060280
 S 3 
   1      20.9642000000      0.1146600807
   2       4.8033100000      0.9199996477
   3       1.4593300000     -0.0030306821
 P 3 
   1      20.9642000000      0.0402486927
   2       4.8033100000      0.2375939567
   3       1.4593300000      0.8158538515
 S 1 
   1       0.4834560000      1.0000000000
 P 1 
   1       0.4834560000      1.0000000000
 S 1 
   1       0.1455850000      1.0000000000
 P 1 
   1       0.1455850000      1.0000000000
 D 1 
   1       0.6260000000      1.0000000000
  end;

 # Basis set for element : Cl
 NewGTO Cl
 S 6 
   1  105819.0000000000      0.0007380002
   2   15872.0000000000      0.0057180019
   3    3619.6500000000      0.0294950099
   4    1030.8000000000      0.1172860392
   5     339.9080000000      0.3629491212
   6     124.5380000000      0.5841491951
 S 3 
   1     124.5380000000      0.1341769734
   2      49.5135000000      0.6242498762
   3      20.8056000000      0.2917559421
 S 1 
   1       6.5834600000      1.0000000000
 S 1 
   1       2.5646800000      1.0000000000
 S 1 
   1       0.5597630000      1.0000000000
 S 1 
   1       0.1832730000      1.0000000000
 P 5 
   1     589.7760000000      0.0023909997
   2     139.8490000000      0.0185039976
   3      45.1413000000      0.0813769893
   4      16.8733000000      0.2215519708
   5       6.7411000000      0.7725688983
 P 2 
   1       6.7411000000     -1.5722438126
   2       2.7715200000      0.9923888817
 P 1 
   1       1.0238700000      1.0000000000
 P 1 
   1       0.3813680000      1.0000000000
 P 1 
   1       0.1094370000      1.0000000000
 D 1 
   1       0.7500000000      1.0000000000
  end;



           ************************************************************
           *        Program running with 12 parallel MPI-processes    *
           *              working on a common directory               *
           ************************************************************
------------------------------------------------------------------------------
                           ORCA GTO INTEGRAL CALCULATION
------------------------------------------------------------------------------

                         BASIS SET STATISTICS AND STARTUP INFO

 # of primitive gaussian shells          ...   65
 # of primitive gaussian functions       ...  111
 # of contracted shells                  ...   36
 # of contracted basis functions         ...   68
 Highest angular momentum                ...    2
 Maximum contraction depth               ...    6
 Integral package used                   ... LIBINT
 Integral threshhold            Thresh   ...  2.500e-11
 Primitive cut-off              TCut     ...  2.500e-12


------------------------------ INTEGRAL EVALUATION ----------------------------


 * One electron integrals 
 Pre-screening matrix                    ... done
 Shell pair data                         ... done (   0.000 sec)



           ************************************************************
           *        Program running with 12 parallel MPI-processes    *
           *              working on a common directory               *
           ************************************************************
-------------------------------------------------------------------------------
                                 ORCA SCF
-------------------------------------------------------------------------------

------------
SCF SETTINGS
------------
Hamiltonian:
 Ab initio Hamiltonian  Method          .... Hartree-Fock(GTOs)


General Settings:
 Integral files         IntName         .... products
 Hartree-Fock type      HFTyp           .... UHF
 Total Charge           Charge          ....    0
 Multiplicity           Mult            ....    2
 Number of Electrons    NEL             ....   27
 Basis Dimension        Dim             ....   68
 Nuclear Repulsion      ENuc            ....     40.3289297573 Eh

Convergence Acceleration:
 DIIS                   CNVDIIS         .... on
   Start iteration      DIISMaxIt       ....    12
   Startup error        DIISStart       ....  0.200000
   # of expansion vecs  DIISMaxEq       ....     5
   Bias factor          DIISBfac        ....   1.050
   Max. coefficient     DIISMaxC        ....  10.000
 Newton-Raphson         CNVNR           .... off
 SOSCF                  CNVSOSCF        .... off
 Level Shifting         CNVShift        .... on
   Level shift para.    LevelShift      ....    0.2500
   Turn off err/grad.   ShiftErr        ....    0.0010
 Zerner damping         CNVZerner       .... off
 Static damping         CNVDamp         .... on
   Fraction old density DampFac         ....    0.7000
   Max. Damping (<1)    DampMax         ....    0.9800
   Min. Damping (>=0)   DampMin         ....    0.0000
   Turn off err/grad.   DampErr         ....    0.1000
 Fernandez-Rico         CNVRico         .... off

SCF Procedure:
 Maximum # iterations   MaxIter         ....   125
 SCF integral mode      SCFMode         .... Direct
   Integral package                     .... LIBINT
 Reset frequency        DirectResetFreq ....    20
 Integral Threshold     Thresh          ....  2.500e-11 Eh
 Primitive CutOff       TCut            ....  2.500e-12 Eh

Convergence Tolerance:
 Convergence Check Mode ConvCheckMode   .... Total+1el-Energy
 Convergence forced     ConvForced      .... 1
 Energy Change          TolE            ....  1.000e-08 Eh
 1-El. energy change                    ....  1.000e-05 Eh
 DIIS Error             TolErr          ....  5.000e-07


Diagonalization of the overlap matrix:
Smallest eigenvalue                        ... 1.694e-02
Time for diagonalization                   ...    0.002 sec
Threshold for overlap eigenvalues          ... 1.000e-08
Number of eigenvalues below threshold      ... 0
Time for construction of square roots      ...    0.001 sec
Total time needed                          ...    0.003 sec

-------------------
DFT GRID GENERATION
-------------------

General Integration Accuracy     IntAcc      ...  4.670
Radial Grid Type                 RadialGrid  ... Gauss-Chebyshev
Angular Grid (max. acc.)         AngularGrid ... Lebedev-302
Angular grid pruning method      GridPruning ... 3 (G Style)
Weight generation scheme         WeightScheme... Becke
Basis function cutoff            BFCut       ...    1.0000e-11
Integration weight cutoff        WCut        ...    1.0000e-14
Grids for H and He will be reduced by one unit

# of grid points (after initial pruning)     ...  26526 (   0.0 sec)
# of grid points (after weights+screening)   ...  25861 (   0.0 sec)
nearest neighbour list constructed           ...    0.0 sec
Grid point re-assignment to atoms done       ...    0.0 sec
Grid point division into batches done        ...    0.1 sec
Reduced shell lists constructed in    0.1 sec

Total number of grid points                  ...    25861
Total number of batches                      ...      408
Average number of points per batch           ...       63
Average number of grid points per atom       ...     4310
Average number of shells per batch           ...    27.31 (75.87%)
Average number of basis functions per batch  ...    50.91 (74.87%)
Average number of large shells per batch     ...    24.83 (90.90%)
Average number of large basis fcns per batch ...    45.00 (88.38%)
Maximum spatial batch extension              ...   2.11,  2.57, 11.81 au
Average spatial batch extension              ...   0.09,  0.09,  0.12 au

Time for grid setup =    0.176 sec

------------------------------
INITIAL GUESS: MODEL POTENTIAL
------------------------------
Loading Hartree-Fock densities                     ... done
Calculating cut-offs                               ... done
Setting up the integral package                    ... done
Initializing the effective Hamiltonian             ... done
Starting the Coulomb interaction                   ... done (   0.0 sec)
Reading the grid                                   ... done
Mapping shells                                     ... done
Starting the XC term evaluation                    ... done (   0.0 sec)
Transforming the Hamiltonian                       ... done (   0.0 sec)
Diagonalizing the Hamiltonian                      ... done (   0.0 sec)
Back transforming the eigenvectors                 ... done (   0.0 sec)
Now organizing SCF variables                       ... done
                      ------------------
                      INITIAL GUESS DONE (   0.3 sec)
                      ------------------
--------------
SCF ITERATIONS
--------------
ITER       Energy         Delta-E        Max-DP      RMS-DP      [F,P]     Damp
               ***  Starting incremental Fock matrix formation  ***
  0   -499.5860940225   0.000000000000 0.02512903  0.00073408  0.6474300 0.7000
  1   -499.6123986388  -0.026304616302 0.01841876  0.00057110  0.4557594 0.7000
  2   -499.6297112622  -0.017312623355 0.01162973  0.00038549  0.3207526 0.7000
  3   -499.6412549157  -0.011543653529 0.00715120  0.00025896  0.2256826 0.7000
                               ***Turning on DIIS***
  4   -499.6492039866  -0.007949070928 0.00443470  0.00018085  0.1587420 0.7000
  5   -499.7409338822  -0.091729895568 0.00300299  0.00014331  0.1116272 0.7000
  6   -499.7267509699   0.014182912233 0.00895631  0.00040612  0.0782452 0.0000
  7   -499.6702165989   0.056534371051 0.00207355  0.00008652  0.0025686 0.0000
  8   -499.6700272052   0.000189393729 0.00215472  0.00008510  0.0019632 0.0000
  9   -499.6689242612   0.001102943923 0.00162314  0.00006576  0.0009750 0.0000
 10   -499.6688465740   0.000077687274 0.00052738  0.00002221  0.0002754 0.0000
 11   -499.6686296537   0.000216920281 0.00014985  0.00000565  0.0000572 0.0000
 12   -499.6686265250   0.000003128668 0.00007165  0.00000248  0.0000157 0.0000
 13   -499.6686139916   0.000012533430 0.00004219  0.00000151  0.0000065 0.0000
 14   -499.6686127809   0.000001210728 0.00002780  0.00000102  0.0000029 0.0000
 15   -499.6686134660  -0.000000685091 0.00000372  0.00000017  0.0000010 0.0000
                            ***DIIS convergence achieved***

               *****************************************************
               *                     SUCCESS                       *
               *           SCF CONVERGED AFTER  16 CYCLES          *
               *****************************************************


----------------
TOTAL SCF ENERGY
----------------

Total Energy       :         -499.66861351 Eh          -13596.67422 eV

Components:
Nuclear Repulsion  :           40.32892976 Eh            1097.40597 eV
Electronic Energy  :         -539.99754326 Eh          -14694.08018 eV
One Electron Energy:         -768.52253827 Eh          -20912.56144 eV
Two Electron Energy:          228.52499500 Eh            6218.48126 eV

Virial components:
Potential Energy   :         -999.32579462 Eh          -27193.03734 eV
Kinetic Energy     :          499.65718111 Eh           13596.36312 eV
Virial Ratio       :            2.00002288


---------------
SCF CONVERGENCE
---------------

  Last Energy change         ...   -4.1216e-08  Tolerance :   1.0000e-08
  Last MAX-Density change    ...    1.1331e-06  Tolerance :   1.0000e-07
  Last RMS-Density change    ...    4.7352e-08  Tolerance :   5.0000e-09
  Last DIIS Error            ...    5.1508e-07  Tolerance :   5.0000e-07

             **** THE GBW FILE WAS UPDATED (products.gbw) ****
             **** DENSITY FILE WAS UPDATED (products.scfp) ****
             **** ENERGY FILE WAS UPDATED (products.en.tmp) ****
----------------------
UHF SPIN CONTAMINATION
----------------------

Expectation value of <S**2>     :     0.760986
Ideal value S*(S+1) for S=0.5   :     0.750000
Deviation                       :     0.010986

             **** THE GBW FILE WAS UPDATED (products.gbw) ****
             **** DENSITY FILE WAS UPDATED (products.scfp) ****
----------------
ORBITAL ENERGIES
----------------
                 SPIN UP ORBITALS
  NO   OCC          E(Eh)            E(eV) 
   0   1.0000    -104.839977     -2852.8408 
   1   1.0000     -11.256024      -306.2920 
   2   1.0000     -10.566820      -287.5378 
   3   1.0000      -8.035835      -218.6662 
   4   1.0000      -8.032105      -218.5647 
   5   1.0000      -8.032105      -218.5647 
   6   1.0000      -1.112507       -30.2729 
   7   1.0000      -0.970653       -26.4128 
   8   1.0000      -0.623233       -16.9590 
   9   1.0000      -0.601290       -16.3619 
  10   1.0000      -0.601289       -16.3619 
  11   1.0000      -0.469378       -12.7724 
  12   1.0000      -0.469378       -12.7724 
  13   1.0000      -0.408376       -11.1125 
  14   0.0000       0.140062         3.8113 
  15   0.0000       0.191646         5.2150 
  16   0.0000       0.214489         5.8366 
  17   0.0000       0.214490         5.8366 
  18   0.0000       0.347389         9.4529 
  19   0.0000       0.402891        10.9632 
  20   0.0000       0.402891        10.9632 
  21   0.0000       0.420936        11.4542 
  22   0.0000       0.452996        12.3266 
  23   0.0000       0.452996        12.3266 
  24   0.0000       0.511730        13.9249 
  25   0.0000       0.718179        19.5426 
  26   0.0000       0.791677        21.5426 
  27   0.0000       0.791677        21.5426 
  28   0.0000       0.873719        23.7751 
  29   0.0000       1.003982        27.3197 
  30   0.0000       1.003982        27.3197 
  31   0.0000       1.090901        29.6849 
  32   0.0000       1.145636        31.1743 
  33   0.0000       1.145636        31.1743 
  34   0.0000       1.248938        33.9853 
  35   0.0000       1.248938        33.9853 
  36   0.0000       1.358495        36.9665 
  37   0.0000       1.609862        43.8066 
  38   0.0000       1.609862        43.8066 
  39   0.0000       1.643440        44.7203 
  40   0.0000       1.706262        46.4298 
  41   0.0000       1.775627        48.3173 
  42   0.0000       1.775627        48.3173 
  43   0.0000       1.946417        52.9647 
  44   0.0000       2.105373        57.2901 
  45   0.0000       2.105373        57.2901 
  46   0.0000       2.237654        60.8897 
  47   0.0000       2.237654        60.8897 
  48   0.0000       2.381640        64.8077 
  49   0.0000       2.478294        67.4378 
  50   0.0000       2.478294        67.4378 
  51   0.0000       2.605380        70.8960 
  52   0.0000       2.665218        72.5243 
  53   0.0000       2.708390        73.6991 
  54   0.0000       2.708391        73.6991 
  55   0.0000       2.721545        74.0570 
  56   0.0000       2.954965        80.4087 
  57   0.0000       2.954965        80.4087 
  58   0.0000       3.016843        82.0925 
  59   0.0000       3.189917        86.8020 
  60   0.0000       4.099658       111.5574 
  61   0.0000       4.099659       111.5574 
  62   0.0000      10.391540       282.7682 
  63   0.0000      25.036328       681.2731 
  64   0.0000      26.241230       714.0602 
  65   0.0000      26.241230       714.0602 
  66   0.0000      26.506243       721.2716 
  67   0.0000     219.230219      5965.5575 

                 SPIN DOWN ORBITALS
  NO   OCC          E(Eh)            E(eV) 
   0   1.0000    -104.839634     -2852.8315 
   1   1.0000     -11.232896      -305.6626 
   2   1.0000     -10.566457      -287.5279 
   3   1.0000      -8.034410      -218.6274 
   4   1.0000      -8.031912      -218.5594 
   5   1.0000      -8.031912      -218.5594 
   6   1.0000      -1.109464       -30.1901 
   7   1.0000      -0.879696       -23.9377 
   8   1.0000      -0.616918       -16.7872 
   9   1.0000      -0.586364       -15.9558 
  10   1.0000      -0.586363       -15.9558 
  11   1.0000      -0.468777       -12.7561 
  12   1.0000      -0.468777       -12.7561 
  13   0.0000       0.081098         2.2068 
  14   0.0000       0.155997         4.2449 
  15   0.0000       0.219638         5.9767 
  16   0.0000       0.219638         5.9767 
  17   0.0000       0.230731         6.2785 
  18   0.0000       0.352969         9.6048 
  19   0.0000       0.406001        11.0479 
  20   0.0000       0.406001        11.0479 
  21   0.0000       0.434899        11.8342 
  22   0.0000       0.454889        12.3782 
  23   0.0000       0.454889        12.3782 
  24   0.0000       0.579650        15.7731 
  25   0.0000       0.793822        21.6010 
  26   0.0000       0.808262        21.9939 
  27   0.0000       0.808263        21.9939 
  28   0.0000       0.909432        24.7469 
  29   0.0000       1.005773        27.3685 
  30   0.0000       1.005773        27.3685 
  31   0.0000       1.094158        29.7736 
  32   0.0000       1.145900        31.1815 
  33   0.0000       1.145900        31.1815 
  34   0.0000       1.308393        35.6032 
  35   0.0000       1.308393        35.6032 
  36   0.0000       1.364413        37.1276 
  37   0.0000       1.615469        43.9591 
  38   0.0000       1.615469        43.9591 
  39   0.0000       1.638834        44.5950 
  40   0.0000       1.776190        48.3326 
  41   0.0000       1.776190        48.3326 
  42   0.0000       1.783739        48.5380 
  43   0.0000       1.963829        53.4385 
  44   0.0000       2.110802        57.4378 
  45   0.0000       2.110803        57.4379 
  46   0.0000       2.269160        61.7470 
  47   0.0000       2.269161        61.7470 
  48   0.0000       2.383744        64.8650 
  49   0.0000       2.478674        67.4481 
  50   0.0000       2.478674        67.4481 
  51   0.0000       2.607097        70.9427 
  52   0.0000       2.668452        72.6123 
  53   0.0000       2.710972        73.7693 
  54   0.0000       2.710973        73.7693 
  55   0.0000       2.723274        74.1041 
  56   0.0000       2.964371        80.6646 
  57   0.0000       2.964371        80.6646 
  58   0.0000       3.058535        83.2270 
  59   0.0000       3.235112        88.0319 
  60   0.0000       4.120025       112.1116 
  61   0.0000       4.120026       112.1116 
  62   0.0000      10.392085       282.7830 
  63   0.0000      25.052024       681.7002 
  64   0.0000      26.241389       714.0645 
  65   0.0000      26.241389       714.0645 
  66   0.0000      26.506951       721.2908 
  67   0.0000     219.230410      5965.5627 
------------------
MOLECULAR ORBITALS
------------------
                      0         1         2         3         4         5   
                 -104.83998 -11.25602 -10.56682  -8.03583  -8.03210  -8.03210
                   1.00000   1.00000   1.00000   1.00000   1.00000   1.00000
                  --------  --------  --------  --------  --------  --------
  0C   1s         0.000000 -0.562938  0.000001 -0.000000  0.000000 -0.000000
  0C   2s        -0.000000 -0.466450  0.000003  0.000002 -0.000000  0.000000
  0C   1pz       -0.000001  0.000024  0.000125 -0.000025  0.000000 -0.000000
  0C   1px       -0.000000 -0.000000  0.000000 -0.000000  0.000000 -0.000003
  0C   1py        0.000000  0.000000 -0.000000 -0.000000  0.000003  0.000000
  0C   3s         0.000003 -0.005904 -0.000263  0.000022  0.000000 -0.000000
  0C   2pz        0.000005 -0.000053 -0.000525  0.000097 -0.000000  0.000000
  0C   2px        0.000000  0.000000 -0.000000  0.000000 -0.000000  0.000025
  0C   2py       -0.000000 -0.000000  0.000000 -0.000000 -0.000025 -0.000000
  0C   4s        -0.000020  0.001033  0.002138 -0.000346  0.000000 -0.000000
  0C   3pz       -0.000016  0.000048  0.001656 -0.000210  0.000000 -0.000000
  0C   3px        0.000000 -0.000000 -0.000000  0.000000 -0.000000  0.000034
  0C   3py        0.000000 -0.000000  0.000000  0.000000 -0.000034 -0.000000
  0C   1dz2       0.000001 -0.000305 -0.000122  0.000038 -0.000000  0.000000
  0C   1dxz      -0.000000 -0.000000  0.000000  0.000000 -0.000000  0.000001
  0C   1dyz      -0.000000  0.000000  0.000000  0.000000 -0.000001 -0.000000
  0C   1dx2y2     0.000000  0.000000 -0.000000  0.000000 -0.000000  0.000016
  0C   1dxy      -0.000000  0.000000 -0.000000 -0.000000  0.000016  0.000000
  1H   1s        -0.000001 -0.000380  0.000141 -0.000029 -0.000008 -0.000005
  1H   2s         0.000009  0.000163 -0.000975  0.000188  0.000067  0.000039
  1H   3s        -0.000005 -0.000314  0.000469 -0.000041 -0.000055 -0.000032
  1H   1pz        0.000000  0.000009 -0.000074  0.000022 -0.000001 -0.000001
  1H   1px        0.000001  0.000069 -0.000078  0.000019  0.000008 -0.000002
  1H   1py       -0.000001 -0.000120  0.000135 -0.000033 -0.000008 -0.000008
  2H   1s        -0.000001 -0.000380  0.000141 -0.000029 -0.000000  0.000009
  2H   2s         0.000009  0.000163 -0.000975  0.000188  0.000000 -0.000078
  2H   3s        -0.000005 -0.000314  0.000469 -0.000041 -0.000000  0.000063
  2H   1pz        0.000000  0.000009 -0.000074  0.000022 -0.000000  0.000001
  2H   1px       -0.000001 -0.000138  0.000156 -0.000038 -0.000000  0.000013
  2H   1py        0.000000  0.000000 -0.000000  0.000000  0.000007  0.000000
  3H   1s        -0.000001  0.000022 -0.000347  0.000400  0.000000 -0.000000
  3H   2s        -0.000037 -0.000074  0.001992  0.000208  0.000000  0.000000
  3H   3s         0.000085 -0.000128 -0.006941 -0.000086 -0.000000  0.000000
  3H   1pz       -0.000023  0.000029  0.001288 -0.000022  0.000000 -0.000000
  3H   1px       -0.000000 -0.000000  0.000000 -0.000000  0.000000 -0.000033
  3H   1py        0.000000 -0.000000 -0.000000 -0.000000  0.000033  0.000000
  4H   1s        -0.000001 -0.000380  0.000141 -0.000029  0.000008 -0.000005
  4H   2s         0.000009  0.000163 -0.000975  0.000188 -0.000067  0.000039
  4H   3s        -0.000005 -0.000314  0.000469 -0.000041  0.000055 -0.000032
  4H   1pz        0.000000  0.000009 -0.000074  0.000022  0.000001 -0.000001
  4H   1px        0.000001  0.000069 -0.000078  0.000019 -0.000008 -0.000002
  4H   1py        0.000001  0.000120 -0.000135  0.000033 -0.000008  0.000008
  5Cl  1s         0.411732 -0.000000  0.121938  0.000648  0.000000  0.000000
  5Cl  2s         0.654662  0.000001  0.331508  0.001802  0.000000  0.000000
  5Cl  3s         0.012089 -0.000010 -0.512024 -0.003375 -0.000000 -0.000000
  5Cl  4s        -0.000913  0.000026 -0.605176 -0.002692 -0.000000 -0.000000
  5Cl  5s         0.000221 -0.000071 -0.043678  0.000723 -0.000000  0.000000
  5Cl  6s        -0.000142  0.000155  0.012393 -0.000068  0.000000 -0.000000
  5Cl  1pz       -0.000157 -0.000007  0.005515 -1.230174 -0.000000  0.000000
  5Cl  1px       -0.000000  0.000000  0.000000 -0.000000  0.000405 -1.231330
  5Cl  1py       -0.000000  0.000000 -0.000000 -0.000000  1.231330  0.000405
  5Cl  2pz       -0.000101 -0.000008  0.001460 -0.327112 -0.000000  0.000000
  5Cl  2px       -0.000000  0.000000  0.000000 -0.000000  0.000108 -0.327299
  5Cl  2py       -0.000000  0.000000 -0.000000 -0.000000  0.327299  0.000108
  5Cl  3pz        0.000101  0.000019  0.000552 -0.051487 -0.000000  0.000000
  5Cl  3px        0.000000 -0.000000  0.000000 -0.000000  0.000016 -0.049252
  5Cl  3py       -0.000000 -0.000000 -0.000000 -0.000000  0.049252  0.000016
  5Cl  4pz       -0.000081 -0.000043  0.001622  0.002882  0.000000 -0.000000
  5Cl  4px       -0.000000  0.000000 -0.000000  0.000000 -0.000001  0.002187
  5Cl  4py        0.000000  0.000000  0.000000  0.000000 -0.002187 -0.000001
  5Cl  5pz        0.000051 -0.000053 -0.002968 -0.000937 -0.000000  0.000000
  5Cl  5px        0.000000 -0.000000  0.000000 -0.000000  0.000000 -0.000689
  5Cl  5py       -0.000000 -0.000000 -0.000000 -0.000000  0.000689  0.000000
  5Cl  1dz2       0.000016  0.000007 -0.000852  0.000499  0.000000 -0.000000
  5Cl  1dxz       0.000000 -0.000000 -0.000000  0.000000 -0.000000  0.000304
  5Cl  1dyz      -0.000000 -0.000000 -0.000000 -0.000000 -0.000304 -0.000000
  5Cl  1dx2y2    -0.000000 -0.000000  0.000000 -0.000000  0.000000 -0.000000
  5Cl  1dxy      -0.000000  0.000000  0.000000 -0.000000 -0.000000 -0.000000
                      6         7         8         9        10        11   
                  -1.11251  -0.97065  -0.62323  -0.60129  -0.60129  -0.46938
                   1.00000   1.00000   1.00000   1.00000   1.00000   1.00000
                  --------  --------  --------  --------  --------  --------
  0C   1s         0.003252 -0.108044 -0.005042 -0.000000 -0.000000  0.000000
  0C   2s         0.005393 -0.179457 -0.008452 -0.000000 -0.000000  0.000000
  0C   1pz       -0.002227 -0.001889 -0.027934  0.000000  0.000000 -0.000000
  0C   1px        0.000000 -0.000000 -0.000000 -0.000000  0.198306 -0.000000
  0C   1py       -0.000000 -0.000000 -0.000000  0.198306  0.000000 -0.004567
  0C   3s        -0.012733  0.460530  0.022579  0.000000  0.000000 -0.000000
  0C   2pz       -0.001784  0.002138 -0.051703 -0.000000  0.000000 -0.000000
  0C   2px        0.000000 -0.000000 -0.000000 -0.000000  0.316456 -0.000000
  0C   2py        0.000000  0.000000 -0.000000  0.316456  0.000000 -0.006632
  0C   4s        -0.016168  0.361858  0.017112  0.000000  0.000000  0.000000
  0C   3pz       -0.009490  0.002219 -0.040371  0.000000  0.000000 -0.000000
  0C   3px        0.000000 -0.000000 -0.000000 -0.000000  0.201190 -0.000000
  0C   3py        0.000000 -0.000000 -0.000000  0.201190  0.000000 -0.003669
  0C   1dz2      -0.000399  0.005937 -0.004125 -0.000000  0.000000  0.000000
  0C   1dxz      -0.000000  0.000000  0.000000  0.000000 -0.002362  0.000000
  0C   1dyz      -0.000000 -0.000000  0.000000 -0.002362 -0.000000  0.000597
  0C   1dx2y2     0.000000 -0.000000 -0.000000 -0.000000  0.030931 -0.000000
  0C   1dxy      -0.000000 -0.000000 -0.000000 -0.030931 -0.000000  0.000414
  1H   1s        -0.002748  0.087888  0.006660  0.139326 -0.080440 -0.003065
  1H   2s         0.000690  0.102890  0.007079  0.208287 -0.120254 -0.006346
  1H   3s        -0.002888 -0.004038  0.002564  0.066917 -0.038634 -0.000039
  1H   1pz       -0.000003  0.000489 -0.002369  0.001154 -0.000666  0.000209
  1H   1px       -0.000147  0.009975  0.000295  0.012264  0.002963 -0.000418
  1H   1py        0.000255 -0.017276 -0.000511 -0.011198  0.012264  0.000461
  2H   1s        -0.002748  0.087888  0.006660 -0.000000  0.160880 -0.000000
  2H   2s         0.000690  0.102890  0.007079 -0.000000  0.240509 -0.000000
  2H   3s        -0.002888 -0.004038  0.002564 -0.000000  0.077269 -0.000000
  2H   1pz       -0.000003  0.000489 -0.002369 -0.000000  0.001332  0.000000
  2H   1px        0.000295 -0.019949 -0.000590  0.000000 -0.018279  0.000000
  2H   1py        0.000000  0.000000  0.000000  0.010044  0.000000 -0.000264
  3H   1s        -0.086498  0.002565 -0.148845 -0.000000 -0.000000  0.000000
  3H   2s        -0.115702  0.006107 -0.307159 -0.000000 -0.000000  0.000000
  3H   3s         0.024241  0.009449 -0.042697 -0.000000 -0.000000 -0.000000
  3H   1pz       -0.029478 -0.001940 -0.034236 -0.000000 -0.000000  0.000000
  3H   1px        0.000000 -0.000000 -0.000000 -0.000000  0.001493  0.000000
  3H   1py       -0.000000  0.000000 -0.000000  0.001493  0.000000  0.024050
  4H   1s        -0.002748  0.087888  0.006660 -0.139326 -0.080440  0.003065
  4H   2s         0.000690  0.102890  0.007079 -0.208287 -0.120254  0.006346
  4H   3s        -0.002888 -0.004038  0.002564 -0.066917 -0.038634  0.000039
  4H   1pz       -0.000003  0.000489 -0.002369 -0.001154 -0.000666 -0.000209
  4H   1px       -0.000147  0.009975  0.000295 -0.012264  0.002963  0.000418
  4H   1py       -0.000255  0.017276  0.000511 -0.011198 -0.012264  0.000461
  5Cl  1s        -0.034688 -0.001735  0.010388  0.000000  0.000000  0.000000
  5Cl  2s        -0.100397 -0.005046  0.030353  0.000000  0.000000  0.000000
  5Cl  3s         0.198563  0.010186 -0.062566 -0.000000 -0.000000 -0.000000
  5Cl  4s         0.395527  0.019394 -0.118067  0.000000 -0.000000 -0.000000
  5Cl  5s        -0.596410 -0.028361  0.176365 -0.000000  0.000000  0.000000
  5Cl  6s        -0.519809 -0.035107  0.286693  0.000000  0.000000  0.000000
  5Cl  1pz       -0.043764  0.003344 -0.276247 -0.000000 -0.000000  0.000000
  5Cl  1px       -0.000000  0.000000  0.000000  0.000000 -0.004604 -0.000001
  5Cl  1py        0.000000 -0.000000  0.000000 -0.004604 -0.000000 -0.334453
  5Cl  2pz       -0.011341  0.000883 -0.067609 -0.000000 -0.000000  0.000000
  5Cl  2px       -0.000000  0.000000  0.000000  0.000000 -0.001131 -0.000000
  5Cl  2py        0.000000 -0.000000  0.000000 -0.001131 -0.000000 -0.079816
  5Cl  3pz        0.029413 -0.002716  0.199168  0.000000  0.000000 -0.000000
  5Cl  3px        0.000000 -0.000000 -0.000000 -0.000000  0.003465  0.000001
  5Cl  3py       -0.000000  0.000000 -0.000000  0.003465  0.000000  0.240633
  5Cl  4pz        0.045949 -0.003933  0.424416  0.000000  0.000000  0.000000
  5Cl  4px        0.000000  0.000000 -0.000000 -0.000000  0.007246  0.000002
  5Cl  4py       -0.000000 -0.000000 -0.000000  0.007246  0.000000  0.595393
  5Cl  5pz        0.018024  0.001081  0.159524 -0.000000  0.000000 -0.000000
  5Cl  5px        0.000000 -0.000000 -0.000000 -0.000000  0.005536  0.000001
  5Cl  5py        0.000000  0.000000 -0.000000  0.005536  0.000000  0.339105
  5Cl  1dz2      -0.018639  0.000815 -0.053275 -0.000000 -0.000000  0.000000
  5Cl  1dxz      -0.000000  0.000000  0.000000  0.000000 -0.000589 -0.000000
  5Cl  1dyz       0.000000  0.000000 -0.000000 -0.000589 -0.000000 -0.013243
  5Cl  1dx2y2     0.000000 -0.000000 -0.000000 -0.000000  0.000017  0.000000
  5Cl  1dxy      -0.000000 -0.000000  0.000000 -0.000017 -0.000000 -0.000003
                     12        13        14        15        16        17   
                  -0.46938  -0.40838   0.14006   0.19165   0.21449   0.21449
                   1.00000   1.00000   0.00000   0.00000   0.00000   0.00000
                  --------  --------  --------  --------  --------  --------
  0C   1s         0.000000 -0.004292 -0.046737 -0.017581 -0.000000  0.000000
  0C   2s         0.000000 -0.007395 -0.076344 -0.027601 -0.000000  0.000000
  0C   1pz       -0.000000  0.253337  0.022513 -0.078671 -0.000000  0.000000
  0C   1px       -0.004567 -0.000000  0.000000  0.000000 -0.136006  0.000000
  0C   1py        0.000000 -0.000000 -0.000000  0.000000  0.000000  0.136006
  0C   3s        -0.000000  0.015471  0.110433  0.001742 -0.000000  0.000000
  0C   2pz       -0.000000  0.423874  0.027069 -0.113670 -0.000000  0.000000
  0C   2px       -0.006632 -0.000000  0.000000  0.000000 -0.056511  0.000000
  0C   2py        0.000000  0.000000  0.000000  0.000000  0.000000  0.056511
  0C   4s        -0.000000  0.096603  1.712243  1.084004  0.000003 -0.000000
  0C   3pz       -0.000000  0.479558  0.087623 -0.310726 -0.000000  0.000000
  0C   3px       -0.003669 -0.000000  0.000000  0.000002 -1.121145  0.000001
  0C   3py        0.000000 -0.000000 -0.000000  0.000000  0.000001  1.121145
  0C   1dz2      -0.000000  0.006336 -0.004467  0.023104  0.000000  0.000000
  0C   1dxz       0.000597 -0.000000  0.000000  0.000000 -0.003879  0.000000
  0C   1dyz      -0.000000 -0.000000 -0.000000  0.000000  0.000000  0.003879
  0C   1dx2y2    -0.000414 -0.000000 -0.000000 -0.000000  0.033395 -0.000000
  0C   1dxy      -0.000000  0.000000 -0.000000  0.000000  0.000000  0.033395
  1H   1s         0.001770 -0.009321 -0.013301 -0.029101 -0.006388 -0.011065
  1H   2s         0.003664 -0.026792  0.024899 -0.052625  0.100029  0.173256
  1H   3s         0.000023 -0.015978 -0.797564 -0.586710 -1.093446 -1.893898
  1H   1pz       -0.000120  0.017116 -0.000901 -0.002902  0.001266  0.002193
  1H   1px       -0.000022 -0.001519  0.000279  0.000011  0.009841  0.018191
  1H   1py       -0.000418  0.002632 -0.000484 -0.000020 -0.018191 -0.030846
  2H   1s        -0.003539 -0.009321 -0.013301 -0.029101  0.012777 -0.000000
  2H   2s        -0.007328 -0.026792  0.024899 -0.052624 -0.200058  0.000000
  2H   3s        -0.000045 -0.015978 -0.797565 -0.586714  2.186883 -0.000002
  2H   1pz        0.000241  0.017116 -0.000901 -0.002902 -0.002533  0.000000
  2H   1px        0.000703  0.003039 -0.000559 -0.000023  0.041348 -0.000000
  2H   1py        0.000000  0.000000  0.000000  0.000000  0.000000  0.000662
  3H   1s         0.000000 -0.013813 -0.041646  0.099229  0.000000 -0.000000
  3H   2s         0.000000 -0.041516 -0.004682  0.273005  0.000000 -0.000000
  3H   3s        -0.000000  0.048411 -0.827725  1.686203  0.000003 -0.000000
  3H   1pz        0.000000 -0.013992  0.007986 -0.003291  0.000000  0.000000
  3H   1px        0.024050 -0.000000  0.000000 -0.000000  0.004671 -0.000000
  3H   1py       -0.000000  0.000000  0.000000 -0.000000 -0.000000 -0.004671
  4H   1s         0.001770 -0.009321 -0.013301 -0.029101 -0.006388  0.011065
  4H   2s         0.003664 -0.026792  0.024899 -0.052625  0.100029 -0.173256
  4H   3s         0.000023 -0.015978 -0.797564 -0.586710 -1.093442  1.893900
  4H   1pz       -0.000120  0.017116 -0.000901 -0.002902  0.001266 -0.002193
  4H   1px       -0.000022 -0.001519  0.000279  0.000011  0.009841 -0.018191
  4H   1py        0.000418 -0.002632  0.000484  0.000020  0.018191 -0.030846
  5Cl  1s         0.000000 -0.000209  0.005952 -0.011272 -0.000000  0.000000
  5Cl  2s         0.000000 -0.000620  0.017642 -0.033612 -0.000000  0.000000
  5Cl  3s        -0.000000  0.001318 -0.038417  0.074855  0.000000 -0.000000
  5Cl  4s        -0.000000  0.001652 -0.062869  0.113601  0.000000 -0.000000
  5Cl  5s         0.000000 -0.001032  0.071346 -0.094817 -0.000000  0.000000
  5Cl  6s        -0.000000 -0.012827  0.471626 -1.060305 -0.000002  0.000000
  5Cl  1pz        0.000000 -0.066991  0.070706 -0.102182 -0.000000  0.000000
  5Cl  1px       -0.334453 -0.000000  0.000000 -0.000000  0.019523 -0.000000
  5Cl  1py        0.000001 -0.000000  0.000000 -0.000000 -0.000000 -0.019523
  5Cl  2pz        0.000000 -0.016084  0.017191 -0.025600 -0.000000  0.000000
  5Cl  2px       -0.079816 -0.000000  0.000000 -0.000000  0.003534 -0.000000
  5Cl  2py        0.000000 -0.000000  0.000000 -0.000000 -0.000000 -0.003534
  5Cl  3pz       -0.000000  0.048029 -0.055625  0.084612  0.000000 -0.000000
  5Cl  3px        0.240633  0.000000  0.000000  0.000000 -0.007327  0.000000
  5Cl  3py       -0.000001  0.000000 -0.000000  0.000000  0.000000  0.007327
  5Cl  4pz       -0.000000  0.113391 -0.121119  0.153749  0.000000 -0.000000
  5Cl  4px        0.595393  0.000000 -0.000000  0.000000 -0.077342  0.000000
  5Cl  4py       -0.000002  0.000000  0.000000  0.000000  0.000000  0.077342
  5Cl  5pz       -0.000000  0.064853 -0.394402  0.997227  0.000002 -0.000000
  5Cl  5px        0.339105  0.000000  0.000000 -0.000000  0.060313 -0.000000
  5Cl  5py       -0.000001  0.000000 -0.000000 -0.000000 -0.000000 -0.060313
  5Cl  1dz2       0.000000 -0.006521 -0.022617  0.066371  0.000000 -0.000000
  5Cl  1dxz      -0.013243 -0.000000 -0.000000  0.000000 -0.006266  0.000000
  5Cl  1dyz       0.000000 -0.000000 -0.000000  0.000000  0.000000  0.006266
  5Cl  1dx2y2     0.000003 -0.000000 -0.000000 -0.000000  0.001736 -0.000000
  5Cl  1dxy       0.000000  0.000000 -0.000000  0.000000  0.000000  0.001736
                     18        19        20        21        22        23   
                   0.34739   0.40289   0.40289   0.42094   0.45300   0.45300
                   0.00000   0.00000   0.00000   0.00000   0.00000   0.00000
                  --------  --------  --------  --------  --------  --------
  0C   1s        -0.008450 -0.000000  0.000000  0.000832 -0.000000 -0.000000
  0C   2s        -0.014786 -0.000000  0.000000  0.003161 -0.000000 -0.000000
  0C   1pz       -0.038049  0.000000  0.000000 -0.040010  0.000000  0.000000
  0C   1px        0.000000  0.011051  0.000000  0.000000 -0.007817 -0.000000
  0C   1py       -0.000000 -0.000000  0.011051  0.000000  0.000000 -0.007817
  0C   3s         0.057481 -0.000000  0.000000 -0.158390 -0.000000 -0.000000
  0C   2pz       -0.069896  0.000000  0.000000 -0.163309  0.000000  0.000000
  0C   2px        0.000000  0.055035  0.000000 -0.000000  0.034891  0.000000
  0C   2py        0.000000 -0.000000  0.055036  0.000000 -0.000000  0.034892
  0C   4s         0.221253 -0.000002 -0.000000  1.049402 -0.000002 -0.000000
  0C   3pz       -0.218843  0.000000 -0.000000  0.289932 -0.000000 -0.000000
  0C   3px        0.000000  1.359931  0.000000 -0.000001  1.213779  0.000011
  0C   3py        0.000000 -0.000000  1.359933  0.000000 -0.000011  1.213782
  0C   1dz2       0.014059  0.000000  0.000000  0.000306  0.000000  0.000000
  0C   1dxz       0.000000  0.002935  0.000000  0.000000 -0.008404 -0.000000
  0C   1dyz      -0.000000 -0.000000  0.002935 -0.000000  0.000000 -0.008404
  0C   1dx2y2     0.000000  0.032667  0.000000 -0.000000  0.028033  0.000000
  0C   1dxy      -0.000000  0.000000 -0.032667 -0.000000  0.000000 -0.028033
  1H   1s        -0.019127  0.018725 -0.032433 -0.010601  0.018598 -0.032212
  1H   2s         0.007372  0.481508 -0.833996 -0.434034  0.495998 -0.859075
  1H   3s        -0.251239  0.160434 -0.277881  0.061831 -0.026904  0.046598
  1H   1pz        0.007663 -0.001330  0.002304 -0.019279  0.003210 -0.005560
  1H   1px        0.004485  0.030009 -0.015040 -0.013950  0.037336 -0.013291
  1H   1py       -0.007768 -0.015040  0.047376  0.024162 -0.013292  0.052684
  2H   1s        -0.019127 -0.037451 -0.000000 -0.010601 -0.037195 -0.000000
  2H   2s         0.007372 -0.963015 -0.000000 -0.434033 -0.991979 -0.000009
  2H   3s        -0.251239 -0.320866 -0.000000  0.061832  0.053810  0.000001
  2H   1pz        0.007663  0.002661  0.000000 -0.019279 -0.006420 -0.000000
  2H   1px       -0.008970  0.056059  0.000000  0.027900  0.060357  0.000001
  2H   1py        0.000000 -0.000000  0.021325  0.000000 -0.000000  0.029663
  3H   1s        -0.067306  0.000000 -0.000000  0.050534 -0.000000 -0.000000
  3H   2s        -1.256211  0.000001 -0.000000  0.743880  0.000000  0.000000
  3H   3s         1.317758 -0.000001  0.000000 -1.558120 -0.000000 -0.000000
  3H   1pz       -0.051140  0.000000  0.000000  0.010035  0.000000  0.000000
  3H   1px        0.000000  0.010893  0.000000 -0.000000  0.030947  0.000000
  3H   1py        0.000000 -0.000000  0.010893  0.000000 -0.000000  0.030947
  4H   1s        -0.019127  0.018725  0.032433 -0.010601  0.018597  0.032212
  4H   2s         0.007372  0.481508  0.833996 -0.434034  0.495982  0.859085
  4H   3s        -0.251239  0.160434  0.277881  0.061831 -0.026903 -0.046598
  4H   1pz        0.007663 -0.001330 -0.002304 -0.019279  0.003210  0.005560
  4H   1px        0.004485  0.030009  0.015040 -0.013950  0.037336  0.013292
  4H   1py        0.007768  0.015040  0.047376 -0.024162  0.013291  0.052684
  5Cl  1s        -0.001378  0.000000 -0.000000  0.005890  0.000000  0.000000
  5Cl  2s        -0.003750  0.000000 -0.000000  0.017145  0.000000  0.000000
  5Cl  3s         0.005341 -0.000000  0.000000 -0.034787 -0.000000 -0.000000
  5Cl  4s         0.026672 -0.000000  0.000000 -0.076988 -0.000000 -0.000000
  5Cl  5s        -0.123595  0.000000 -0.000000  0.181156  0.000000  0.000000
  5Cl  6s        -0.010770  0.000000 -0.000000  0.364490  0.000000 -0.000000
  5Cl  1pz       -0.014436 -0.000000  0.000000 -0.189869  0.000000  0.000000
  5Cl  1px        0.000000  0.132464  0.000000 -0.000000 -0.134410 -0.000001
  5Cl  1py       -0.000000 -0.000000  0.132464 -0.000000  0.000001 -0.134409
  5Cl  2pz       -0.001892 -0.000000  0.000000 -0.031218  0.000000  0.000000
  5Cl  2px        0.000000  0.021103  0.000000 -0.000000 -0.021416 -0.000000
  5Cl  2py       -0.000000 -0.000000  0.021103 -0.000000  0.000000 -0.021416
  5Cl  3pz        0.010589 -0.000000 -0.000000  0.035274 -0.000000 -0.000000
  5Cl  3px       -0.000000 -0.030014 -0.000000  0.000000  0.031193  0.000000
  5Cl  3py        0.000000  0.000000 -0.030014  0.000000 -0.000000  0.031193
  5Cl  4pz        0.060857  0.000000 -0.000000  1.000214 -0.000000 -0.000000
  5Cl  4px       -0.000000 -0.678011 -0.000000  0.000000  0.705148  0.000007
  5Cl  4py        0.000000  0.000000 -0.678011  0.000000 -0.000007  0.705148
  5Cl  5pz       -0.683556 -0.000000  0.000000 -1.258035  0.000000  0.000000
  5Cl  5px        0.000000  0.840728  0.000000 -0.000000 -0.936950 -0.000009
  5Cl  5py       -0.000000 -0.000000  0.840728 -0.000000  0.000009 -0.936949
  5Cl  1dz2      -0.126962  0.000000 -0.000000  0.046337  0.000000  0.000000
  5Cl  1dxz      -0.000000 -0.001996 -0.000000  0.000000 -0.021373 -0.000000
  5Cl  1dyz      -0.000000  0.000000 -0.001996 -0.000000  0.000000 -0.021373
  5Cl  1dx2y2     0.000000 -0.000412 -0.000000  0.000000  0.000018  0.000000
  5Cl  1dxy       0.000000 -0.000000  0.000412 -0.000000  0.000000 -0.000018
                     24        25        26        27        28        29   
                   0.51173   0.71818   0.79168   0.79168   0.87372   1.00398
                   0.00000   0.00000   0.00000   0.00000   0.00000   0.00000
                  --------  --------  --------  --------  --------  --------
  0C   1s        -0.022973  0.035006  0.000000  0.000000  0.110877 -0.000000
  0C   2s        -0.043600  0.069294  0.000000  0.000000  0.232577 -0.000000
  0C   1pz        0.115470  0.174039 -0.000000  0.000000 -0.030182  0.000000
  0C   1px        0.000000 -0.000001 -0.254626  0.000000  0.000000  0.000000
  0C   1py        0.000000 -0.000000  0.000000  0.254626 -0.000000  0.007292
  0C   3s         0.026084 -0.336416 -0.000002 -0.000000 -1.782836  0.000000
  0C   2pz        0.496816  0.756487 -0.000002  0.000000 -0.129347  0.000000
  0C   2px       -0.000000 -0.000002 -1.067145  0.000000  0.000001  0.000000
  0C   2py        0.000000 -0.000000  0.000000  1.067146 -0.000000  0.039346
  0C   4s         1.457524  0.028673  0.000007  0.000000  3.827345 -0.000000
  0C   3pz       -0.755684 -1.188384  0.000002 -0.000000  0.138124 -0.000000
  0C   3px       -0.000002  0.000004  1.695750 -0.000000 -0.000003 -0.000000
  0C   3py       -0.000000  0.000000 -0.000000 -1.695750  0.000000 -0.065139
  0C   1dz2       0.033199 -0.054066 -0.000000 -0.000000 -0.102253  0.000000
  0C   1dxz       0.000000 -0.000000 -0.007232  0.000000  0.000000  0.000000
  0C   1dyz       0.000000 -0.000000  0.000000  0.007232 -0.000000  0.010635
  0C   1dx2y2    -0.000000  0.000000  0.055830 -0.000000 -0.000000  0.000000
  0C   1dxy       0.000000 -0.000000  0.000000  0.055829 -0.000000 -0.028029
  1H   1s        -0.050908  0.053218 -0.027724 -0.048019  0.021634  0.011868
  1H   2s        -0.869832  0.536745 -0.309388 -0.535873 -0.224507  0.002544
  1H   3s         0.109976 -0.440866  0.858279  1.486584 -0.784886 -0.006365
  1H   1pz        0.011965  0.008869  0.002527  0.004377 -0.007432  0.003328
  1H   1px       -0.010079 -0.015862 -0.031324  0.044504 -0.076492 -0.010744
  1H   1py        0.017457  0.027474 -0.044504 -0.020065  0.132489 -0.001206
  2H   1s        -0.050908  0.053219  0.055447 -0.000000  0.021634  0.000000
  2H   2s        -0.869831  0.536746  0.618769 -0.000000 -0.224508  0.000000
  2H   3s         0.109979 -0.440871 -1.716558  0.000000 -0.784880 -0.000000
  2H   1pz        0.011965  0.008869 -0.005055  0.000000 -0.007431  0.000000
  2H   1px        0.020157  0.031724  0.045760 -0.000000  0.152985  0.000000
  2H   1py       -0.000000 -0.000000  0.000000  0.057019 -0.000000 -0.019815
  3H   1s        -0.049385  0.074001 -0.000000  0.000000 -0.093323  0.000000
  3H   2s        -0.092574  0.113948 -0.000000 -0.000000 -0.058373 -0.000000
  3H   3s         0.096984  0.604808 -0.000001  0.000000 -0.054358 -0.000000
  3H   1pz       -0.017358  0.000175 -0.000000 -0.000000 -0.052901  0.000000
  3H   1px       -0.000000  0.000000  0.018113 -0.000000  0.000000  0.000002
  3H   1py       -0.000000  0.000000 -0.000000 -0.018113  0.000000  0.415961
  4H   1s        -0.050908  0.053218 -0.027724  0.048019  0.021634 -0.011868
  4H   2s        -0.869832  0.536745 -0.309388  0.535873 -0.224507 -0.002544
  4H   3s         0.109976 -0.440866  0.858279 -1.486584 -0.784886  0.006366
  4H   1pz        0.011965  0.008869  0.002527 -0.004377 -0.007432 -0.003329
  4H   1px       -0.010079 -0.015862 -0.031324 -0.044504 -0.076492  0.010744
  4H   1py       -0.017457 -0.027474  0.044504 -0.020065 -0.132489 -0.001206
  5Cl  1s         0.001054 -0.007775  0.000000 -0.000000  0.006656 -0.000000
  5Cl  2s         0.002967 -0.022035  0.000000 -0.000000  0.018590 -0.000000
  5Cl  3s        -0.005172  0.039540 -0.000000  0.000000 -0.030956  0.000000
  5Cl  4s        -0.016389  0.123190 -0.000001  0.000000 -0.116726  0.000000
  5Cl  5s         0.035352 -0.327780  0.000002 -0.000000  0.350512 -0.000000
  5Cl  6s        -0.011081 -0.094167 -0.000000  0.000000 -0.187851  0.000000
  5Cl  1pz        0.059845 -0.105449  0.000000 -0.000000  0.062003 -0.000000
  5Cl  1px        0.000000  0.000000  0.002885 -0.000000 -0.000000  0.000000
  5Cl  1py        0.000000  0.000000 -0.000000 -0.002885  0.000000  0.022821
  5Cl  2pz        0.011852 -0.021397  0.000000 -0.000000  0.013412 -0.000000
  5Cl  2px        0.000000  0.000000  0.000507 -0.000000 -0.000000  0.000000
  5Cl  2py        0.000000  0.000000 -0.000000 -0.000507  0.000000  0.004074
  5Cl  3pz       -0.027176  0.059537 -0.000000  0.000000 -0.040115  0.000000
  5Cl  3px       -0.000000 -0.000000 -0.001001  0.000000  0.000000 -0.000000
  5Cl  3py       -0.000000 -0.000000  0.000000  0.001001 -0.000000 -0.012491
  5Cl  4pz       -0.242646  0.430078 -0.000001  0.000000 -0.234436  0.000000
  5Cl  4px       -0.000000 -0.000000 -0.015121  0.000000  0.000000 -0.000000
  5Cl  4py       -0.000000 -0.000000  0.000000  0.015121 -0.000000 -0.074562
  5Cl  5pz        0.214749 -0.313295  0.000001 -0.000000  0.196526 -0.000000
  5Cl  5px        0.000000  0.000000  0.023934 -0.000000 -0.000000 -0.000000
  5Cl  5py        0.000000  0.000000 -0.000000 -0.023934  0.000000 -0.039577
  5Cl  1dz2      -0.033146  0.071076 -0.000000 -0.000000 -0.135410  0.000000
  5Cl  1dxz       0.000000 -0.000000 -0.003399  0.000000 -0.000000 -0.000004
  5Cl  1dyz       0.000000  0.000000  0.000000  0.003399  0.000000 -0.819544
  5Cl  1dx2y2     0.000000 -0.000000 -0.005115  0.000000  0.000000 -0.000000
  5Cl  1dxy       0.000000  0.000000 -0.000000 -0.005115  0.000000  0.000056
                     30        31        32        33        34        35   
                   1.00398   1.09090   1.14564   1.14564   1.24894   1.24894
                   0.00000   0.00000   0.00000   0.00000   0.00000   0.00000
                  --------  --------  --------  --------  --------  --------
  0C   1s         0.000000  0.001873 -0.000000 -0.000000 -0.000000  0.000000
  0C   2s         0.000000  0.005602 -0.000000 -0.000000 -0.000000  0.000000
  0C   1pz       -0.000000 -0.031223 -0.000000 -0.000000  0.000000 -0.000000
  0C   1px       -0.007292 -0.000000 -0.001940 -0.000000 -0.003548  0.000000
  0C   1py        0.000000 -0.000000 -0.000000  0.001940 -0.000000 -0.003548
  0C   3s        -0.000000 -0.137142  0.000000  0.000000  0.000000 -0.000000
  0C   2pz       -0.000000 -0.153661 -0.000000 -0.000000 -0.000000  0.000000
  0C   2px       -0.039346 -0.000000 -0.004556 -0.000000 -0.008278  0.000000
  0C   2py        0.000000 -0.000000 -0.000000  0.004556 -0.000000 -0.008278
  0C   4s         0.000000  0.578616 -0.000000 -0.000000 -0.000000  0.000000
  0C   3pz        0.000000  0.585845  0.000000  0.000000  0.000000 -0.000000
  0C   3px        0.065140  0.000000  0.013476  0.000000 -0.045913  0.000000
  0C   3py       -0.000000  0.000000  0.000000 -0.013476 -0.000000 -0.045913
  0C   1dz2      -0.000000 -0.017250  0.000000  0.000000  0.000000 -0.000000
  0C   1dxz      -0.010635 -0.000000 -0.000104 -0.000000 -0.564040  0.000001
  0C   1dyz       0.000000  0.000000 -0.000000  0.000104 -0.000001 -0.564040
  0C   1dx2y2    -0.028029 -0.000000  0.000944  0.000000 -0.066495  0.000000
  0C   1dxy      -0.000000 -0.000000 -0.000000  0.000944  0.000000  0.066496
  1H   1s         0.006852 -0.007762 -0.000485 -0.000839 -0.000479  0.000829
  1H   2s         0.001469 -0.246687 -0.001024 -0.001774 -0.016103  0.027891
  1H   3s        -0.003675  0.190404  0.007962  0.013792 -0.002761  0.004783
  1H   1pz        0.001922 -0.019118  0.000006  0.000011  0.234329 -0.405872
  1H   1px        0.013612 -0.008954  0.000444  0.000250  0.045067  0.039282
  1H   1py        0.010744  0.015509 -0.000250 -0.000733  0.039282 -0.000292
  2H   1s        -0.013704 -0.007762  0.000969  0.000000  0.000958 -0.000000
  2H   2s        -0.002938 -0.246687  0.002048  0.000000  0.032205 -0.000000
  2H   3s         0.007350  0.190403 -0.015925 -0.000000  0.005522 -0.000000
  2H   1pz       -0.003843 -0.019118 -0.000012 -0.000000 -0.468661  0.000001
  2H   1px       -0.004997  0.017909  0.000877  0.000000 -0.022971  0.000000
  2H   1py       -0.000000  0.000000  0.000000 -0.000299  0.000000  0.067746
  3H   1s        -0.000000  0.021882  0.000000  0.000000 -0.000000  0.000000
  3H   2s         0.000000  0.396159  0.000000  0.000000  0.000000 -0.000000
  3H   3s         0.000000 -2.272598 -0.000000 -0.000000  0.000000 -0.000000
  3H   1pz       -0.000000 -0.326700 -0.000000 -0.000000 -0.000000  0.000000
  3H   1px       -0.415961 -0.000000  0.000160  0.000000 -0.011995  0.000000
  3H   1py        0.000002  0.000000  0.000000 -0.000160 -0.000000 -0.011995
  4H   1s         0.006852 -0.007762 -0.000485  0.000839 -0.000479 -0.000829
  4H   2s         0.001469 -0.246687 -0.001024  0.001774 -0.016103 -0.027891
  4H   3s        -0.003675  0.190404  0.007963 -0.013792 -0.002761 -0.004783
  4H   1pz        0.001922 -0.019118  0.000006 -0.000011  0.234331  0.405871
  4H   1px        0.013612 -0.008954  0.000444 -0.000250  0.045067 -0.039282
  4H   1py       -0.010744 -0.015509  0.000250 -0.000733 -0.039282 -0.000292
  5Cl  1s         0.000000 -0.027028 -0.000000 -0.000000  0.000000 -0.000000
  5Cl  2s         0.000000 -0.073958 -0.000000 -0.000000  0.000000 -0.000000
  5Cl  3s        -0.000000  0.108721  0.000000  0.000000 -0.000000  0.000000
  5Cl  4s        -0.000000  0.546218  0.000000  0.000000 -0.000000  0.000000
  5Cl  5s         0.000000 -2.088418 -0.000000 -0.000000  0.000000 -0.000000
  5Cl  6s        -0.000000  2.908786  0.000000  0.000000 -0.000000  0.000000
  5Cl  1pz        0.000000 -0.050287 -0.000000 -0.000000  0.000000 -0.000000
  5Cl  1px       -0.022821 -0.000000  0.000094  0.000000  0.010327 -0.000000
  5Cl  1py        0.000000  0.000000  0.000000 -0.000094  0.000000  0.010327
  5Cl  2pz        0.000000 -0.018262 -0.000000 -0.000000  0.000000 -0.000000
  5Cl  2px       -0.004074 -0.000000  0.000025  0.000000  0.003135 -0.000000
  5Cl  2py        0.000000  0.000000  0.000000 -0.000025  0.000000  0.003135
  5Cl  3pz       -0.000000  0.128712  0.000000  0.000000  0.000000  0.000000
  5Cl  3px        0.012491  0.000000 -0.000110 -0.000000 -0.015596  0.000000
  5Cl  3py       -0.000000 -0.000000 -0.000000  0.000110 -0.000000 -0.015596
  5Cl  4pz       -0.000000 -0.201763 -0.000000 -0.000000 -0.000000  0.000000
  5Cl  4px        0.074562  0.000000 -0.000206 -0.000000 -0.008668  0.000000
  5Cl  4py       -0.000000 -0.000000 -0.000000  0.000206 -0.000000 -0.008668
  5Cl  5pz        0.000000 -0.690598 -0.000000 -0.000000  0.000000 -0.000000
  5Cl  5px        0.039577 -0.000000  0.000452  0.000000  0.032610 -0.000000
  5Cl  5py       -0.000000  0.000000  0.000000 -0.000452  0.000000  0.032610
  5Cl  1dz2      -0.000000 -0.372056 -0.000000  0.000000 -0.000000  0.000000
  5Cl  1dxz       0.819544  0.000000 -0.000032 -0.000000 -0.029799  0.000000
  5Cl  1dyz      -0.000004 -0.000000 -0.000000  0.000032 -0.000000 -0.029799
  5Cl  1dx2y2     0.000056 -0.000000  0.999985  0.000021 -0.000044  0.000000
  5Cl  1dxy       0.000000  0.000000 -0.000021  0.999985  0.000000  0.000044
                     36        37        38        39        40        41   
                   1.35850   1.60986   1.60986   1.64344   1.70626   1.77563
                   0.00000   0.00000   0.00000   0.00000   0.00000   0.00000
                  --------  --------  --------  --------  --------  --------
  0C   1s        -0.023180 -0.000000  0.000000 -0.000000  0.007978  0.000000
  0C   2s        -0.054433 -0.000000  0.000000 -0.000000  0.017750  0.000000
  0C   1pz        0.050733 -0.000000  0.000000  0.000000 -0.039852  0.000000
  0C   1px        0.000000 -0.065425  0.000000 -0.000000 -0.000000  0.011859
  0C   1py        0.000000 -0.000000 -0.065425 -0.000000 -0.000000 -0.000000
  0C   3s         0.556983  0.000001 -0.000000  0.000000 -0.219923 -0.000000
  0C   2pz        0.214059 -0.000000 -0.000000  0.000000 -0.068201  0.000000
  0C   2px        0.000000 -0.125673  0.000000 -0.000000 -0.000002 -0.056519
  0C   2py        0.000000 -0.000000 -0.125675 -0.000001 -0.000000  0.000000
  0C   4s        -1.434160  0.000001  0.000000 -0.000000  1.411073 -0.000002
  0C   3pz       -0.433151  0.000000 -0.000000  0.000000 -0.148986  0.000000
  0C   3px       -0.000000 -1.083387  0.000000  0.000000 -0.000002  0.504122
  0C   3py       -0.000000 -0.000000 -1.083389 -0.000001  0.000000 -0.000000
  0C   1dz2       0.031534  0.000001 -0.000000  0.000000 -0.982528  0.000001
  0C   1dxz       0.000000  0.077037 -0.000000 -0.000000  0.000000 -0.034743
  0C   1dyz       0.000000  0.000000  0.077037  0.000000 -0.000000  0.000000
  0C   1dx2y2    -0.000000 -0.665877  0.000000 -0.000000 -0.000001  0.213838
  0C   1dxy       0.000000  0.000000  0.665878  0.000001 -0.000000  0.000000
  1H   1s         0.046950  0.090152 -0.156149 -0.000000  0.151709 -0.020845
  1H   2s         0.243674 -0.591675  1.024813  0.000002 -0.838111  0.194753
  1H   3s         0.101964 -0.025600  0.044340 -0.000000  0.020753  0.027662
  1H   1pz       -0.071225 -0.039594  0.068579  0.000000  0.177486 -0.003508
  1H   1px        0.008851  0.356789  0.152787  0.513842  0.021169 -0.127997
  1H   1py       -0.015330  0.152787  0.180364  0.296667 -0.036666 -0.025135
  2H   1s         0.046950 -0.180305  0.000000 -0.000000  0.151708  0.041689
  2H   2s         0.243674  1.183349 -0.000000  0.000000 -0.838106 -0.389503
  2H   3s         0.101964  0.051198 -0.000000 -0.000000  0.020753 -0.055324
  2H   1pz       -0.071225  0.079188 -0.000000 -0.000000  0.177487  0.007015
  2H   1px       -0.017702  0.092154 -0.000000 -0.000000 -0.042340 -0.084462
  2H   1py       -0.000000  0.000000  0.445001 -0.593333 -0.000000  0.000000
  3H   1s        -0.100674 -0.000000 -0.000000 -0.000000  0.083581 -0.000000
  3H   2s         0.725691 -0.000000 -0.000000  0.000000 -0.084207  0.000000
  3H   3s         1.066901 -0.000000  0.000000 -0.000000  0.042242  0.000000
  3H   1pz       -0.213742  0.000000  0.000000 -0.000000  0.005204 -0.000000
  3H   1px       -0.000000 -0.273206  0.000000 -0.000000 -0.000001 -0.921877
  3H   1py       -0.000000 -0.000000 -0.273207 -0.000000  0.000000  0.000000
  4H   1s         0.046950  0.090152  0.156149  0.000000  0.151709 -0.020845
  4H   2s         0.243674 -0.591675 -1.024813 -0.000002 -0.838111  0.194753
  4H   3s         0.101964 -0.025600 -0.044340  0.000000  0.020753  0.027662
  4H   1pz       -0.071225 -0.039594 -0.068579 -0.000000  0.177486 -0.003508
  4H   1px        0.008851  0.356789 -0.152787 -0.513842  0.021169 -0.127997
  4H   1py        0.015330 -0.152787  0.180364  0.296667  0.036666  0.025135
  5Cl  1s         0.018621 -0.000000 -0.000000 -0.000000  0.001128 -0.000000
  5Cl  2s         0.051090 -0.000000 -0.000000 -0.000000  0.003142 -0.000000
  5Cl  3s        -0.076119  0.000000  0.000000  0.000000 -0.005071  0.000000
  5Cl  4s        -0.383244  0.000000  0.000000  0.000000 -0.022941  0.000000
  5Cl  5s         1.483908 -0.000000 -0.000000 -0.000000  0.092102 -0.000000
  5Cl  6s        -2.034874  0.000001  0.000000  0.000000 -0.092261 -0.000000
  5Cl  1pz       -0.063354  0.000000  0.000000  0.000000 -0.016084  0.000000
  5Cl  1px        0.000000 -0.001247  0.000000 -0.000000 -0.000000 -0.094017
  5Cl  1py       -0.000000 -0.000000 -0.001247 -0.000000  0.000000  0.000000
  5Cl  2pz       -0.022521  0.000000  0.000000  0.000000 -0.005531  0.000000
  5Cl  2px        0.000000  0.000171 -0.000000 -0.000000 -0.000000 -0.028044
  5Cl  2py       -0.000000  0.000000  0.000171 -0.000000  0.000000  0.000000
  5Cl  3pz        0.139006 -0.000000 -0.000000 -0.000000  0.034669 -0.000000
  5Cl  3px       -0.000000 -0.002490  0.000000  0.000000  0.000000  0.162301
  5Cl  3py        0.000000 -0.000000 -0.002490  0.000000 -0.000000 -0.000000
  5Cl  4pz       -0.128948  0.000000  0.000000  0.000000 -0.046816  0.000000
  5Cl  4px       -0.000000  0.002599 -0.000000 -0.000000 -0.000000 -0.025217
  5Cl  4py        0.000000  0.000000  0.002599  0.000000  0.000000  0.000000
  5Cl  5pz        0.820477 -0.000000 -0.000000 -0.000000  0.057508 -0.000000
  5Cl  5px        0.000000  0.093808 -0.000000  0.000000  0.000000  0.144848
  5Cl  5py       -0.000000  0.000000  0.093808  0.000000 -0.000000 -0.000000
  5Cl  1dz2      -0.734816  0.000000  0.000000  0.000000 -0.047007  0.000000
  5Cl  1dxz      -0.000000 -0.226455  0.000000 -0.000000 -0.000001 -0.576538
  5Cl  1dyz      -0.000000 -0.000000 -0.226455 -0.000000  0.000000  0.000000
  5Cl  1dx2y2     0.000000 -0.000288  0.000000 -0.000000 -0.000000  0.000170
  5Cl  1dxy      -0.000000  0.000000  0.000288 -0.000000  0.000000  0.000000
                     42        43        44        45        46        47   
                   1.77563   1.94642   2.10537   2.10537   2.23765   2.23765
                   0.00000   0.00000   0.00000   0.00000   0.00000   0.00000
                  --------  --------  --------  --------  --------  --------
  0C   1s        -0.000000  0.006852  0.000000  0.000000 -0.000000  0.000000
  0C   2s        -0.000000  0.016953  0.000000  0.000000 -0.000000  0.000000
  0C   1pz       -0.000000  0.110601 -0.000000  0.000000  0.000000  0.000000
  0C   1px       -0.000000  0.000000 -0.000000 -0.200607  0.134360  0.000000
  0C   1py       -0.011859 -0.000000  0.200607 -0.000000 -0.000000  0.134360
  0C   3s         0.000000 -0.168429 -0.000000 -0.000003  0.000002 -0.000000
  0C   2pz        0.000000  0.112870  0.000000  0.000001  0.000000  0.000000
  0C   2px        0.000000 -0.000001  0.000000  0.664536 -0.491361 -0.000000
  0C   2py        0.056519  0.000000 -0.664541  0.000000  0.000000 -0.491360
  0C   4s        -0.000000  0.476961  0.000000 -0.000001  0.000001  0.000000
  0C   3pz       -0.000000  0.562536  0.000000  0.000000  0.000000  0.000000
  0C   3px       -0.000000 -0.000000 -0.000000 -0.276633  0.180480  0.000000
  0C   3py       -0.504123  0.000000  0.276633 -0.000000 -0.000000  0.180478
  0C   1dz2       0.000000 -0.339641 -0.000000 -0.000000 -0.000000 -0.000000
  0C   1dxz       0.000000  0.000001 -0.000000 -0.473618 -0.894253 -0.000000
  0C   1dyz       0.034743 -0.000000  0.473615 -0.000000  0.000000 -0.894256
  0C   1dx2y2    -0.000000 -0.000001  0.000000  0.796877 -0.466263 -0.000000
  0C   1dxy       0.213839 -0.000000  0.796879 -0.000000 -0.000000  0.466260
  1H   1s        -0.036104  0.035938 -0.495869 -0.286290  0.169427 -0.293453
  1H   2s         0.337322 -0.263717  1.199158  0.692332 -0.399247  0.691510
  1H   3s         0.047912  0.078769 -0.627472 -0.362270  0.202427 -0.350610
  1H   1pz       -0.006075 -0.618368 -0.319759 -0.184615 -0.373165  0.646342
  1H   1px        0.025135  0.038870 -0.091029  0.558503 -0.307523 -0.036802
  1H   1py        0.098974 -0.067325 -0.453394  0.091028 -0.036802 -0.265026
  2H   1s        -0.000000  0.035938  0.000000  0.572580 -0.338853 -0.000000
  2H   2s         0.000000 -0.263715 -0.000000 -1.384661  0.798490  0.000000
  2H   3s         0.000000  0.078768  0.000000  0.724541 -0.404852 -0.000000
  2H   1pz       -0.000000 -0.618369  0.000000  0.369228  0.746329  0.000000
  2H   1px        0.000000 -0.077741  0.000000  0.400834 -0.243779 -0.000000
  2H   1py        0.142509  0.000000 -0.611059  0.000000  0.000000 -0.328768
  3H   1s         0.000000 -0.218906 -0.000000 -0.000000 -0.000001 -0.000000
  3H   2s         0.000000  0.066980  0.000000  0.000000  0.000001  0.000000
  3H   3s         0.000000 -0.583326 -0.000000  0.000000 -0.000001 -0.000000
  3H   1pz        0.000000 -0.050110  0.000000 -0.000000 -0.000000 -0.000000
  3H   1px        0.000000  0.000000  0.000000  0.003534  0.027582  0.000000
  3H   1py        0.921877 -0.000000 -0.003534  0.000000 -0.000000  0.027583
  4H   1s         0.036104  0.035938  0.495869 -0.286290  0.169427  0.293453
  4H   2s        -0.337322 -0.263717 -1.199158  0.692332 -0.399247 -0.691510
  4H   3s        -0.047912  0.078769  0.627472 -0.362270  0.202427  0.350610
  4H   1pz        0.006075 -0.618368  0.319759 -0.184615 -0.373165 -0.646342
  4H   1px       -0.025135  0.038870  0.091029  0.558503 -0.307523  0.036802
  4H   1py        0.098974  0.067325 -0.453394 -0.091028  0.036802 -0.265026
  5Cl  1s         0.000000 -0.002420 -0.000000  0.000000 -0.000000 -0.000000
  5Cl  2s         0.000000 -0.006468 -0.000000  0.000000 -0.000000 -0.000000
  5Cl  3s        -0.000000  0.007873  0.000000 -0.000000  0.000000  0.000000
  5Cl  4s        -0.000000  0.060933  0.000000 -0.000000  0.000000  0.000000
  5Cl  5s         0.000000 -0.301817 -0.000000  0.000000 -0.000001 -0.000000
  5Cl  6s        -0.000000  0.590289  0.000000 -0.000000  0.000001  0.000000
  5Cl  1pz        0.000000  0.128669  0.000000  0.000000  0.000001  0.000000
  5Cl  1px        0.000000  0.000000 -0.000000 -0.012358  0.023299  0.000000
  5Cl  1py        0.094017 -0.000000  0.012358 -0.000000 -0.000000  0.023298
  5Cl  2pz        0.000000  0.040646  0.000000  0.000000  0.000000  0.000000
  5Cl  2px        0.000000  0.000000 -0.000000 -0.004039  0.007643  0.000000
  5Cl  2py        0.028044 -0.000000  0.004039 -0.000000 -0.000000  0.007643
  5Cl  3pz       -0.000000 -0.255289 -0.000000 -0.000000 -0.000001 -0.000000
  5Cl  3px       -0.000000 -0.000000  0.000000  0.026511 -0.052323 -0.000000
  5Cl  3py       -0.162301  0.000000 -0.026511  0.000000  0.000000 -0.052323
  5Cl  4pz        0.000000  0.122257  0.000000  0.000000  0.000001  0.000000
  5Cl  4px        0.000000  0.000000 -0.000000 -0.014622  0.039492  0.000000
  5Cl  4py        0.025217 -0.000000  0.014622 -0.000000 -0.000000  0.039492
  5Cl  5pz        0.000000 -0.212146 -0.000000  0.000000 -0.000001 -0.000000
  5Cl  5px       -0.000000  0.000000 -0.000000 -0.015853 -0.005725 -0.000000
  5Cl  5py       -0.144848  0.000000  0.015853 -0.000000  0.000000 -0.005726
  5Cl  1dz2      -0.000000  0.164165 -0.000000  0.000000  0.000000  0.000000
  5Cl  1dxz       0.000000  0.000000  0.000000  0.007854  0.010011  0.000000
  5Cl  1dyz       0.576538 -0.000000 -0.007854  0.000000 -0.000000  0.010011
  5Cl  1dx2y2    -0.000000  0.000000 -0.000000 -0.001294  0.000653  0.000000
  5Cl  1dxy       0.000170  0.000000 -0.001294  0.000000  0.000000 -0.000653
                     48        49        50        51        52        53   
                   2.38164   2.47829   2.47829   2.60538   2.66522   2.70839
                   0.00000   0.00000   0.00000   0.00000   0.00000   0.00000
                  --------  --------  --------  --------  --------  --------
  0C   1s         0.011954 -0.000000  0.000000 -0.012513  0.049721  0.000001
  0C   2s         0.043192 -0.000000  0.000000 -0.023077  0.087398  0.000001
  0C   1pz        0.074460  0.000000 -0.000000 -0.062984 -0.113965 -0.000002
  0C   1px        0.000000  0.011137 -0.000000  0.000000 -0.000004  0.256092
  0C   1py       -0.000000 -0.000000 -0.011136  0.000000 -0.000000  0.000000
  0C   3s        -0.479020 -0.000000  0.000000  0.105237 -0.366391 -0.000008
  0C   2pz       -0.052630  0.000000 -0.000000  0.052577  0.086805  0.000002
  0C   2px        0.000000  0.141785 -0.000000  0.000002 -0.000022  1.768976
  0C   2py        0.000000 -0.000000 -0.141785  0.000000 -0.000000  0.000000
  0C   4s         0.261059  0.000000 -0.000000  0.021032  0.047619  0.000001
  0C   3pz        0.197740  0.000000  0.000000  0.025412  0.208936  0.000002
[...]
                 Total Lewis    8.94395  ( 99.4076%)
           Valence non-Lewis    0.00988  (  0.1098%)
           Rydberg non-Lewis    0.04342  (  0.4826%)
          -------------------------------
               Total unit  2    8.99724  (100.0000%)
              Charge unit  2    0.00276

 $CHOOSE
  ALPHA
   LONE 1 1 6 3 END
   BOND S 1 2 S 1 3 S 1 5 S 4 6 END
  END
  BETA
   LONE 6 3 END
   BOND S 1 2 S 1 3 S 1 5 S 4 6 END
  END
 $END

 NBO analysis completed in 0.12 CPU seconds (0 wall seconds)
 Maximum scratch memory used by NBO was 391760 words (2.99 MB)
Stopping NBO...Storing NBOs: products.pmp2re.nbo

                                *** returned from   NBO  program ***


----------------------------------
MP2 DERIVATIVE INTEGRAL GENERATION
----------------------------------


Input Wavefunction Amplitudes       ... products.mp2tbb.tmp
Input Correlated Electron Density   ... products.pmp2re
Input Energy Weighted Density       ... products.wmp2.tmp
Input SCF Electron Density          ... products.scfp

One-Electron Terms    ...
                        ... One-Electron Terms done
Prescreening matrices              ... done

Batch handling in the gradient evaluation:
Memory available                      ... 3000.0 MB
Memory per occupied orbital in Q2     ...    1.0 MB
Memory per occupied orbital in Q3     ...    0.0 MB
Total memory requirement per |i>      ...    1.0 MB
Max. Number of orbitals possible      ...   3107
Number of orbitals treated per batch  ...     27
Number of batches to be done          ...      1
Batch   0: i=    0 ...    26

---------------------------------------
MP2 TOTAL ENERGY:     -500.021959461 Eh
---------------------------------------

-----------------------------------
NORM OF THE MP2 GRADIENT:  0.000006
-----------------------------------

-------------------------   --------------------
FINAL SINGLE POINT ENERGY      -500.021959461302
-------------------------   --------------------

                                *** OPTIMIZATION RUN DONE ***

                            ***************************************
                            *     ORCA property calculations      *
                            ***************************************

                                    ---------------------
                                    Active property flags
                                    ---------------------
   (+) Dipole Moment


------------------------------------------------------------------------------
                       ORCA ELECTRIC PROPERTIES CALCULATION
------------------------------------------------------------------------------

Dipole Moment Calculation                       ... on
Quadrupole Moment Calculation                   ... off
Polarizability Calculation                      ... off
GBWName                                         ... products.gbw
Electron density file                           ... products.scfp
The origin for moment calculation is the CENTER OF MASS  = ( 0.000000,  0.000000  0.018599)

-------------
DIPOLE MOMENT
-------------
                                X             Y             Z
Electronic contribution:     -0.00000       0.00000       8.23465
Nuclear contribution   :      0.00000      -0.00000      -9.03755
                        -----------------------------------------
Total Dipole Moment    :     -0.00000      -0.00000      -0.80291
                        -----------------------------------------
Magnitude (a.u.)       :      0.80291
Magnitude (Debye)      :      2.04082



--------------------
Rotational spectrum 
--------------------
 
Rotational constants in cm-1:     4.795856     0.116815     0.116815 
Rotational constants in MHz : 143776.142038  3502.028707  3502.028702 

 Dipole components along the rotational axes: 
x,y,z [a.u.] :    -0.802906     0.000000    -0.000000 
x,y,z [Debye]:    -2.040825     0.000000    -0.000001 

 

                         *** MP2 UNRELAXED DENSITY ***

------------------------------------------------------------------------------
                       ORCA ELECTRIC PROPERTIES CALCULATION
------------------------------------------------------------------------------

Dipole Moment Calculation                       ... on
Quadrupole Moment Calculation                   ... off
Polarizability Calculation                      ... off
GBWName                                         ... products.gbw
Electron density file                           ... products.pmp2ur
The origin for moment calculation is the CENTER OF MASS  = ( 0.000000,  0.000000  0.018599)

-------------
DIPOLE MOMENT
-------------
                                X             Y             Z
Electronic contribution:     -0.00000       0.00000       8.24018
Nuclear contribution   :      0.00000      -0.00000      -9.03755
                        -----------------------------------------
Total Dipole Moment    :     -0.00000      -0.00000      -0.79737
                        -----------------------------------------
Magnitude (a.u.)       :      0.79737
Magnitude (Debye)      :      2.02675



--------------------
Rotational spectrum 
--------------------
 
Rotational constants in cm-1:     4.795856     0.116815     0.116815 
Rotational constants in MHz : 143776.142038  3502.028707  3502.028702 

 Dipole components along the rotational axes: 
x,y,z [a.u.] :    -0.797370     0.000000    -0.000000 
x,y,z [Debye]:    -2.026754     0.000000    -0.000001 

 

                           *** MP2 RELAXED DENSITY ***

------------------------------------------------------------------------------
                       ORCA ELECTRIC PROPERTIES CALCULATION
------------------------------------------------------------------------------

Dipole Moment Calculation                       ... on
Quadrupole Moment Calculation                   ... off
Polarizability Calculation                      ... off
GBWName                                         ... products.gbw
Electron density file                           ... products.pmp2re
The origin for moment calculation is the CENTER OF MASS  = ( 0.000000,  0.000000  0.018599)

-------------
DIPOLE MOMENT
-------------
                                X             Y             Z
Electronic contribution:     -0.00000       0.00000       8.24414
Nuclear contribution   :      0.00000      -0.00000      -9.03755
                        -----------------------------------------
Total Dipole Moment    :     -0.00000      -0.00000      -0.79341
                        -----------------------------------------
Magnitude (a.u.)       :      0.79341
Magnitude (Debye)      :      2.01669



--------------------
Rotational spectrum 
--------------------
 
Rotational constants in cm-1:     4.795856     0.116815     0.116815 
Rotational constants in MHz : 143776.142038  3502.028707  3502.028702 

 Dipole components along the rotational axes: 
x,y,z [a.u.] :    -0.793409     0.000000    -0.000000 
x,y,z [Debye]:    -2.016685     0.000000    -0.000001 

 
------------------------------------------------------------------------------
                         ORCA MP2 H E S S I A N CALCULATION
------------------------------------------------------------------------------

Calculating analytic MP2 second derivatives ... (>products.last_mp2) done

-----------------------
VIBRATIONAL FREQUENCIES
-----------------------

Scaling factor for frequencies =  1.000000000  (already applied!)

   0:         0.00 cm**-1
   1:         0.00 cm**-1
   2:         0.00 cm**-1
   3:         0.00 cm**-1
   4:         0.00 cm**-1
   5:         0.00 cm**-1
   6:        84.68 cm**-1
   7:       120.05 cm**-1
   8:       120.07 cm**-1
   9:       294.70 cm**-1
  10:       294.70 cm**-1
  11:       583.46 cm**-1
  12:      1446.56 cm**-1
  13:      1446.61 cm**-1
  14:      2986.43 cm**-1
  15:      3169.55 cm**-1
  16:      3362.31 cm**-1
  17:      3362.31 cm**-1


------------
NORMAL MODES
------------

These modes are the Cartesian displacements weighted by the diagonal matrix
M(i,i)=1/sqrt(m[i]) where m[i] is the mass of the displaced atom
Thus, these vectors are normalized but *not* orthogonal

                  0          1          2          3          4          5    
      0       0.000000   0.000000   0.000000   0.000000   0.000000   0.000000
      1       0.000000   0.000000   0.000000   0.000000   0.000000   0.000000
      2       0.000000   0.000000   0.000000   0.000000   0.000000   0.000000
      3       0.000000   0.000000   0.000000   0.000000   0.000000   0.000000
      4       0.000000   0.000000   0.000000   0.000000   0.000000   0.000000
      5       0.000000   0.000000   0.000000   0.000000   0.000000   0.000000
      6       0.000000   0.000000   0.000000   0.000000   0.000000   0.000000
      7       0.000000   0.000000   0.000000   0.000000   0.000000   0.000000
      8       0.000000   0.000000   0.000000   0.000000   0.000000   0.000000
      9       0.000000   0.000000   0.000000   0.000000   0.000000   0.000000
     10       0.000000   0.000000   0.000000   0.000000   0.000000   0.000000
     11       0.000000   0.000000   0.000000   0.000000   0.000000   0.000000
     12       0.000000   0.000000   0.000000   0.000000   0.000000   0.000000
     13       0.000000   0.000000   0.000000   0.000000   0.000000   0.000000
     14       0.000000   0.000000   0.000000   0.000000   0.000000   0.000000
     15       0.000000   0.000000   0.000000   0.000000   0.000000   0.000000
     16       0.000000   0.000000   0.000000   0.000000   0.000000   0.000000
     17       0.000000   0.000000   0.000000   0.000000   0.000000   0.000000
                  6          7          8          9         10         11    
      0       0.000000  -0.000001  -0.022412   0.034631   0.000000   0.000001
      1      -0.000000  -0.022414   0.000001  -0.000000   0.034633  -0.000000
      2      -0.493486   0.000000  -0.000001   0.000000  -0.000000  -0.139531
      3      -0.000228   0.000261   0.022889   0.016509   0.001117  -0.017024
      4       0.000394   0.022606   0.000247   0.001123   0.015210   0.029478
      5      -0.473460   0.651581  -0.376233   0.157150  -0.272196   0.570678
      6       0.000455   0.000001   0.022458   0.014564   0.000000   0.034040
      7       0.000000   0.023058  -0.000001  -0.000000   0.017144  -0.000000
      8      -0.473470   0.000034   0.752402  -0.314299  -0.000000   0.570682
      9       0.000003  -0.000017  -0.385359  -0.921788  -0.000001  -0.000001
     10      -0.000000  -0.385367   0.000017   0.000001  -0.921785  -0.000000
     11       0.208099  -0.000000   0.000000  -0.000000   0.000000   0.005337
     12      -0.000228  -0.000259   0.022889   0.016509  -0.001116  -0.017024
     13      -0.000394   0.022606  -0.000249  -0.001123   0.015210  -0.029478
     14      -0.473460  -0.651615  -0.376175   0.157149   0.272197   0.570678
     15      -0.000000   0.000001   0.016609   0.013123   0.000000   0.000000
     16       0.000000   0.016609  -0.000001  -0.000000   0.013123   0.000000
     17       0.201654  -0.000000   0.000000  -0.000000   0.000000  -0.001557
                 12         13         14         15         16         17    
      0       0.091970   0.000000  -0.000000   0.000003   0.100092   0.000001
      1       0.000000  -0.091967   0.000000   0.000000   0.000001  -0.100092
      2       0.000001  -0.000000  -0.001272   0.006902  -0.000000  -0.000000
      3      -0.586663   0.383611  -0.006405  -0.288267  -0.191416  -0.357612
      4      -0.383599   0.143697   0.011084   0.499322   0.357581   0.604376
      5      -0.021775  -0.037736   0.002033  -0.027773  -0.023969  -0.041517
      6       0.077787   0.000000   0.012810   0.576492  -0.810874  -0.000005
      7      -0.000000   0.808132   0.000000   0.000000   0.000000  -0.015027
      8       0.043540   0.000000   0.002033  -0.027769   0.047942   0.000000
      9      -0.001797  -0.000000   0.000000  -0.000001   0.001485   0.000000
     10      -0.000000   0.001794   0.000000   0.000000   0.000000  -0.001485
     11       0.000008   0.000000  -0.999336   0.021307  -0.000008  -0.000000
     12      -0.586663  -0.383612  -0.006405  -0.288267  -0.191420   0.357610
     13       0.383599   0.143698  -0.011084  -0.499322  -0.357588   0.604371
     14      -0.021775   0.037736   0.002033  -0.027773  -0.023969   0.041517
     15       0.000041   0.000000  -0.000000   0.000000  -0.000012  -0.000000
     16       0.000000  -0.000042  -0.000000  -0.000000  -0.000000   0.000012
     17      -0.000000   0.000000   0.028671  -0.000575   0.000000   0.000000


-----------
IR SPECTRUM
-----------

 Mode    freq (cm**-1)   T**2         TX         TY         TZ
-------------------------------------------------------------------
   6:        84.68    1.086068  (  0.000006  -0.000000   1.042146)
   7:       120.05    3.535159  ( -0.000084  -1.880202  -0.000000)
   8:       120.07    3.535209  ( -1.880215   0.000084  -0.000293)
   9:       294.70   31.729745  ( -5.632916   0.000009  -0.000186)
  10:       294.70   31.729928  ( -0.000009  -5.632932  -0.000000)
  11:       583.46  104.433693  (  0.000013  -0.000000  10.219280)
  12:      1446.56    3.722579  ( -1.929388  -0.000001   0.006501)
  13:      1446.61    3.726066  ( -0.000001   1.930302   0.000000)
  14:      2986.43  223.536099  ( -0.000007   0.000000 -14.951124)
  15:      3169.55    0.160282  (  0.000649   0.000000  -0.400352)
  16:      3362.31    1.196740  (  1.093954   0.000007   0.002054)
  17:      3362.31    1.198796  (  0.000007  -1.094895   0.000000)

The first frequency considered to be a vibration is 6
The total number of vibrations considered is 12


--------------------------
THERMOCHEMISTRY AT 298.15K
--------------------------

Temperature         ... 298.15 K
Pressure            ... 1.00 atm
Total Mass          ... 51.50 AMU

Throughout the following assumptions are being made:
  (1) The electronic state is orbitally nondegenerate
      but the spin degeneracy is treated
  (2) There are no thermally accessible electronically excited states
  (3) Hindered rotations indicated by low frequency modes are not
      treated as such but are treated as vibrations and this may
      cause some error
  (4) All equations used are the standard statistical mechanics
      equations for an ideal gas
  (5) All vibrations are strictly harmonic

freq.      84.68  E(vib)   ...       0.48 
freq.     120.05  E(vib)   ...       0.44 
freq.     120.07  E(vib)   ...       0.44 
freq.     294.70  E(vib)   ...       0.27 
freq.     294.70  E(vib)   ...       0.27 
freq.     583.46  E(vib)   ...       0.11 
freq.    1446.56  E(vib)   ...       0.00 
freq.    1446.61  E(vib)   ...       0.00 
freq.    2986.43  E(vib)   ...       0.00 
freq.    3169.55  E(vib)   ...       0.00 
freq.    3362.31  E(vib)   ...       0.00 
freq.    3362.31  E(vib)   ...       0.00 

------------
INNER ENERGY
------------

The inner energy is: U= E(el) + E(ZPE) + E(vib) + E(rot) + E(trans)
    E(el)   - is the total energy from the electronic structure calculation
              = E(kin-el) + E(nuc-el) + E(el-el) + E(nuc-nuc)
    E(ZPE)  - the the zero temperature vibrational energy from the frequency calculation
    E(vib)  - the the finite temperature correction to E(ZPE) due to population
              of excited vibrational states
    E(rot)  - is the rotational thermal energy
    E(trans)- is the translational thermal energy

Summary of contributions to the inner energy U:
Electronic energy                ...   -500.02195946 Eh
Zero point energy                ...      0.03934723 Eh      24.69 kcal/mol
Thermal vibrational correction   ...      0.00319358 Eh       2.00 kcal/mol
Thermal rotational correction    ...      0.00141627 Eh       0.89 kcal/mol
Thermal translational correction ...      0.00141627 Eh       0.89 kcal/mol
-----------------------------------------------------------------------
Total thermal energy                   -499.97658611 Eh


Summary of corrections to the electronic energy:
(perhaps to be used in another calculation)
Total thermal correction                  0.00602612 Eh       3.78 kcal/mol
Non-thermal (ZPE) correction              0.03934723 Eh      24.69 kcal/mol
-----------------------------------------------------------------------
Total correction                          0.04537335 Eh      28.47 kcal/mol


--------
ENTHALPY
--------

The enthalpy is H = U + kB*T
                kB is Boltzmann's constant
Total free energy                 ...   -499.97658611 Eh 
Thermal Enthalpy correction       ...      0.00094421 Eh       0.59 kcal/mol
-----------------------------------------------------------------------
Total Enthalpy                    ...   -499.97564190 Eh


Note: Rotational entropy computed according to Herzberg 
Infrared and Raman Spectra, Chapter V,1, Van Nostrand Reinhold, 1945 
Point Group:  C3v, Symmetry Number:   3  
Rotational constants in cm-1:     4.795856     0.116815     0.116815 

Vibrational entropy computed according to the QRRHO of S. Grimme
Chem.Eur.J. 2012 18 9955


-------
ENTROPY
-------

The entropy contributions are T*S = T*(S(el)+S(vib)+S(rot)+S(trans))
     S(el)   - electronic entropy
     S(vib)  - vibrational entropy
     S(rot)  - rotational entropy
     S(trans)- translational entropy
The entropies will be listed as mutliplied by the temperature to get
units of energy

Electronic entropy                ...      0.00065446 Eh      0.41 kcal/mol
Vibrational entropy               ...      0.00599229 Eh      3.76 kcal/mol
Rotational entropy                ...      0.00976071 Eh      6.12 kcal/mol
Translational entropy             ...      0.01793131 Eh     11.25 kcal/mol
-----------------------------------------------------------------------
Final entropy term                ...      0.03433877 Eh     21.55 kcal/mol

In case the symmetry of your molecule has not been determined correctly
or in case you have a reason to use a different symmetry number we print 
out the resulting rotational entropy values for sn=1,12 :
 --------------------------------------------------------
|  sn= 1 | S(rot)=       0.01079800 Eh      6.78 kcal/mol|
|  sn= 2 | S(rot)=       0.01014354 Eh      6.37 kcal/mol|
|  sn= 3 | S(rot)=       0.00976071 Eh      6.12 kcal/mol|
|  sn= 4 | S(rot)=       0.00948909 Eh      5.95 kcal/mol|
|  sn= 5 | S(rot)=       0.00927840 Eh      5.82 kcal/mol|
|  sn= 6 | S(rot)=       0.00910625 Eh      5.71 kcal/mol|
|  sn= 7 | S(rot)=       0.00896071 Eh      5.62 kcal/mol|
|  sn= 8 | S(rot)=       0.00883463 Eh      5.54 kcal/mol|
|  sn= 9 | S(rot)=       0.00872342 Eh      5.47 kcal/mol|
|  sn=10 | S(rot)=       0.00862394 Eh      5.41 kcal/mol|
|  sn=11 | S(rot)=       0.00853395 Eh      5.36 kcal/mol|
|  sn=12 | S(rot)=       0.00845180 Eh      5.30 kcal/mol|
 --------------------------------------------------------


-------------------
GIBBS FREE ENERGY
-------------------

The Gibbs free energy is G = H - T*S

Total enthalpy                    ...   -499.97564190 Eh 
Total entropy correction          ...     -0.03433877 Eh    -21.55 kcal/mol
-----------------------------------------------------------------------
Final Gibbs free energy         ...   -500.00998067 Eh

For completeness - the Gibbs free energy minus the electronic energy
G-E(el)                           ...      0.01197879 Eh      7.52 kcal/mol


Timings for individual modules:

Sum of individual times         ...       66.389 sec (=   1.106 min)
GTO integral calculation        ...        1.463 sec (=   0.024 min)   2.2 %
SCF iterations                  ...        6.052 sec (=   0.101 min)   9.1 %
MP2 module                      ...        7.636 sec (=   0.127 min)  11.5 %
Geometry relaxation             ...        0.052 sec (=   0.001 min)   0.1 %
Analytical frequency calculation...       51.186 sec (=   0.853 min)  77.1 %
                             ****ORCA TERMINATED NORMALLY****
TOTAL RUN TIME: 0 days 0 hours 1 minutes 7 seconds 46 msec
