
                                 *****************
                                 * O   R   C   A *
                                 *****************

           --- An Ab Initio, DFT and Semiempirical electronic structure package ---

                  #######################################################
                  #                        -***-                        #
                  #          Department of theory and spectroscopy      #
                  #               Directorship: Frank Neese             #
                  #        Max Planck Institute fuer Kohlenforschung    #
                  #                Kaiser Wilhelm Platz 1               #
                  #                 D-45470 Muelheim/Ruhr               #
                  #                      Germany                        #
                  #                                                     #
                  #                  All rights reserved                #
                  #                        -***-                        #
                  #######################################################


                         Program Version 4.2.1 -  RELEASE  -


 With contributions from (in alphabetic order):
   Daniel Aravena         : Magnetic Suceptibility
   Michael Atanasov       : Ab Initio Ligand Field Theory (pilot matlab implementation)
   Alexander A. Auer      : GIAO ZORA, VPT2
   Ute Becker             : Parallelization
   Giovanni Bistoni       : ED, misc. LED, open-shell LED, HFLD
   Martin Brehm           : Molecular dynamics
   Dmytro Bykov           : SCF Hessian
   Vijay G. Chilkuri      : MRCI spin determinant printing, contributions to CSF-ICE
   Dipayan Datta          : RHF DLPNO-CCSD density
   Achintya Kumar Dutta   : EOM-CC, STEOM-CC
   Dmitry Ganyushin       : Spin-Orbit,Spin-Spin,Magnetic field MRCI
   Miquel Garcia          : C-PCM Hessian, Gaussian charge scheme
   Yang Guo               : DLPNO-NEVPT2, CIM, IAO-localization
   Andreas Hansen         : Spin unrestricted coupled pair/coupled cluster methods
   Benjamin Helmich-Paris : CASSCF linear response (MC-RPA)
   Lee Huntington         : MR-EOM, pCC
   Robert Izsak           : Overlap fitted RIJCOSX, COSX-SCS-MP3, EOM
   Christian Kollmar      : KDIIS, OOCD, Brueckner-CCSD(T), CCSD density
   Simone Kossmann        : Meta GGA functionals, TD-DFT gradient, OOMP2, MP2 Hessian
   Martin Krupicka        : AUTO-CI
   Lucas Lang             : DCDCAS
   Dagmar Lenk            : GEPOL surface, SMD
   Dimitrios Liakos       : Extrapolation schemes; Compound Job, initial MDCI parallelization
   Dimitrios Manganas     : Further ROCIS development; embedding schemes
   Dimitrios Pantazis     : SARC Basis sets
   Taras Petrenko         : DFT Hessian,TD-DFT gradient, ASA, ECA, R-Raman, ABS, FL, XAS/XES, NRVS
   Peter Pinski           : DLPNO-MP2, DLPNO-MP2 Gradient
   Christoph Reimann      : Effective Core Potentials
   Marius Retegan         : Local ZFS, SOC
   Christoph Riplinger    : Optimizer, TS searches, QM/MM, DLPNO-CCSD(T), (RO)-DLPNO pert. Triples
   Tobias Risthaus        : Range-separated hybrids, TD-DFT gradient, RPA, STAB
   Michael Roemelt        : Original ROCIS implementation
   Masaaki Saitow         : Open-shell DLPNO-CCSD energy and density
   Barbara Sandhoefer     : DKH picture change effects
   Avijit Sen             : IP-ROCIS
   Kantharuban Sivalingam : CASSCF convergence, NEVPT2, FIC-MRCI
   Bernardo de Souza      : ESD, SOC TD-DFT
   Georgi Stoychev        : AutoAux, RI-MP2 NMR
   Willem Van den Heuvel  : Paramagnetic NMR
   Boris Wezisla          : Elementary symmetry handling
   Frank Wennmohs         : Technical directorship


 We gratefully acknowledge several colleagues who have allowed us to
 interface, adapt or use parts of their codes:
   Stefan Grimme, W. Hujo, H. Kruse,             : VdW corrections, initial TS optimization,
                  C. Bannwarth                     DFT functionals, gCP, sTDA/sTD-DF
   Ed Valeev, F. Pavosevic, A. Kumar             : LibInt (2-el integral package), F12 methods
   Garnet Chan, S. Sharma, J. Yang, R. Olivares  : DMRG
   Ulf Ekstrom                                   : XCFun DFT Library
   Mihaly Kallay                                 : mrcc  (arbitrary order and MRCC methods)
   Andreas Klamt, Michael Diedenhofen            : otool_cosmo (COSMO solvation model)
   Jiri Pittner, Ondrej Demel                    : Mk-CCSD
   Frank Weinhold                                : gennbo (NPA and NBO analysis)
   Christopher J. Cramer and Donald G. Truhlar   : smd solvation model
   Lars Goerigk                                  : TD-DFT with DH, B97 family of functionals
   V. Asgeirsson, H. Jonsson                     : NEB implementation
   FAccTs GmbH                                   : IRC, NEB, NEB-TS, Multilevel, MM, QM/MM, CI optimization
   S Lehtola, MJT Oliveira, MAL Marques          : LibXC Library


 Your calculation uses the libint2 library for the computation of 2-el integrals
 For citations please refer to: http://libint.valeyev.net

 Your ORCA version has been built with support for libXC version: 4.2.3
 For citations please refer to: https://tddft.org/programs/libxc/

 This ORCA versions uses:
   CBLAS   interface :  Fast vector & matrix operations
   LAPACKE interface :  Fast linear algebra routines
   SCALAPACK package :  Parallel linear algebra routines


----- Orbital basis set information -----
Your calculation utilizes the basis: 6-311G(d,p)
   H, Li - Ne  : R. Krishnan, J. S. Binkley, R. Seeger and J. A. Pople, J. Chem. Phys. 72, 650 (1980).
   Na - Ar     : A. D. McLean and G. S. Chandler J. Chem. Phys. 72, 5639, (1980).
   K  - Ca     : J.-P. Blaudeau, M. P. McGrath, L. A. Curtiss and L. Radom, J. Chem. Phys. 107, 5016 (1997).
   Ga - Kr     : L. A. Curtiss, M. P. McGrath, J.-P. Blandeau, N. E. Davis, R. C. Binning and L. Radom, J. Chem. Phys. 103, 6104 (1995).
   Pol./Diff.
   H, Li - Cl  : T. Clark, J. Chandrasekhar and P. v. R. Schleyer, J. Comp. Chem. 4, 294 (1983).
   H - Ne      : M. J. Frisch, J. A. Pople and J. S. Binkley, J. Chem. Phys. 80, 3265 (1984).

================================================================================
                                        WARNINGS
                       Please study these warnings very carefully!
================================================================================


WARNING: Geometry Optimization
  ===> : Switching off AutoStart
         For restart on a previous wavefunction, please use MOREAD

WARNING: Post HF methods need fully converged wavefunctions
  ===> : Setting SCFConvForced true
         You can overwrite this default with %scf ConvForced false 


INFO   : the flag for use of LIBINT has been found!

================================================================================
                                       INPUT FILE
================================================================================
NAME = reactants.inp
|  1> ! UHF MP2 6-311G(d,p) Opt Freq NoFrozenCore TightOpt TightSCF Grid4 FinalGrid5 PrintBasis PrintMOs NBO
|  2> %maxcore 3000
|  3> 
|  4> *xyz 0 2
|  5> C        0.000024000      0.000000000     -3.007300000
|  6> H       -0.513677000      0.889606000     -3.371199000
|  7> H        1.027314000      0.000000000     -3.371124000
|  8> H        0.000001000      0.000000000     -1.917973000
|  9> H       -0.513677000     -0.889606000     -3.371199000
| 10> Cl       0.000014000      0.000000000      1.378813000
| 11> *
| 12> 
| 13> %pal
| 14>  nprocs 12
| 15> end
| 16> 
| 17>                          ****END OF INPUT****
================================================================================

                       *****************************
                       * Geometry Optimization Run *
                       *****************************

Geometry optimization settings:
Update method            Update   .... BFGS
Choice of coordinates    CoordSys .... Z-matrix Internals
Initial Hessian          InHess   .... Almoef's Model

Convergence Tolerances:
Energy Change            TolE     ....  1.0000e-06 Eh
Max. Gradient            TolMAXG  ....  1.0000e-04 Eh/bohr
RMS Gradient             TolRMSG  ....  3.0000e-05 Eh/bohr
Max. Displacement        TolMAXD  ....  1.0000e-03 bohr
RMS Displacement         TolRMSD  ....  6.0000e-04 bohr
Strict Convergence                ....  False
------------------------------------------------------------------------------
                        ORCA OPTIMIZATION COORDINATE SETUP
------------------------------------------------------------------------------

The optimization will be done in new redundant internal coordinates
Making redundant internal coordinates   ...  (new redundants) done
Evaluating the initial hessian          ...  (Almloef) done
Evaluating the coordinates              ...  done
Calculating the B-matrix                .... done
Calculating the G-matrix                .... done
Diagonalizing the G-matrix              .... done
The first mode is                       ....    1
The number of degrees of freedom        ....   12

    -----------------------------------------------------------------
                    Redundant Internal Coordinates


    -----------------------------------------------------------------
         Definition                    Initial Value    Approx d2E/dq
    -----------------------------------------------------------------
      1. B(H   1,C   0)                  1.0898         0.360337   
      2. B(H   2,C   0)                  1.0898         0.360347   
      3. B(H   3,C   0)                  1.0893         0.360991   
      4. B(H   4,C   0)                  1.0898         0.360337   
      5. B(Cl  5,H   3)                  3.2968         0.000244   
      6. A(H   1,C   0,H   2)          109.4418         0.290901   
      7. A(H   1,C   0,H   4)          109.4295         0.290899   
      8. A(H   1,C   0,H   3)          109.5055         0.290982   
      9. A(H   2,C   0,H   4)          109.4418         0.290901   
     10. A(H   3,C   0,H   4)          109.5055         0.290982   
     11. A(H   2,C   0,H   3)          109.5033         0.290984   
     12. L(C   0,H   3,Cl  5,H   2, 1) 179.9986         0.130816   
     13. L(C   0,H   3,Cl  5,H   2, 2) 180.0000         0.130816   
    -----------------------------------------------------------------

Number of atoms                         .... 6
Number of degrees of freedom            .... 13

         *************************************************************
         *                GEOMETRY OPTIMIZATION CYCLE   1            *
         *************************************************************
---------------------------------
CARTESIAN COORDINATES (ANGSTROEM)
---------------------------------
  C      0.000024    0.000000   -3.007300
  H     -0.513677    0.889606   -3.371199
  H      1.027314    0.000000   -3.371124
  H      0.000001    0.000000   -1.917973
  H     -0.513677   -0.889606   -3.371199
  Cl     0.000014    0.000000    1.378813

----------------------------
CARTESIAN COORDINATES (A.U.)
----------------------------
  NO LB      ZA    FRAG     MASS         X           Y           Z
   0 C     6.0000    0    12.011    0.000045    0.000000   -5.682973
   1 H     1.0000    0     1.008   -0.970709    1.681112   -6.370643
   2 H     1.0000    0     1.008    1.941342    0.000000   -6.370501
   3 H     1.0000    0     1.008    0.000002    0.000000   -3.624444
   4 H     1.0000    0     1.008   -0.970709   -1.681112   -6.370643
   5 Cl   17.0000    0    35.453    0.000026    0.000000    2.605579

--------------------------------
INTERNAL COORDINATES (ANGSTROEM)
--------------------------------
 C      0   0   0     0.000000000000     0.00000000     0.00000000
 H      1   0   0     1.089821102217     0.00000000     0.00000000
 H      1   2   0     1.089813124841   109.44176449     0.00000000
 H      1   2   3     1.089327000243   109.50548780   120.04219096
 H      1   2   3     1.089821102217   109.42948875   240.07957322
 Cl     4   1   2     3.296786000026   179.99856433   239.99543933

---------------------------
INTERNAL COORDINATES (A.U.)
---------------------------
 C      0   0   0     0.000000000000     0.00000000     0.00000000
 H      1   0   0     2.059463418159     0.00000000     0.00000000
 H      1   2   0     2.059448343103   109.44176449     0.00000000
 H      1   2   3     2.058529700745   109.50548780   120.04219096
 H      1   2   3     2.059463418159   109.42948875   240.07957322
 Cl     4   1   2     6.230022662194   179.99856433   239.99543933

---------------------
BASIS SET INFORMATION
---------------------
There are 3 groups of distinct atoms

 Group   1 Type C   : 11s5p1d contracted to 4s3p1d pattern {6311/311/1}
 Group   2 Type H   : 5s1p contracted to 3s1p pattern {311/1}
 Group   3 Type Cl  : 13s10p1d contracted to 6s5p1d pattern {631111/52111/1}

Atom   0C    basis set group =>   1
Atom   1H    basis set group =>   2
Atom   2H    basis set group =>   2
Atom   3H    basis set group =>   2
Atom   4H    basis set group =>   2
Atom   5Cl   basis set group =>   3

-------------------------
BASIS SET IN INPUT FORMAT
-------------------------

 # Basis set for element : H 
 NewGTO H 
 S 3 
   1      33.8650000000      0.0254938145
   2       5.0947900000      0.1903731086
   3       1.1587900000      0.8521614860
 S 1 
   1       0.3258400000      1.0000000000
 S 1 
   1       0.1027410000      1.0000000000
 P 1 
   1       0.7500000000      1.0000000000
  end;

 # Basis set for element : C 
 NewGTO C 
 S 6 
   1    4563.2400000000      0.0019666502
   2     682.0240000000      0.0152306019
   3     154.9730000000      0.0761269097
   4      44.4553000000      0.2608010331
   5      13.0290000000      0.6164620782
   6       1.8277300000      0.2210060280
 S 3 
   1      20.9642000000      0.1146600807
   2       4.8033100000      0.9199996477
   3       1.4593300000     -0.0030306821
 P 3 
   1      20.9642000000      0.0402486927
   2       4.8033100000      0.2375939567
   3       1.4593300000      0.8158538515
 S 1 
   1       0.4834560000      1.0000000000
 P 1 
   1       0.4834560000      1.0000000000
 S 1 
   1       0.1455850000      1.0000000000
 P 1 
   1       0.1455850000      1.0000000000
 D 1 
   1       0.6260000000      1.0000000000
  end;

 # Basis set for element : Cl
 NewGTO Cl
 S 6 
   1  105819.0000000000      0.0007380002
   2   15872.0000000000      0.0057180019
   3    3619.6500000000      0.0294950099
   4    1030.8000000000      0.1172860392
   5     339.9080000000      0.3629491212
   6     124.5380000000      0.5841491951
 S 3 
   1     124.5380000000      0.1341769734
   2      49.5135000000      0.6242498762
   3      20.8056000000      0.2917559421
 S 1 
   1       6.5834600000      1.0000000000
 S 1 
   1       2.5646800000      1.0000000000
 S 1 
   1       0.5597630000      1.0000000000
 S 1 
   1       0.1832730000      1.0000000000
 P 5 
   1     589.7760000000      0.0023909997
   2     139.8490000000      0.0185039976
   3      45.1413000000      0.0813769893
   4      16.8733000000      0.2215519708
   5       6.7411000000      0.7725688983
 P 2 
   1       6.7411000000     -1.5722438126
   2       2.7715200000      0.9923888817
 P 1 
   1       1.0238700000      1.0000000000
 P 1 
   1       0.3813680000      1.0000000000
 P 1 
   1       0.1094370000      1.0000000000
 D 1 
   1       0.7500000000      1.0000000000
  end;



           ************************************************************
           *        Program running with 12 parallel MPI-processes    *
           *              working on a common directory               *
           ************************************************************
------------------------------------------------------------------------------
                           ORCA GTO INTEGRAL CALCULATION
------------------------------------------------------------------------------

                         BASIS SET STATISTICS AND STARTUP INFO

 # of primitive gaussian shells          ...   65
 # of primitive gaussian functions       ...  111
 # of contracted shells                  ...   36
 # of contracted basis functions         ...   68
 Highest angular momentum                ...    2
 Maximum contraction depth               ...    6
 Integral package used                   ... LIBINT
 Integral threshhold            Thresh   ...  2.500e-11
 Primitive cut-off              TCut     ...  2.500e-12


------------------------------ INTEGRAL EVALUATION ----------------------------


 * One electron integrals 
 Pre-screening matrix                    ... done
 Shell pair data                         ... done (   0.000 sec)



           ************************************************************
           *        Program running with 12 parallel MPI-processes    *
           *              working on a common directory               *
           ************************************************************
-------------------------------------------------------------------------------
                                 ORCA SCF
-------------------------------------------------------------------------------

------------
SCF SETTINGS
------------
Hamiltonian:
 Ab initio Hamiltonian  Method          .... Hartree-Fock(GTOs)


General Settings:
 Integral files         IntName         .... reactants
 Hartree-Fock type      HFTyp           .... UHF
 Total Charge           Charge          ....    0
 Multiplicity           Mult            ....    2
 Number of Electrons    NEL             ....   27
 Basis Dimension        Dim             ....   68
 Nuclear Repulsion      ENuc            ....     34.0273151478 Eh

Convergence Acceleration:
 DIIS                   CNVDIIS         .... on
   Start iteration      DIISMaxIt       ....    12
   Startup error        DIISStart       ....  0.200000
   # of expansion vecs  DIISMaxEq       ....     5
   Bias factor          DIISBfac        ....   1.050
   Max. coefficient     DIISMaxC        ....  10.000
 Newton-Raphson         CNVNR           .... off
 SOSCF                  CNVSOSCF        .... off
 Level Shifting         CNVShift        .... on
   Level shift para.    LevelShift      ....    0.2500
   Turn off err/grad.   ShiftErr        ....    0.0010
 Zerner damping         CNVZerner       .... off
 Static damping         CNVDamp         .... on
   Fraction old density DampFac         ....    0.7000
   Max. Damping (<1)    DampMax         ....    0.9800
   Min. Damping (>=0)   DampMin         ....    0.0000
   Turn off err/grad.   DampErr         ....    0.1000
 Fernandez-Rico         CNVRico         .... off

SCF Procedure:
 Maximum # iterations   MaxIter         ....   125
 SCF integral mode      SCFMode         .... Direct
   Integral package                     .... LIBINT
 Reset frequency        DirectResetFreq ....    20
 Integral Threshold     Thresh          ....  2.500e-11 Eh
 Primitive CutOff       TCut            ....  2.500e-12 Eh

Convergence Tolerance:
 Convergence Check Mode ConvCheckMode   .... Total+1el-Energy
 Convergence forced     ConvForced      .... 1
 Energy Change          TolE            ....  1.000e-08 Eh
 1-El. energy change                    ....  1.000e-05 Eh
 DIIS Error             TolErr          ....  5.000e-07


Diagonalization of the overlap matrix:
Smallest eigenvalue                        ... 1.211e-02
Time for diagonalization                   ...    0.002 sec
Threshold for overlap eigenvalues          ... 1.000e-08
Number of eigenvalues below threshold      ... 0
Time for construction of square roots      ...    0.002 sec
Total time needed                          ...    0.006 sec

-------------------
DFT GRID GENERATION
-------------------

General Integration Accuracy     IntAcc      ...  4.670
Radial Grid Type                 RadialGrid  ... Gauss-Chebyshev
Angular Grid (max. acc.)         AngularGrid ... Lebedev-302
Angular grid pruning method      GridPruning ... 3 (G Style)
Weight generation scheme         WeightScheme... Becke
Basis function cutoff            BFCut       ...    1.0000e-11
Integration weight cutoff        WCut        ...    1.0000e-14
Grids for H and He will be reduced by one unit

# of grid points (after initial pruning)     ...  26526 (   0.0 sec)
# of grid points (after weights+screening)   ...  25845 (   0.0 sec)
nearest neighbour list constructed           ...    0.0 sec
Grid point re-assignment to atoms done       ...    0.0 sec
Grid point division into batches done        ...    0.1 sec
Reduced shell lists constructed in    0.1 sec

Total number of grid points                  ...    25845
Total number of batches                      ...      407
Average number of points per batch           ...       63
Average number of grid points per atom       ...     4308
Average number of shells per batch           ...    26.09 (72.46%)
Average number of basis functions per batch  ...    47.17 (69.37%)
Average number of large shells per batch     ...    24.94 (95.62%)
Average number of large basis fcns per batch ...    44.37 (94.06%)
Maximum spatial batch extension              ...   1.50,  1.41,  1.44 au
Average spatial batch extension              ...   0.07,  0.08,  0.07 au

Time for grid setup =    0.170 sec

------------------------------
INITIAL GUESS: MODEL POTENTIAL
------------------------------
Loading Hartree-Fock densities                     ... done
Calculating cut-offs                               ... done
Setting up the integral package                    ... done
Initializing the effective Hamiltonian             ... done
Starting the Coulomb interaction                   ... done (   0.0 sec)
Reading the grid                                   ... done
Mapping shells                                     ... done
Starting the XC term evaluation                    ... done (   0.0 sec)
Transforming the Hamiltonian                       ... done (   0.0 sec)
Diagonalizing the Hamiltonian                      ... done (   0.0 sec)
Back transforming the eigenvectors                 ... done (   0.0 sec)
Now organizing SCF variables                       ... done
                      ------------------
                      INITIAL GUESS DONE (   0.3 sec)
                      ------------------
--------------
SCF ITERATIONS
--------------
ITER       Energy         Delta-E        Max-DP      RMS-DP      [F,P]     Damp
               ***  Starting incremental Fock matrix formation  ***
  0   -499.5474434085   0.000000000000 0.03120357  0.00082608  0.6516144 0.7000
  1   -499.5945215186  -0.047078110157 0.02156637  0.00064450  0.4573695 0.7000
  2   -499.6233243760  -0.028802857365 0.01241427  0.00043260  0.3209465 0.7000
  3   -499.6415277877  -0.018203411683 0.00731716  0.00028721  0.2252666 0.7000
                               ***Turning on DIIS***
  4   -499.6537029989  -0.012175211224 0.00581712  0.00019779  0.1581442 0.7000
  5   -499.7150334279  -0.061330428975 0.00516665  0.00015278  0.1110447 0.7000
  6   -499.7069200853   0.008113342567 0.01436312  0.00040787  0.0778734 0.0000
  7   -499.6827027843   0.024217301014 0.00190439  0.00005442  0.0019992 0.0000
  8   -499.6820034602   0.000699324130 0.00145081  0.00004231  0.0008716 0.0000
  9   -499.6818959149   0.000107545303 0.00020514  0.00000692  0.0001624 0.0000
 10   -499.6818857211   0.000010193753 0.00005254  0.00000152  0.0000386 0.0000
 11   -499.6819412818  -0.000055560714 0.00003081  0.00000093  0.0000146 0.0000
 12   -499.6819238220   0.000017459835 0.00001295  0.00000040  0.0000036 0.0000
                            ***DIIS convergence achieved***

               *****************************************************
               *                     SUCCESS                       *
               *           SCF CONVERGED AFTER  13 CYCLES          *
               *****************************************************


----------------
TOTAL SCF ENERGY
----------------

Total Energy       :         -499.68192608 Eh          -13597.03647 eV

Components:
Nuclear Repulsion  :           34.02731515 Eh             925.93032 eV
Electronic Energy  :         -533.70924123 Eh          -14522.96679 eV
One Electron Energy:         -755.70370022 Eh          -20563.74312 eV
Two Electron Energy:          221.99445899 Eh            6040.77634 eV

Virial components:
Potential Energy   :         -999.32718921 Eh          -27193.07529 eV
Kinetic Energy     :          499.64526313 Eh           13596.03882 eV
Virial Ratio       :            2.00007338


---------------
SCF CONVERGENCE
---------------

  Last Energy change         ...   -2.2596e-06  Tolerance :   1.0000e-08
  Last MAX-Density change    ...    4.3114e-06  Tolerance :   1.0000e-07
  Last RMS-Density change    ...    1.3064e-07  Tolerance :   5.0000e-09
  Last DIIS Error            ...    7.3563e-07  Tolerance :   5.0000e-07

             **** THE GBW FILE WAS UPDATED (reactants.gbw) ****
             **** DENSITY FILE WAS UPDATED (reactants.scfp) ****
             **** ENERGY FILE WAS UPDATED (reactants.en.tmp) ****
----------------------
UHF SPIN CONTAMINATION
----------------------

Expectation value of <S**2>     :     0.755183
Ideal value S*(S+1) for S=0.5   :     0.750000
Deviation                       :     0.005183

             **** THE GBW FILE WAS UPDATED (reactants.gbw) ****
             **** DENSITY FILE WAS UPDATED (reactants.scfp) ****
----------------
ORBITAL ENERGIES
----------------
                 SPIN UP ORBITALS
  NO   OCC          E(Eh)            E(eV) 
   0   1.0000    -104.892327     -2854.2653 
   1   1.0000     -11.206098      -304.9334 
   2   1.0000     -10.616081      -288.8783 
   3   1.0000      -8.102597      -220.4829 
   4   1.0000      -8.077256      -219.7933 
   5   1.0000      -8.077236      -219.7928 
   6   1.0000      -1.138991       -30.9935 
   7   1.0000      -0.941408       -25.6170 
   8   1.0000      -0.581272       -15.8172 
   9   1.0000      -0.544668       -14.8212 
  10   1.0000      -0.543348       -14.7853 
  11   1.0000      -0.543309       -14.7842 
  12   1.0000      -0.506537       -13.7836 
  13   1.0000      -0.505736       -13.7618 
  14   0.0000       0.163995         4.4625 
  15   0.0000       0.237572         6.4647 
  16   0.0000       0.237757         6.4697 
  17   0.0000       0.249962         6.8018 
  18   0.0000       0.371718        10.1150 
  19   0.0000       0.399318        10.8660 
  20   0.0000       0.428330        11.6554 
  21   0.0000       0.432072        11.7573 
  22   0.0000       0.436015        11.8646 
  23   0.0000       0.463551        12.6139 
  24   0.0000       0.736390        20.0382 
  25   0.0000       0.754779        20.5386 
  26   0.0000       0.813140        22.1267 
  27   0.0000       0.813269        22.1302 
  28   0.0000       0.873420        23.7670 
  29   0.0000       0.986522        26.8446 
  30   0.0000       1.047408        28.5014 
  31   0.0000       1.055797        28.7297 
  32   0.0000       1.055941        28.7336 
  33   0.0000       1.110647        30.2222 
  34   0.0000       1.135028        30.8857 
  35   0.0000       1.203466        32.7480 
  36   0.0000       1.203478        32.7483 
  37   0.0000       1.722303        46.8662 
  38   0.0000       1.722426        46.8696 
  39   0.0000       1.722462        46.8706 
  40   0.0000       1.724928        46.9377 
  41   0.0000       1.725141        46.9435 
  42   0.0000       1.725264        46.9468 
  43   0.0000       2.181835        59.3708 
  44   0.0000       2.181909        59.3728 
  45   0.0000       2.200504        59.8787 
  46   0.0000       2.371357        64.5279 
  47   0.0000       2.425907        66.0123 
  48   0.0000       2.462360        67.0042 
  49   0.0000       2.526444        68.7480 
  50   0.0000       2.623126        71.3789 
  51   0.0000       2.623267        71.3827 
  52   0.0000       2.703784        73.5737 
  53   0.0000       2.703856        73.5757 
  54   0.0000       2.707872        73.6849 
  55   0.0000       2.902722        78.9871 
  56   0.0000       2.902760        78.9881 
  57   0.0000       2.923427        79.5505 
  58   0.0000       3.198388        87.0326 
  59   0.0000       4.193069       114.0992 
  60   0.0000       4.193282       114.1050 
  61   0.0000       4.202086       114.3446 
  62   0.0000       9.960563       271.0407 
  63   0.0000      25.160967       684.6647 
  64   0.0000      26.130690       711.0522 
  65   0.0000      26.175543       712.2727 
  66   0.0000      26.288800       715.3546 
  67   0.0000     218.754735      5952.6190 

                 SPIN DOWN ORBITALS
  NO   OCC          E(Eh)            E(eV) 
   0   1.0000    -104.881208     -2853.9628 
   1   1.0000     -11.206106      -304.9337 
   2   1.0000     -10.604548      -288.5644 
   3   1.0000      -8.071271      -219.6304 
   4   1.0000      -8.071258      -219.6301 
   5   1.0000      -8.053522      -219.1475 
   6   1.0000      -1.016733       -27.6667 
   7   1.0000      -0.941428       -25.6176 
   8   1.0000      -0.544242       -14.8096 
   9   1.0000      -0.543354       -14.7854 
  10   1.0000      -0.543312       -14.7843 
  11   1.0000      -0.480564       -13.0768 
  12   1.0000      -0.480373       -13.0716 
  13   0.0000      -0.047993        -1.3059 
  14   0.0000       0.164219         4.4686 
  15   0.0000       0.237618         6.4659 
  16   0.0000       0.237757         6.4697 
  17   0.0000       0.251703         6.8492 
  18   0.0000       0.404026        10.9941 
  19   0.0000       0.421166        11.4605 
  20   0.0000       0.428354        11.6561 
  21   0.0000       0.437442        11.9034 
  22   0.0000       0.455963        12.4074 
  23   0.0000       0.470275        12.7968 
  24   0.0000       0.754035        20.5183 
  25   0.0000       0.754904        20.5420 
  26   0.0000       0.813139        22.1266 
  27   0.0000       0.813262        22.1300 
  28   0.0000       0.878631        23.9088 
  29   0.0000       0.995222        27.0814 
  30   0.0000       1.121224        30.5101 
  31   0.0000       1.139646        31.0114 
  32   0.0000       1.154064        31.4037 
  33   0.0000       1.154239        31.4084 
  34   0.0000       1.176102        32.0034 
  35   0.0000       1.203464        32.7479 
  36   0.0000       1.203470        32.7481 
  37   0.0000       1.722323        46.8668 
  38   0.0000       1.722423        46.8695 
  39   0.0000       1.722458        46.8705 
  40   0.0000       1.724929        46.9377 
  41   0.0000       1.725163        46.9441 
  42   0.0000       1.725267        46.9469 
  43   0.0000       2.181873        59.3718 
  44   0.0000       2.181914        59.3729 
  45   0.0000       2.200586        59.8810 
  46   0.0000       2.436354        66.2966 
  47   0.0000       2.451442        66.7071 
  48   0.0000       2.472059        67.2681 
  49   0.0000       2.527000        68.7632 
  50   0.0000       2.623181        71.3804 
  51   0.0000       2.623271        71.3828 
  52   0.0000       2.703852        73.5756 
  53   0.0000       2.703866        73.5759 
  54   0.0000       2.707884        73.6853 
  55   0.0000       2.902721        78.9871 
  56   0.0000       2.902757        78.9880 
  57   0.0000       2.923462        79.5515 
  58   0.0000       3.198409        87.0331 
  59   0.0000       4.193065       114.0991 
  60   0.0000       4.193278       114.1049 
  61   0.0000       4.202085       114.3446 
  62   0.0000       9.978639       271.5326 
  63   0.0000      25.160962       684.6646 
  64   0.0000      26.154689       711.7053 
  65   0.0000      26.180669       712.4122 
  66   0.0000      26.293892       715.4932 
  67   0.0000     218.760774      5952.7833 
------------------
MOLECULAR ORBITALS
------------------
                      0         1         2         3         4         5   
                 -104.89233 -11.20610 -10.61608  -8.10260  -8.07726  -8.07724
                   1.00000   1.00000   1.00000   1.00000   1.00000   1.00000
                  --------  --------  --------  --------  --------  --------
  0C   1s        -0.000000  0.563328  0.000000 -0.000000 -0.000000  0.000000
  0C   2s         0.000000  0.466540  0.000017  0.000000 -0.000002  0.000000
  0C   1pz        0.000002 -0.000021  0.000121 -0.000000 -0.000004  0.000000
  0C   1px       -0.000000 -0.000001  0.000000 -0.000000 -0.000000  0.000000
  0C   1py       -0.000000 -0.000000  0.000000 -0.000000 -0.000000 -0.000000
  0C   3s        -0.000003  0.004448 -0.000280 -0.000000  0.000039 -0.000000
  0C   2pz       -0.000007  0.000033 -0.000572  0.000000  0.000025 -0.000000
  0C   2px        0.000000  0.000001 -0.000000 -0.000000  0.000000  0.000005
  0C   2py        0.000000  0.000000 -0.000000 -0.000005  0.000000 -0.000000
  0C   4s         0.000022 -0.001138  0.001922  0.000000 -0.000307  0.000000
  0C   3pz        0.000014 -0.000044  0.001289 -0.000000 -0.000151  0.000000
  0C   3px       -0.000000 -0.000000  0.000000 -0.000000 -0.000000  0.000019
  0C   3py       -0.000000 -0.000000  0.000000 -0.000021 -0.000000 -0.000000
  0C   1dz2      -0.000001  0.000008 -0.000075  0.000000 -0.000004  0.000000
  0C   1dxz       0.000000 -0.000000  0.000000  0.000000 -0.000000 -0.000005
  0C   1dyz      -0.000000 -0.000000  0.000000  0.000006 -0.000000  0.000000
  0C   1dx2y2     0.000000  0.000000  0.000000 -0.000000  0.000000  0.000005
  0C   1dxy      -0.000000 -0.000000  0.000000  0.000006 -0.000000  0.000000
  1H   1s         0.000001  0.000367  0.000050 -0.000003 -0.000005 -0.000002
  1H   2s        -0.000005  0.000094 -0.000428  0.000023  0.000047  0.000012
  1H   3s         0.000004  0.000197  0.000386 -0.000007 -0.000034 -0.000004
  1H   1pz       -0.000001  0.000003 -0.000072  0.000002  0.000007  0.000001
  1H   1px       -0.000001  0.000003 -0.000045  0.000004  0.000004 -0.000001
  1H   1py        0.000001 -0.000005  0.000078 -0.000003 -0.000006 -0.000003
  2H   1s         0.000001  0.000367  0.000050 -0.000000 -0.000005  0.000003
  2H   2s        -0.000005  0.000094 -0.000428  0.000000  0.000047 -0.000024
  2H   3s         0.000004  0.000197  0.000386 -0.000000 -0.000034  0.000007
  2H   1pz       -0.000001  0.000003 -0.000072  0.000000  0.000007 -0.000002
  2H   1px        0.000001 -0.000006  0.000089 -0.000000 -0.000007  0.000005
  2H   1py        0.000000 -0.000000 -0.000000  0.000003  0.000000  0.000000
  3H   1s        -0.000001  0.000370 -0.000098  0.000000 -0.000005  0.000000
  3H   2s         0.000005  0.000058  0.000433 -0.000000  0.000023 -0.000000
  3H   3s        -0.000030  0.000304 -0.002752  0.000000  0.000374 -0.000000
  3H   1pz       -0.000000  0.000002  0.000004  0.000000 -0.000006  0.000000
  3H   1px        0.000000 -0.000000 -0.000000 -0.000000  0.000000  0.000002
  3H   1py        0.000000 -0.000000 -0.000000 -0.000002  0.000000 -0.000000
  4H   1s         0.000001  0.000367  0.000050  0.000003 -0.000005 -0.000002
  4H   2s        -0.000005  0.000094 -0.000428 -0.000023  0.000047  0.000012
  4H   3s         0.000004  0.000197  0.000386  0.000007 -0.000034 -0.000004
  4H   1pz       -0.000001  0.000003 -0.000072 -0.000002  0.000007  0.000001
  4H   1px       -0.000001  0.000003 -0.000045 -0.000004  0.000004 -0.000001
  4H   1py       -0.000001  0.000005 -0.000078 -0.000003  0.000006  0.000003
  5Cl  1s        -0.411715 -0.000000  0.121997 -0.000000 -0.000001 -0.000000
  5Cl  2s        -0.654659 -0.000001  0.331598 -0.000000 -0.000004 -0.000000
  5Cl  3s        -0.012131  0.000006 -0.512335  0.000000  0.000010  0.000000
  5Cl  4s         0.000917 -0.000013 -0.605440  0.000000 -0.000006  0.000000
  5Cl  5s        -0.000176  0.000033 -0.041231  0.000000  0.000038 -0.000000
  5Cl  6s         0.000089 -0.000041  0.007528 -0.000000 -0.000054  0.000000
  5Cl  1pz        0.000001 -0.000007  0.000097 -0.000000  1.231519 -0.000121
  5Cl  1px       -0.000000  0.000000 -0.000000  0.000216 -0.000121 -1.231531
  5Cl  1py        0.000000 -0.000000  0.000000  1.230843  0.000000  0.000216
  5Cl  2pz        0.000001 -0.000005  0.000066 -0.000000  0.327286 -0.000032
  5Cl  2px       -0.000000  0.000000 -0.000000  0.000057 -0.000032 -0.327295
  5Cl  2py        0.000000 -0.000000  0.000000  0.327320  0.000000  0.000057
  5Cl  3pz       -0.000002  0.000014 -0.000192 -0.000000  0.048743 -0.000005
  5Cl  3px        0.000000 -0.000000 -0.000000  0.000009 -0.000005 -0.048714
  5Cl  3py       -0.000000  0.000000  0.000000  0.050154  0.000000  0.000009
  5Cl  4pz        0.000004 -0.000029  0.000394  0.000000 -0.001907  0.000000
  5Cl  4px       -0.000000  0.000000  0.000000 -0.000000  0.000000  0.001844
  5Cl  4py        0.000000 -0.000000 -0.000000 -0.001997 -0.000000 -0.000000
  5Cl  5pz       -0.000007  0.000056 -0.000626 -0.000000  0.000692 -0.000000
  5Cl  5px       -0.000000 -0.000000 -0.000000  0.000000 -0.000000 -0.000593
  5Cl  5py       -0.000000  0.000000  0.000000  0.000657  0.000000  0.000000
  5Cl  1dz2       0.000000 -0.000004  0.000439  0.000000 -0.000008  0.000000
  5Cl  1dxz       0.000000 -0.000000  0.000000 -0.000000  0.000000  0.000003
  5Cl  1dyz       0.000000 -0.000000  0.000000 -0.000003 -0.000000 -0.000000
  5Cl  1dx2y2    -0.000000  0.000000  0.000706  0.000000  0.000000 -0.000000
  5Cl  1dxy       0.000000 -0.000000 -0.000000 -0.000000 -0.000000  0.000000
                      6         7         8         9        10        11   
                  -1.13899  -0.94141  -0.58127  -0.54467  -0.54335  -0.54331
                   1.00000   1.00000   1.00000   1.00000   1.00000   1.00000
                  --------  --------  --------  --------  --------  --------
  0C   1s        -0.000225 -0.102852  0.000000  0.000095 -0.000000 -0.000012
  0C   2s        -0.000343 -0.169458  0.000000  0.000173 -0.000000 -0.000020
  0C   1pz        0.000565  0.000006 -0.000000  0.185474 -0.000001 -0.001855
  0C   1px        0.000001 -0.000006 -0.000000  0.001888  0.000061  0.188866
  0C   1py        0.000000 -0.000000 -0.001475  0.000000  0.188855 -0.000061
  0C   3s        -0.000044  0.423493  0.000000 -0.001052  0.000000  0.000050
  0C   2pz       -0.001854 -0.000297 -0.000000  0.291663 -0.000001 -0.002924
  0C   2px       -0.000004 -0.000010 -0.000000  0.002960  0.000096  0.297629
  0C   2py       -0.000000 -0.000000 -0.002280  0.000000  0.297605 -0.000096
  0C   4s         0.006254  0.264856 -0.000000  0.005929  0.000000  0.000168
  0C   3pz        0.005707  0.000828  0.000000  0.195668 -0.000001 -0.002015
  0C   3px        0.000008  0.000070 -0.000000  0.001982  0.000063  0.195559
  0C   3py        0.000000  0.000000 -0.000988  0.000000  0.195775 -0.000063
  0C   1dz2      -0.000202 -0.000012 -0.000000  0.032198 -0.000000 -0.000332
  0C   1dxz       0.000000  0.000000 -0.000000 -0.000193 -0.000006 -0.019037
  0C   1dyz       0.000000 -0.000000 -0.000046 -0.000000 -0.019042  0.000006
  0C   1dx2y2    -0.000001 -0.000008 -0.000000  0.000256  0.000009  0.026779
  0C   1dxy       0.000000  0.000000  0.000082 -0.000000 -0.026802  0.000009
  1H   1s         0.000276  0.083463 -0.001024 -0.057401  0.141124 -0.080965
  1H   2s        -0.001230  0.112958 -0.002261 -0.091320  0.222376 -0.127699
  1H   3s         0.002024  0.008016 -0.000520 -0.038247  0.097158 -0.055745
  1H   1pz       -0.000225  0.006474 -0.000127  0.007529  0.008057 -0.004736
  1H   1px       -0.000103  0.009165 -0.000154 -0.004584  0.011390  0.004613
  1H   1py        0.000179 -0.015867  0.000136  0.008119 -0.008552  0.011313
  2H   1s         0.000275  0.083453 -0.000000 -0.054946  0.000053  0.163539
  2H   2s        -0.001225  0.112879 -0.000000 -0.087431  0.000083  0.257779
  2H   3s         0.002004  0.007921 -0.000000 -0.036648  0.000036  0.112440
  2H   1pz       -0.000225  0.006458 -0.000000  0.007669  0.000003  0.009216
  2H   1px        0.000205 -0.018325  0.000000  0.009093 -0.000005 -0.015246
  2H   1py       -0.000000  0.000000 -0.000130  0.000000  0.011135 -0.000004
  3H   1s         0.000142  0.083362 -0.000000  0.169597 -0.000001 -0.001690
  3H   2s         0.003290  0.112959  0.000000  0.266045 -0.000001 -0.002651
  3H   3s        -0.010682  0.005624 -0.000000  0.106845 -0.000001 -0.001087
  3H   1pz        0.000216 -0.019519 -0.000000 -0.018018  0.000000  0.000178
  3H   1px       -0.000000 -0.000005 -0.000000  0.000111  0.000004  0.011113
  3H   1py       -0.000000 -0.000000 -0.000167  0.000000  0.011108 -0.000004
  4H   1s         0.000276  0.083463  0.001024 -0.057402 -0.141176 -0.080874
  4H   2s        -0.001230  0.112958  0.002262 -0.091321 -0.222458 -0.127556
  4H   3s         0.002024  0.008016  0.000520 -0.038247 -0.097194 -0.055683
  4H   1pz       -0.000225  0.006474  0.000127  0.007529 -0.008061 -0.004731
  4H   1px       -0.000103  0.009165  0.000154 -0.004584 -0.011387  0.004620
  4H   1py       -0.000179  0.015867  0.000136 -0.008119 -0.008560 -0.011308
  5Cl  1s         0.037168 -0.000170  0.000000 -0.000363  0.000000  0.000004
  5Cl  2s         0.107463 -0.000487  0.000000 -0.001044  0.000000  0.000011
  5Cl  3s        -0.211703  0.000920 -0.000000  0.002018 -0.000000 -0.000021
  5Cl  4s        -0.430476  0.002157 -0.000000  0.004600 -0.000000 -0.000047
  5Cl  5s         0.665842 -0.003855  0.000000 -0.008560  0.000000  0.000087
  5Cl  6s         0.555434 -0.001547  0.000000 -0.004229  0.000000  0.000043
  5Cl  1pz        0.000475  0.000849 -0.000000  0.059625 -0.000000 -0.000625
  5Cl  1px       -0.000000  0.000000  0.000061 -0.000032  0.000000 -0.003315
  5Cl  1py        0.000000  0.000000  0.350968  0.000000  0.003248  0.000000
  5Cl  2pz        0.000146  0.000198 -0.000000  0.014237 -0.000000 -0.000149
  5Cl  2px       -0.000000  0.000000  0.000015 -0.000008  0.000000 -0.000803
  5Cl  2py        0.000000  0.000000  0.084237  0.000000  0.000767  0.000000
  5Cl  3pz       -0.000504 -0.000566  0.000000 -0.043130  0.000000  0.000452
  5Cl  3px        0.000000 -0.000000 -0.000044  0.000024 -0.000000  0.002480
  5Cl  3py       -0.000000 -0.000000 -0.252753 -0.000000 -0.002263 -0.000000
  5Cl  4pz       -0.000026 -0.001324  0.000000 -0.105933  0.000001  0.001112
  5Cl  4px        0.000000  0.000000 -0.000112  0.000054 -0.000000  0.005563
  5Cl  4py       -0.000000  0.000000 -0.641472 -0.000000 -0.006347 -0.000000
  5Cl  5pz       -0.002141 -0.001639  0.000000 -0.055733  0.000000  0.000583
  5Cl  5px        0.000000 -0.000000 -0.000049  0.000036  0.000000  0.003702
  5Cl  5py        0.000000 -0.000000 -0.277100 -0.000000 -0.001881 -0.000000
  5Cl  1dz2      -0.016293  0.000299 -0.000000  0.001385 -0.000000 -0.000014
  5Cl  1dxz      -0.000000 -0.000000  0.000000 -0.000001 -0.000000 -0.000088
  5Cl  1dyz      -0.000000 -0.000000  0.000370 -0.000000 -0.000085  0.000000
  5Cl  1dx2y2    -0.028390  0.000137 -0.000000  0.000348 -0.000000 -0.000001
  5Cl  1dxy       0.000010 -0.000000  0.000000 -0.000000 -0.000003  0.000000
                     12        13        14        15        16        17   
                  -0.50654  -0.50574   0.16400   0.23757   0.23776   0.24996
                   1.00000   1.00000   0.00000   0.00000   0.00000   0.00000
                  --------  --------  --------  --------  --------  --------
  0C   1s        -0.000000  0.001365 -0.048759  0.000000  0.000079  0.003024
  0C   2s        -0.000000  0.002356 -0.078334  0.000000  0.000131  0.005211
  0C   1pz        0.000002 -0.038093 -0.008540  0.000000  0.000219 -0.137016
  0C   1px        0.002159  0.000019 -0.000216 -0.000025 -0.137690 -0.000208
  0C   1py       -0.000000  0.000000 -0.000000 -0.137673  0.000025 -0.000000
  0C   3s         0.000002 -0.009019  0.069399 -0.000000 -0.000191 -0.015172
  0C   2pz        0.000003 -0.062604  0.003752  0.000000  0.000105 -0.083231
  0C   2px        0.003380  0.000021 -0.000033 -0.000011 -0.063635 -0.000160
  0C   2py       -0.000001  0.000000 -0.000000 -0.063557  0.000011 -0.000000
  0C   4s        -0.000005  0.017439  2.128019 -0.000002 -0.003132 -0.067090
  0C   3pz        0.000004 -0.027043 -0.086435  0.000001  0.001274 -1.090887
  0C   3px        0.002201  0.000040 -0.002256 -0.000203 -1.133545 -0.001658
  0C   3py       -0.000000  0.000000 -0.000001 -1.132255  0.000203 -0.000001
  0C   1dz2       0.000000 -0.006095  0.002617 -0.000000 -0.000088  0.031085
  0C   1dxz      -0.000355 -0.000000 -0.000011 -0.000003 -0.018936 -0.000024
  0C   1dyz       0.000000  0.000000 -0.000000 -0.018987  0.000003 -0.000000
  0C   1dx2y2     0.000344  0.000004  0.000014  0.000005  0.026783  0.000032
  0C   1dxy       0.000000 -0.000000 -0.000000 -0.026851  0.000005 -0.000000
  1H   1s        -0.000957  0.010896 -0.009485  0.015683 -0.009038 -0.005546
  1H   2s        -0.001480  0.013482  0.015746 -0.173051  0.099185  0.057671
  1H   3s        -0.000629  0.012823 -0.835761  1.923727 -1.108821 -0.728673
  1H   1pz       -0.000030 -0.002168  0.000080 -0.011961  0.006896 -0.000666
  1H   1px        0.000065  0.000640 -0.000289 -0.016908  0.005884  0.006175
  1H   1py        0.000118 -0.001105  0.000506  0.025428 -0.016844 -0.010715
  2H   1s         0.001912  0.010914 -0.009458  0.000003  0.018160 -0.005520
  2H   2s         0.002955  0.013525  0.015472 -0.000036 -0.199020  0.057385
  2H   3s         0.001264  0.012785 -0.830176  0.000399  2.224152 -0.723907
  2H   1pz        0.000061 -0.002166  0.000079 -0.000002 -0.013784 -0.000688
  2H   1px       -0.000139 -0.001281  0.000638  0.000006  0.035161 -0.012292
  2H   1py       -0.000000  0.000000  0.000000 -0.003854  0.000001 -0.000000
  3H   1s         0.000002 -0.033534 -0.007265 -0.000000 -0.000009  0.018663
  3H   2s         0.000005 -0.054227 -0.014048  0.000000  0.000755 -0.186387
  3H   3s         0.000000 -0.058891 -0.601521 -0.000001 -0.002573  2.306370
  3H   1pz       -0.000001  0.004854  0.004395 -0.000000 -0.000086  0.039879
  3H   1px       -0.000019  0.000000  0.000013 -0.000001 -0.003691 -0.000007
  3H   1py        0.000000  0.000000  0.000000 -0.003694  0.000001 -0.000000
  4H   1s        -0.000957  0.010896 -0.009485 -0.015686 -0.009033 -0.005546
  4H   2s        -0.001479  0.013482  0.015746  0.173087  0.099123  0.057671
  4H   3s        -0.000629  0.012823 -0.835763 -1.924122 -1.108132 -0.728675
  4H   1pz       -0.000030 -0.002168  0.000080  0.011964  0.006891 -0.000666
  4H   1px        0.000065  0.000640 -0.000289  0.016910  0.005878  0.006175
  4H   1py       -0.000118  0.001105 -0.000506  0.025434  0.016835  0.010715
  5Cl  1s         0.000000  0.000040  0.001621  0.000000  0.000005 -0.005048
  5Cl  2s         0.000000  0.000126  0.004558  0.000000  0.000014 -0.014212
  5Cl  3s        -0.000000 -0.000332 -0.007898 -0.000000 -0.000026  0.024795
  5Cl  4s        -0.000000 -0.000196 -0.025369 -0.000000 -0.000076  0.079181
  5Cl  5s         0.000000 -0.000458  0.063761  0.000000  0.000185 -0.202555
  5Cl  6s        -0.000000  0.003192 -0.016440 -0.000000 -0.000023  0.053170
  5Cl  1pz       -0.000025  0.337045  0.028327  0.000000  0.000062 -0.071074
  5Cl  1px        0.341831  0.000025  0.000005  0.000001  0.004035  0.000008
  5Cl  1py       -0.000060 -0.000000  0.000000  0.004690 -0.000001  0.000000
  5Cl  2pz       -0.000006  0.080544  0.006040  0.000000  0.000015 -0.015858
  5Cl  2px        0.081557  0.000006  0.000001  0.000000  0.000607  0.000001
  5Cl  2py       -0.000014 -0.000000  0.000000  0.000717 -0.000000  0.000000
  5Cl  3pz        0.000018 -0.245704 -0.017627 -0.000000 -0.000050  0.050422
  5Cl  3px       -0.248217 -0.000018 -0.000001 -0.000000 -0.000689 -0.000001
  5Cl  3py        0.000043  0.000000 -0.000000 -0.000845  0.000000 -0.000000
  5Cl  4pz        0.000045 -0.600895 -0.081120 -0.000000 -0.000128  0.184095
  5Cl  4px       -0.613338 -0.000045 -0.000024 -0.000004 -0.020556 -0.000043
  5Cl  4py        0.000107  0.000000 -0.000000 -0.024483  0.000004 -0.000000
  5Cl  5pz        0.000023 -0.319939  0.028096 -0.000000 -0.000047 -0.032429
  5Cl  5px       -0.317126 -0.000023  0.000025  0.000005  0.022624  0.000049
  5Cl  5py        0.000056  0.000000  0.000000  0.029304 -0.000004  0.000000
  5Cl  1dz2       0.000000 -0.000226 -0.011154 -0.000000 -0.000032  0.038715
  5Cl  1dxz       0.000345 -0.000000 -0.000001 -0.000000 -0.000648 -0.000001
  5Cl  1dyz      -0.000000 -0.000000 -0.000000 -0.000701  0.000000 -0.000000
  5Cl  1dx2y2    -0.000000 -0.000071 -0.002022  0.000000  0.000170  0.006862
  5Cl  1dxy      -0.000000  0.000000  0.000001 -0.000177  0.000000 -0.000002
                     18        19        20        21        22        23   
                   0.37172   0.39932   0.42833   0.43207   0.43601   0.46355
                   0.00000   0.00000   0.00000   0.00000   0.00000   0.00000
                  --------  --------  --------  --------  --------  --------
  0C   1s         0.000000  0.000001 -0.000334  0.000000  0.000002  0.008137
  0C   2s        -0.000000  0.000002 -0.000562  0.000000  0.000005  0.013744
  0C   1pz       -0.000000 -0.000002 -0.002921 -0.000000 -0.000019 -0.041711
  0C   1px       -0.000001  0.003644  0.000034  0.000001  0.003961 -0.000004
  0C   1py       -0.003548 -0.000001  0.000000  0.004483 -0.000001 -0.000000
  0C   3s         0.000000 -0.000060  0.001117 -0.000000 -0.000130 -0.034183
  0C   2pz       -0.000000  0.000025 -0.046560 -0.000000 -0.000086  0.009861
  0C   2px       -0.000002  0.019109 -0.000064  0.000008  0.043759 -0.000012
  0C   2py       -0.010116 -0.000003 -0.000000  0.046385 -0.000008 -0.000000
  0C   4s        -0.000000  0.000429  0.012549  0.000001  0.000868 -0.307507
  0C   3pz       -0.000000  0.000568 -1.550030 -0.000005 -0.003102 -0.522725
  0C   3px       -0.000073  0.724682 -0.002362  0.000263  1.386302 -0.000236
  0C   3py       -0.418631 -0.000127 -0.000004  1.508349 -0.000241 -0.000000
  0C   1dz2      -0.000000  0.000017 -0.041347 -0.000000 -0.000078  0.020308
  0C   1dxz       0.000001 -0.012533  0.000060 -0.000004 -0.019698 -0.000001
  0C   1dyz       0.007770  0.000002  0.000000 -0.022001  0.000003 -0.000000
  0C   1dx2y2    -0.000002  0.018621 -0.000063  0.000005  0.027174 -0.000002
  0C   1dxy       0.011928  0.000003  0.000000 -0.030692  0.000005 -0.000000
  1H   1s         0.011427  0.012743 -0.021730 -0.052587  0.028313 -0.004662
  1H   2s         0.271207  0.288754 -0.465343 -1.102052  0.587562 -0.026335
  1H   3s         0.058492  0.020837  0.024633  0.058376 -0.038753 -0.199519
  1H   1pz        0.005254  0.005256 -0.013450 -0.018132  0.009509  0.000563
  1H   1px        0.008678  0.007031 -0.011065 -0.025209  0.020197  0.001360
  1H   1py       -0.012707 -0.014075  0.019146  0.050230 -0.022583 -0.002360
  2H   1s         0.000002 -0.025463 -0.021611 -0.000011 -0.056750 -0.004645
  2H   2s         0.000055 -0.577049 -0.461983 -0.000223 -1.178031 -0.026033
  2H   3s         0.000012 -0.041928  0.023668  0.000012  0.077128 -0.199528
  2H   1pz        0.000001 -0.010508 -0.013340 -0.000004 -0.019121  0.000565
  2H   1px       -0.000003  0.031400  0.021924  0.000011  0.059478 -0.002731
  2H   1py        0.002316  0.000000 -0.000000  0.006584 -0.000001 -0.000000
  3H   1s         0.000000 -0.000018  0.064821  0.000000  0.000140  0.025715
  3H   2s         0.000000 -0.000593  1.394825  0.000004  0.002555 -0.128922
  3H   3s         0.000000  0.000007 -0.096689 -0.000000 -0.000091  1.311738
  3H   1pz       -0.000000  0.000040 -0.075979 -0.000000 -0.000123  0.010145
  3H   1px       -0.000001  0.005779  0.000010  0.000001  0.003143 -0.000004
  3H   1py       -0.004824 -0.000001 -0.000000  0.004337 -0.000001 -0.000000
  4H   1s        -0.011429  0.012735 -0.021731  0.052598  0.028295 -0.004662
  4H   2s        -0.271262  0.288579 -0.465350  1.102271  0.587207 -0.026335
  4H   3s        -0.058504  0.020824  0.024634 -0.058388 -0.038730 -0.199519
  4H   1pz       -0.005255  0.005252 -0.013450  0.018135  0.009503  0.000563
  4H   1px       -0.008679  0.007026 -0.011066  0.025216  0.020189  0.001360
  4H   1py       -0.012710  0.014067 -0.019147  0.050239  0.022567  0.002360
  5Cl  1s        -0.000000 -0.000000  0.000861  0.000000  0.000001 -0.006423
  5Cl  2s        -0.000000 -0.000000  0.002399  0.000000  0.000004 -0.017719
  5Cl  3s         0.000000  0.000001 -0.003955 -0.000000 -0.000007  0.027725
  5Cl  4s         0.000000  0.000003 -0.014659 -0.000000 -0.000024  0.114998
  5Cl  5s        -0.000000 -0.000007  0.042030  0.000000  0.000069 -0.336970
  5Cl  6s         0.000000  0.000003 -0.024264 -0.000000 -0.000040  0.209589
  5Cl  1pz       -0.000000  0.000007  0.000250  0.000000  0.000028  0.173914
  5Cl  1px       -0.000030  0.164891  0.000227 -0.000008 -0.085246  0.000008
  5Cl  1py       -0.174005 -0.000029  0.000000 -0.047441  0.000015  0.000000
  5Cl  2pz       -0.000000  0.000001  0.000692  0.000000  0.000006  0.026651
  5Cl  2px       -0.000005  0.026110  0.000037 -0.000001 -0.014031  0.000001
  5Cl  2py       -0.028418 -0.000005  0.000000 -0.008280  0.000002  0.000000
  5Cl  3pz        0.000000 -0.000001 -0.005152 -0.000000 -0.000017 -0.034813
  5Cl  3px        0.000008 -0.039011 -0.000062  0.000003  0.024307 -0.000002
  5Cl  3py        0.046139  0.000007 -0.000000  0.016779 -0.000004 -0.000000
  5Cl  4pz        0.000000 -0.000041  0.023820  0.000000 -0.000096 -0.969649
  5Cl  4px        0.000158 -0.858641 -0.001161  0.000040  0.432791 -0.000040
  5Cl  4py        0.901076  0.000150 -0.000001  0.233410 -0.000076 -0.000000
  5Cl  5pz       -0.000000  0.000058 -0.048465 -0.000000  0.000102  1.405918
  5Cl  5px       -0.000214  1.116672  0.001540 -0.000057 -0.577258  0.000054
  5Cl  5py       -1.219783 -0.000195  0.000001 -0.328611  0.000101  0.000000
  5Cl  1dz2       0.000000  0.000002 -0.007357 -0.000000 -0.000012  0.039068
  5Cl  1dxz       0.000000 -0.000449  0.000003 -0.000000 -0.001632  0.000001
  5Cl  1dyz       0.000111  0.000000  0.000000 -0.001827  0.000000  0.000000
  5Cl  1dx2y2     0.000000 -0.000004 -0.001310 -0.000000  0.000007  0.008725
  5Cl  1dxy      -0.000007 -0.000000  0.000000 -0.000008  0.000000 -0.000003
                     24        25        26        27        28        29   
                   0.73639   0.75478   0.81314   0.81327   0.87342   0.98652
                   0.00000   0.00000   0.00000   0.00000   0.00000   0.00000
                  --------  --------  --------  --------  --------  --------
  0C   1s         0.016437  0.067055  0.000000  0.000036 -0.054199 -0.080468
  0C   2s         0.033299  0.129207  0.000000  0.000066 -0.113215 -0.172113
  0C   1pz       -0.151628 -0.004171  0.000000 -0.000005 -0.186836  0.073927
  0C   1px       -0.000034  0.000239 -0.000040 -0.254753  0.000045 -0.000001
  0C   1py       -0.000000  0.000000 -0.254737  0.000040  0.000000 -0.000000
  0C   3s        -0.263807 -0.398719  0.000000  0.000030  0.956212  1.564904
  0C   2pz       -0.577729 -0.013779 -0.000000 -0.000024 -0.776797  0.306022
  0C   2px       -0.000112  0.000952 -0.000164 -1.038463  0.000217 -0.000014
  0C   2py       -0.000000  0.000000 -1.038509  0.000164  0.000000 -0.000000
  0C   4s         0.694256 -2.155692 -0.000001 -0.002898 -2.682437 -4.799968
  0C   3pz        0.725229  0.010958  0.000000  0.000107  1.463816 -0.723673
  0C   3px        0.000114 -0.001209  0.000266  1.684255 -0.000196  0.000206
  0C   3py        0.000000 -0.000001  1.683814 -0.000266 -0.000000  0.000000
  0C   1dz2       0.039884  0.001565  0.000000  0.000007  0.051424 -0.021222
  0C   1dxz      -0.000011  0.000056 -0.000006 -0.038817  0.000019  0.000053
  0C   1dyz      -0.000000  0.000000 -0.038827  0.000006  0.000000  0.000000
  0C   1dx2y2     0.000015 -0.000030  0.000009  0.054866 -0.000005  0.000017
  0C   1dxy      -0.000000  0.000000 -0.054878  0.000009  0.000000 -0.000000
  1H   1s        -0.006624  0.048392  0.050455 -0.029085 -0.027119  0.000309
  1H   2s        -0.224796  1.193543  0.478393 -0.274950  0.209456  0.660364
  1H   3s         0.126395 -0.152939 -1.448062  0.836353  0.902165  0.325050
  1H   1pz       -0.032213 -0.008102 -0.031865  0.018405  0.000971  0.046090
  1H   1px       -0.000354 -0.010168 -0.044947 -0.025721  0.050866  0.051202
  1H   1py        0.000595  0.017699  0.026139 -0.044967 -0.088117 -0.088739
  2H   1s        -0.006603  0.048311  0.000009  0.058302 -0.027147  0.000282
  2H   2s        -0.224654  1.192615  0.000088  0.553410  0.209146  0.660239
  2H   3s         0.126151 -0.150878 -0.000264 -1.672285  0.902724  0.325046
  2H   1pz       -0.032232 -0.008022 -0.000006 -0.036822  0.001006  0.046176
  2H   1px        0.000719  0.020323  0.000008  0.052079 -0.101727 -0.102435
  2H   1py       -0.000000  0.000000 -0.051728  0.000008  0.000000 -0.000000
  3H   1s         0.034886  0.050261  0.000000  0.000061  0.042448 -0.032888
  3H   2s         0.128709  1.199893  0.000001  0.001263  0.853586  0.370027
  3H   3s        -0.527051 -0.143129 -0.000000 -0.000228 -1.483154  1.712801
  3H   1pz        0.063215  0.022977 -0.000000 -0.000006 -0.029456 -0.143110
  3H   1px       -0.000017  0.000078 -0.000008 -0.051976  0.000034  0.000063
  3H   1py       -0.000000  0.000000 -0.051972  0.000008  0.000000  0.000000
  4H   1s        -0.006624  0.048392 -0.050464 -0.029069 -0.027119  0.000309
  4H   2s        -0.224796  1.193544 -0.478479 -0.274799  0.209456  0.660364
  4H   3s         0.126396 -0.152940  1.448326  0.835896  0.902165  0.325050
  4H   1pz       -0.032213 -0.008102  0.031871  0.018395  0.000971  0.046090
  4H   1px       -0.000354 -0.010168  0.044939 -0.025735  0.050866  0.051202
  4H   1py       -0.000595 -0.017699  0.026153  0.044958  0.088117  0.088739
  5Cl  1s         0.026949  0.000240 -0.000000 -0.000005 -0.014266  0.013215
  5Cl  2s         0.073972  0.000704 -0.000000 -0.000015 -0.039135  0.036521
  5Cl  3s        -0.111907 -0.001476  0.000000  0.000025  0.058852 -0.057255
  5Cl  4s        -0.512323 -0.003126  0.000000  0.000098  0.276895 -0.251372
  5Cl  5s         1.655373  0.008465 -0.000000 -0.000314 -0.935024  0.867484
  5Cl  6s        -1.335568 -0.000722  0.000000  0.000245  0.827958 -0.782568
  5Cl  1pz        0.028580  0.010343  0.000000  0.000011 -0.004929  0.021159
  5Cl  1px        0.000000  0.000000 -0.000000 -0.002619 -0.000000 -0.000001
  5Cl  1py        0.000000  0.000000 -0.002529  0.000000  0.000000 -0.000000
  5Cl  2pz        0.007017  0.002377  0.000000  0.000003  0.000414  0.003228
  5Cl  2px        0.000000  0.000000 -0.000000 -0.000632 -0.000000 -0.000000
  5Cl  2py        0.000000  0.000000 -0.000637  0.000000  0.000000 -0.000000
  5Cl  3pz       -0.026961 -0.008886 -0.000000 -0.000011 -0.008587 -0.005342
  5Cl  3px       -0.000000 -0.000000  0.000000  0.002409  0.000000  0.000001
  5Cl  3py       -0.000000 -0.000000  0.002550 -0.000000 -0.000000  0.000000
  5Cl  4pz       -0.074204 -0.030625 -0.000000 -0.000028  0.087818 -0.150127
  5Cl  4px       -0.000001 -0.000001  0.000001  0.007726  0.000001  0.000001
  5Cl  4py       -0.000000 -0.000000  0.006706 -0.000001 -0.000000  0.000000
  5Cl  5pz        0.094969  0.039591  0.000000  0.000031 -0.226301  0.362171
  5Cl  5px        0.000002  0.000002 -0.000002 -0.013133 -0.000002 -0.000003
  5Cl  5py        0.000000  0.000000 -0.012154  0.000002  0.000000 -0.000000
  5Cl  1dz2      -0.039700 -0.007579 -0.000000 -0.000076 -0.110658  0.377821
  5Cl  1dxz      -0.000000 -0.000000 -0.000000 -0.000277 -0.000001  0.000002
  5Cl  1dyz      -0.000000  0.000000 -0.000304  0.000000  0.000000 -0.000000
  5Cl  1dx2y2    -0.038294 -0.001416 -0.000000 -0.000577  0.005300  0.117488
  5Cl  1dxy       0.000013  0.000000  0.000578 -0.000000 -0.000002 -0.000041
                     30        31        32        33        34        35   
                   1.04741   1.05580   1.05594   1.11065   1.13503   1.20347
                   0.00000   0.00000   0.00000   0.00000   0.00000   0.00000
                  --------  --------  --------  --------  --------  --------
  0C   1s         0.020149 -0.000000 -0.000000  0.000000 -0.023360 -0.000000
  0C   2s         0.043418 -0.000000 -0.000000  0.000000 -0.050849 -0.000000
  0C   1pz       -0.037549  0.000000 -0.000000 -0.000000  0.063602 -0.000000
  0C   1px       -0.000176 -0.000000  0.000000  0.000206 -0.000045 -0.000000
  0C   1py       -0.000000 -0.000211 -0.000178 -0.000000 -0.000000 -0.000015
  0C   3s        -0.401033  0.000000  0.000000 -0.000002  0.480266  0.000000
  0C   2pz       -0.138101  0.000000 -0.000000 -0.000000  0.204675  0.000000
  0C   2px       -0.000523 -0.000000  0.000000  0.001490 -0.000125  0.000000
  0C   2py       -0.000000 -0.001441 -0.000526 -0.000000 -0.000000  0.000059
  0C   4s         1.241299 -0.000000 -0.000000  0.000008 -1.503736 -0.000001
  0C   3pz        0.346781 -0.000000  0.000000  0.000001 -0.573955 -0.000000
  0C   3px        0.001243  0.000000 -0.000000 -0.000619  0.000371 -0.000001
  0C   3py        0.000000  0.000987  0.001303  0.000000  0.000000 -0.000907
  0C   1dz2       0.015103 -0.000000  0.000000  0.000000 -0.031934 -0.000000
  0C   1dxz      -0.000077  0.000000  0.000000 -0.000855  0.000043 -0.000270
  0C   1dyz      -0.000000  0.000811 -0.000059  0.000000  0.000000 -0.378566
  0C   1dx2y2     0.000067 -0.000000 -0.000000  0.001361  0.000059 -0.000191
  0C   1dxy      -0.000000  0.001197 -0.000079  0.000000 -0.000000  0.267910
  1H   1s        -0.003687 -0.000759  0.000077 -0.000469  0.009855  0.000059
  1H   2s        -0.172003  0.000419  0.000217  0.000472  0.200959  0.000267
  1H   3s        -0.019761  0.001407 -0.001327  0.000752 -0.038708  0.000051
  1H   1pz       -0.011700  0.000263 -0.000026  0.000150  0.010887 -0.251819
  1H   1px       -0.010881  0.000430 -0.000035 -0.000439  0.010161  0.178491
  1H   1py        0.018845 -0.000119  0.000047 -0.000490 -0.017672  0.000015
  2H   1s        -0.003551 -0.000000 -0.000000  0.000938  0.009884  0.000000
  2H   2s        -0.171600  0.000000 -0.000000 -0.000948  0.201015  0.000001
  2H   3s        -0.022023  0.000000  0.000001 -0.001506 -0.039291  0.000000
  2H   1pz       -0.011776  0.000000  0.000000 -0.000301  0.010954 -0.000208
  2H   1px        0.021853 -0.000000 -0.000000  0.000411 -0.020337 -0.000074
  2H   1py       -0.000000  0.000625 -0.000013  0.000000 -0.000000  0.308755
  3H   1s         0.019283 -0.000000  0.000000  0.000000 -0.038491 -0.000000
  3H   2s        -0.046721  0.000000  0.000000 -0.000001  0.021257  0.000000
  3H   3s        -0.683247  0.000000 -0.000000 -0.000003  1.083678  0.000000
  3H   1pz        0.041546 -0.000000 -0.000000  0.000000 -0.054767 -0.000000
  3H   1px       -0.000037  0.000000  0.000000 -0.000380  0.000051 -0.000220
  3H   1py       -0.000000  0.000387 -0.000016  0.000000  0.000000 -0.307746
  4H   1s        -0.003687  0.000759 -0.000077 -0.000469  0.009855 -0.000059
  4H   2s        -0.172003 -0.000419 -0.000217  0.000472  0.200959 -0.000267
  4H   3s        -0.019760 -0.001408  0.001326  0.000752 -0.038707 -0.000051
  4H   1pz       -0.011700 -0.000263  0.000026  0.000150  0.010887  0.252027
  4H   1px       -0.010881 -0.000430  0.000035 -0.000439  0.010161 -0.178197
  4H   1py       -0.018845 -0.000119  0.000047  0.000490  0.017672 -0.000240
  5Cl  1s        -0.001084  0.000000 -0.000000 -0.000000  0.004918  0.000000
  5Cl  2s        -0.002584  0.000000 -0.000000 -0.000000  0.013576  0.000000
  5Cl  3s         0.000172 -0.000000  0.000000  0.000000 -0.021046 -0.000000
  5Cl  4s         0.036265 -0.000000  0.000000  0.000000 -0.096548 -0.000000
  5Cl  5s        -0.149148  0.000000 -0.000000 -0.000001  0.351375  0.000000
  5Cl  6s         0.188278 -0.000000  0.000000  0.000001 -0.344440 -0.000000
  5Cl  1pz       -0.009938  0.000000  0.000000 -0.000000  0.019800  0.000000
  5Cl  1px       -0.000000 -0.000000  0.000000  0.000273 -0.000001  0.000003
  5Cl  1py       -0.000000 -0.000284 -0.000000 -0.000000 -0.000000  0.003752
  5Cl  2pz       -0.001845  0.000000  0.000000 -0.000000  0.004348  0.000000
  5Cl  2px       -0.000000 -0.000000  0.000000  0.000070 -0.000000  0.000001
  5Cl  2py       -0.000000 -0.000072 -0.000000 -0.000000 -0.000000  0.001152
  5Cl  3pz        0.005285 -0.000000 -0.000000  0.000000 -0.016403 -0.000000
  5Cl  3px        0.000000  0.000000 -0.000000 -0.000350  0.000001 -0.000004
  5Cl  3py        0.000000  0.000357  0.000001  0.000000  0.000000 -0.005828
  5Cl  4pz        0.057525 -0.000000  0.000000  0.000000 -0.087514 -0.000000
  5Cl  4px        0.000001  0.000000 -0.000000 -0.000269  0.000000 -0.000002
  5Cl  4py        0.000000  0.000304  0.000000  0.000000  0.000000 -0.002502
  5Cl  5pz       -0.143902  0.000000 -0.000000 -0.000001  0.231860  0.000000
  5Cl  5px       -0.000002 -0.000000  0.000000  0.000213 -0.000001  0.000008
  5Cl  5py       -0.000000 -0.000246 -0.000002 -0.000000 -0.000000  0.010094
  5Cl  1dz2       0.286867 -0.000000  0.000000  0.000009 -0.870992 -0.000000
  5Cl  1dxz      -0.000000  0.000175 -0.000000 -0.999996 -0.000010 -0.000000
  5Cl  1dyz       0.000000  0.999996 -0.000963  0.000175 -0.000000 -0.000171
  5Cl  1dx2y2     0.925013 -0.000000 -0.000350 -0.000004  0.357928  0.000000
  5Cl  1dxy      -0.000324 -0.000963 -0.999999  0.000000 -0.000125  0.000005
                     36        37        38        39        40        41   
                   1.20348   1.72230   1.72243   1.72246   1.72493   1.72514
                   0.00000   0.00000   0.00000   0.00000   0.00000   0.00000
                  --------  --------  --------  --------  --------  --------
  0C   1s        -0.000020 -0.000000 -0.000103  0.000301  0.000000  0.000000
  0C   2s        -0.000045 -0.000000 -0.000236  0.000689  0.000000  0.000000
  0C   1pz        0.000003  0.000003  0.019069 -0.058855 -0.000000 -0.000000
  0C   1px       -0.000026  0.000011  0.056063  0.018202  0.000000 -0.000001
  0C   1py        0.000000  0.058926 -0.000011 -0.000000  0.000410 -0.005450
  0C   3s         0.000480  0.000000  0.002237 -0.006588 -0.000000 -0.000000
  0C   2pz        0.000018  0.000009  0.055005 -0.169736 -0.000000 -0.000000
  0C   2px        0.000047  0.000032  0.166946  0.054169  0.000000 -0.000003
  0C   2py       -0.000000  0.175459 -0.000033 -0.000001  0.001356 -0.015926
  0C   4s        -0.001672 -0.000001 -0.005152  0.015657  0.000000  0.000000
  0C   3pz       -0.000238  0.000051  0.303997 -0.938042 -0.000000 -0.000003
  0C   3px       -0.001189  0.000179  0.941384  0.305602  0.000001 -0.000015
  0C   3py        0.000001  0.988611 -0.000186 -0.000006  0.007081 -0.091590
  0C   1dz2      -0.000049  0.000044  0.259771 -0.801743 -0.000000 -0.000002
  0C   1dxz      -0.378529 -0.000088 -0.462550 -0.150066 -0.000000  0.000007
  0C   1dyz       0.000270 -0.485919  0.000091  0.000003 -0.003520  0.043901
  0C   1dx2y2    -0.267918  0.000124  0.653278  0.212084  0.000000 -0.000010
  0C   1dxy      -0.000191 -0.686394  0.000129  0.000005 -0.004912  0.062991
  1H   1s        -0.000028  0.275685 -0.186107  0.057572  0.002031 -0.025311
  1H   2s         0.000042 -1.239464  0.838358 -0.263051 -0.008964  0.113830
  1H   3s         0.000041  0.149459 -0.101243  0.032495  0.001103 -0.013584
  1H   1pz        0.145673 -0.007414 -0.074736  0.251539  0.003577  0.522874
  1H   1px        0.205717 -0.073176 -0.196821 -0.098868 -0.520564  0.010689
  1H   1py        0.178387 -0.124676 -0.090410  0.028672 -0.299612  0.227270
  2H   1s         0.000074  0.000052  0.268364  0.205077  0.000000 -0.000005
  2H   2s         0.000723 -0.000233 -1.205614 -0.926423 -0.000001  0.000020
  2H   3s         0.000245  0.000028  0.145003  0.112355  0.000000 -0.000002
  2H   1pz       -0.290853 -0.000016 -0.091316  0.240072  0.000013  0.000116
  2H   1px       -0.103079 -0.000019 -0.099128  0.033368  0.000005  0.000042
  2H   1py       -0.000221 -0.265271  0.000048  0.000001  0.600046  0.233110
  3H   1s        -0.000006  0.000017  0.103610 -0.319714 -0.000000 -0.000001
  3H   2s         0.000333 -0.000079 -0.469931  1.450229  0.000000  0.000004
  3H   3s         0.000430  0.000010  0.061687 -0.190383 -0.000000 -0.000001
  3H   1pz       -0.000033 -0.000004 -0.024587  0.075917  0.000000  0.000000
  3H   1px       -0.307638 -0.000060 -0.318899 -0.099172 -0.000014 -0.000117
  3H   1py        0.000220 -0.338228  0.000064  0.000003 -0.006880 -0.607958
  4H   1s        -0.000028 -0.275754 -0.186003  0.057576 -0.002031  0.025317
  4H   2s         0.000042  1.239777  0.837892 -0.263067  0.008964 -0.113854
  4H   3s         0.000041 -0.149497 -0.101186  0.032497 -0.001103  0.013587
  4H   1pz        0.145313  0.007390 -0.074738  0.251540 -0.003590 -0.522988
  4H   1px        0.205972  0.073100 -0.196851 -0.098870  0.520573 -0.010601
  4H   1py       -0.178387 -0.124642  0.090458 -0.028671 -0.299612  0.227268
  5Cl  1s         0.000002  0.000000  0.000054 -0.000166 -0.000000 -0.000000
  5Cl  2s         0.000005  0.000000  0.000138 -0.000428 -0.000000 -0.000000
  5Cl  3s        -0.000008 -0.000000 -0.000127  0.000393  0.000000  0.000000
  5Cl  4s        -0.000036 -0.000000 -0.001443  0.004455  0.000000  0.000000
  5Cl  5s         0.000134  0.000001  0.006214 -0.019180 -0.000000 -0.000000
  5Cl  6s        -0.000132 -0.000001 -0.008254  0.025474  0.000000  0.000000
  5Cl  1pz        0.000009 -0.000001 -0.006838  0.021104  0.000000  0.000000
  5Cl  1px        0.003671 -0.000002 -0.010382 -0.003427  0.000000  0.000002
  5Cl  1py       -0.000003 -0.011722  0.000002  0.000000 -0.000021  0.010232
  5Cl  2pz        0.000002 -0.000000 -0.002274  0.007019  0.000000  0.000000
  5Cl  2px        0.001105 -0.000001 -0.003394 -0.001120  0.000000  0.000001
  5Cl  2py       -0.000001 -0.003859  0.000001  0.000000 -0.000007  0.003405
  5Cl  3pz       -0.000008  0.000002  0.013744 -0.042420 -0.000000 -0.000000
  5Cl  3px       -0.005461  0.000004  0.020165  0.006658 -0.000000 -0.000004
  5Cl  3py        0.000004  0.023323 -0.000004 -0.000000  0.000040 -0.020617
  5Cl  4pz       -0.000035 -0.000001 -0.007505  0.023165  0.000000  0.000000
  5Cl  4px       -0.003287 -0.000002 -0.006598 -0.002187  0.000000  0.000002
  5Cl  4py        0.000002 -0.009455  0.000001 -0.000000 -0.000008  0.009643
  5Cl  5pz        0.000095  0.000000  0.001444 -0.004456 -0.000000 -0.000000
  5Cl  5px        0.010639 -0.000002 -0.013847 -0.004552  0.000000  0.000002
  5Cl  5py       -0.000007 -0.013376  0.000003  0.000000 -0.000042  0.008952
  5Cl  1dz2      -0.000102 -0.000001 -0.003996  0.012334  0.000000  0.000000
  5Cl  1dxz      -0.000308  0.000000  0.001797  0.000584 -0.000000 -0.000000
  5Cl  1dyz       0.000000  0.001735 -0.000000 -0.000000  0.000012 -0.000258
  5Cl  1dx2y2     0.000018  0.000000  0.000110 -0.000428 -0.000000 -0.000000
  5Cl  1dxy      -0.000000  0.000028 -0.000000  0.000000  0.000000 -0.000002
                     42        43        44        45        46        47   
                   1.72526   2.18184   2.18191   2.20050   2.37136   2.42591
                   0.00000   0.00000   0.00000   0.00000   0.00000   0.00000
                  --------  --------  --------  --------  --------  --------
  0C   1s         0.000004 -0.000000 -0.000007  0.003212 -0.000000 -0.000001
  0C   2s         0.000009 -0.000000 -0.000013  0.007469 -0.000000 -0.000002
  0C   1pz       -0.000387 -0.000000 -0.000427  0.236565  0.000000 -0.000003
  0C   1px       -0.005054 -0.000048 -0.262950 -0.000500 -0.000002  0.012234
  0C   1py        0.000001 -0.262879  0.000048 -0.000000 -0.012642 -0.000002
  0C   3s        -0.000079  0.000000  0.000104 -0.072949  0.000000  0.000010
  0C   2pz       -0.001190  0.000000  0.000927 -0.514988 -0.000000  0.000028
  0C   2px       -0.014503  0.000094  0.516204  0.001022 -0.000005  0.039777
  0C   2py        0.000003  0.515941 -0.000094  0.000000 -0.028101 -0.000007
  0C   4s         0.000177 -0.000000 -0.000229  0.175792  0.000000 -0.000045
  0C   3pz       -0.006252 -0.000000 -0.001535  0.833242  0.000000 -0.000006
  0C   3px       -0.084739 -0.000130 -0.714235 -0.001339  0.000001 -0.002686
  0C   3py        0.000018 -0.714275  0.000130 -0.000000  0.003962  0.000000
  0C   1dz2      -0.005501  0.000000  0.001416 -0.780458 -0.000000  0.000009
  0C   1dxz       0.040290 -0.000080 -0.441275 -0.000872  0.000003 -0.025951
  0C   1dyz      -0.000009 -0.441380  0.000080 -0.000000  0.014506  0.000005
  0C   1dx2y2    -0.057961  0.000114  0.624949  0.001119  0.000006 -0.030238
  0C   1dxy      -0.000012 -0.624563  0.000114 -0.000000 -0.032426 -0.000005
  1H   1s         0.014152  0.347894 -0.201271  0.134807  0.000288 -0.002882
  1H   2s        -0.063835 -0.790948  0.457616 -0.327922 -0.001679  0.009074
  1H   3s         0.007562  0.643376 -0.372231  0.288180  0.017020  0.006842
  1H   1pz       -0.300339  0.076584 -0.042975 -0.620867 -0.002279 -0.001514
  1H   1px        0.231621  0.108885  0.581092  0.052145  0.025847 -0.011019
  1H   1py        0.006778  0.455569  0.108938 -0.088335 -0.018026 -0.031288
  2H   1s        -0.026081  0.000073  0.401625  0.135993  0.000000  0.005686
  2H   2s         0.117709 -0.000166 -0.913265 -0.330657 -0.000000 -0.017998
  2H   3s        -0.013844  0.000135  0.742680  0.290345  0.000003 -0.013711
  2H   1pz        0.605388  0.000016  0.089387 -0.620690 -0.000000  0.003042
  2H   1px        0.221006  0.000072  0.392903 -0.101420 -0.000006  0.043152
  2H   1py       -0.000058  0.644000 -0.000117  0.000000  0.026740  0.000005
  3H   1s        -0.002198  0.000000  0.000677 -0.403320 -0.000000 -0.000006
  3H   2s         0.009880 -0.000000 -0.001710  0.966700  0.000000 -0.000005
  3H   3s        -0.001406  0.000001  0.001830 -1.023914 -0.000000  0.000011
  3H   1pz        0.000475  0.000000  0.000646 -0.356858 -0.000000  0.000023
  3H   1px       -0.610293  0.000117  0.644559  0.001247  0.000003 -0.008320
  3H   1py        0.000116  0.644462 -0.000117  0.000000  0.014327  0.000001
  4H   1s         0.014142 -0.347967 -0.201144  0.134807 -0.000288 -0.002881
  4H   2s        -0.063790  0.791115  0.457327 -0.327921  0.001679  0.009068
  4H   3s         0.007557 -0.643512 -0.371997  0.288180 -0.017023  0.006838
  4H   1pz       -0.300139 -0.076600 -0.042948 -0.620867  0.002280 -0.001513
  4H   1px        0.231602 -0.108673  0.581132  0.052145 -0.025843 -0.011030
  4H   1py       -0.006851  0.455529 -0.109104  0.088335 -0.018035  0.031279
  5Cl  1s        -0.000001  0.000000  0.000003 -0.001604 -0.000000  0.000000
  5Cl  2s        -0.000004  0.000000  0.000008 -0.004747 -0.000000  0.000000
  5Cl  3s         0.000004 -0.000000 -0.000017  0.010175  0.000000 -0.000000
  5Cl  4s         0.000035 -0.000000 -0.000045  0.025532  0.000000 -0.000000
  5Cl  5s        -0.000148  0.000000  0.000214 -0.121948 -0.000000  0.000001
  5Cl  6s         0.000193 -0.000000 -0.000258  0.145093  0.000000 -0.000001
  5Cl  1pz        0.000141  0.000000  0.000009 -0.008079 -0.000000  0.000019
  5Cl  1px        0.009426 -0.000003 -0.014966 -0.000035  0.000137 -0.783494
  5Cl  1py       -0.000002 -0.019200  0.000003 -0.000000  0.783122  0.000137
  5Cl  2pz        0.000047  0.000000  0.000002 -0.002202 -0.000000  0.000006
  5Cl  2px        0.003119 -0.000001 -0.005015 -0.000012  0.000045 -0.259400
  5Cl  2py       -0.000001 -0.006428  0.000001 -0.000000  0.259438  0.000045
  5Cl  3pz       -0.000285 -0.000000 -0.000012  0.014317  0.000000 -0.000047
  5Cl  3px       -0.018574  0.000008  0.034218  0.000079 -0.000333  1.904449
  5Cl  3py        0.000004  0.044566 -0.000006  0.000000 -1.904273 -0.000333
  5Cl  4pz        0.000161 -0.000000 -0.000037  0.014899 -0.000000  0.000044
  5Cl  4px        0.007413 -0.000007 -0.027618 -0.000065  0.000317 -1.803925
  5Cl  4py       -0.000001 -0.037689  0.000005 -0.000000  1.810430  0.000316
  5Cl  5pz       -0.000047  0.000000  0.000194 -0.108242  0.000000 -0.000013
  5Cl  5px        0.009808  0.000001  0.002916  0.000008 -0.000102  0.577467
  5Cl  5py       -0.000002  0.006329 -0.000001  0.000000 -0.584398 -0.000101
  5Cl  1dz2       0.000088 -0.000000 -0.000053  0.030648  0.000000 -0.000000
  5Cl  1dxz      -0.000276  0.000000  0.000105  0.000001  0.000000 -0.000134
  5Cl  1dyz       0.000000  0.000098 -0.000000  0.000000  0.000138  0.000000
  5Cl  1dx2y2    -0.000001 -0.000000 -0.000083 -0.000602 -0.000000  0.000001
  5Cl  1dxy       0.000000  0.000084 -0.000000  0.000000  0.000002  0.000000
                     48        49        50        51        52        53   
                   2.46236   2.52644   2.62313   2.62327   2.70378   2.70386
                   0.00000   0.00000   0.00000   0.00000   0.00000   0.00000
                  --------  --------  --------  --------  --------  --------
  0C   1s         0.009525  0.061459  0.000000  0.000046 -0.000000 -0.000014
  0C   2s         0.015643  0.117649  0.000000  0.000090 -0.000000 -0.000040
  0C   1pz       -0.001198  0.005120 -0.000000 -0.000042  0.000001  0.002063
  0C   1px        0.000023  0.000110 -0.000000 -0.001866  0.000031  0.088663
  0C   1py        0.000000  0.000000 -0.001574  0.000000  0.088771 -0.000031
  0C   3s        -0.017050 -0.615813 -0.000000 -0.000447  0.000000  0.000558
  0C   2pz        0.002429 -0.004056  0.000000  0.000508  0.000013  0.029061
  0C   2px       -0.000043 -0.000069  0.000000  0.001217  0.000579  1.681291
  0C   2py        0.000000  0.000000  0.001269  0.000000  1.681610 -0.000579
  0C   4s        -0.157498  0.826540 -0.000000  0.000100 -0.000001 -0.001258
  0C   3pz       -0.222209  0.035817 -0.000000  0.000044  0.000004  0.009489
  0C   3px       -0.000010 -0.000076  0.000000  0.000043  0.000206  0.597312
  0C   3py       -0.000000 -0.000000  0.000145  0.000000  0.597063 -0.000205
  0C   1dz2      -0.020228  0.013993  0.000000  0.000054  0.000004  0.009184
  0C   1dxz       0.000103  0.000562 -0.000102 -1.018301 -0.000097 -0.282978
  0C   1dyz      -0.000000 -0.000000 -1.018487  0.000102 -0.283331  0.000098
  0C   1dx2y2     0.000081  0.000521 -0.000072 -0.720905  0.000138  0.402083
  0C   1dxy      -0.000000 -0.000000  0.720931 -0.000072 -0.402203  0.000138
  1H   1s         0.162891  0.682979  0.002019 -0.000923  0.635984 -0.371609
  1H   2s        -0.188529 -0.820661 -0.003438  0.001957 -2.129109  1.244948
  1H   3s         0.000999  0.179056  0.002170 -0.001377  0.327621 -0.191657
  1H   1pz        0.035381  0.090116  0.467140 -0.269708 -0.485070  0.278746
  1H   1px        0.015633  0.124434 -0.330857 -0.381958 -0.683736  0.091207
  1H   1py       -0.026950 -0.214775 -0.000234 -0.330974  0.875456 -0.692084
  2H   1s         0.162829  0.682773  0.000000  0.002914  0.000251  0.730157
  2H   2s        -0.188420 -0.820435 -0.000001 -0.004279 -0.000839 -2.443606
  2H   3s         0.000963  0.178998  0.000000  0.002874  0.000129  0.375838
  2H   1pz        0.035304  0.089605  0.000054  0.539531 -0.000193 -0.561705
  2H   1px       -0.031209 -0.248354  0.000019  0.190151  0.000433  1.260374
  2H   1py        0.000000  0.000000 -0.573251  0.000057 -0.308595  0.000106
  3H   1s         0.148022  0.679069  0.000000  0.000785  0.000006  0.013167
  3H   2s        -0.144030 -0.827141 -0.000000 -0.001267 -0.000020 -0.045263
  3H   3s         0.488671  0.090300  0.000000  0.000456  0.000004  0.008557
  3H   1pz       -0.056370 -0.260147  0.000000  0.000168  0.000012  0.025709
  3H   1px       -0.000047 -0.000293  0.000057  0.573612 -0.000107 -0.309999
  3H   1py        0.000000  0.000000  0.573582 -0.000057 -0.309894  0.000107
  4H   1s         0.162891  0.682979 -0.002019 -0.000923 -0.636241 -0.371172
  4H   2s        -0.188529 -0.820661  0.003438  0.001956  2.129968  1.243483
  4H   3s         0.000999  0.179056 -0.002170 -0.001377 -0.327753 -0.191431
  4H   1pz        0.035381  0.090116 -0.467194 -0.269614  0.485261  0.278412
  4H   1px        0.015633  0.124434  0.330781 -0.382024  0.683800  0.090736
  4H   1py        0.026950  0.214775 -0.000167  0.330974  0.875934  0.691481
  5Cl  1s         0.001191 -0.000125  0.000000  0.000001  0.000000  0.000010
  5Cl  2s         0.003643 -0.000418  0.000000  0.000002  0.000000  0.000029
[...]
           Valence non-Lewis    0.00571  (  0.0714%)
           Rydberg non-Lewis    0.02862  (  0.3578%)
          -------------------------------
               Total unit  2    7.99957  (100.0000%)
              Charge unit  2    0.50043

 $CHOOSE
  ALPHA
   LONE 6 4 END
   BOND S 1 2 S 1 3 S 1 4 S 1 5 END
  END
  BETA
   LONE 6 3 END
   BOND S 1 2 S 1 3 S 1 4 S 1 5 END
  END
 $END

 NBO analysis completed in 0.12 CPU seconds (0 wall seconds)
 Maximum scratch memory used by NBO was 391760 words (2.99 MB)
Stopping NBO...Storing NBOs: reactants.pmp2re.nbo

                                *** returned from   NBO  program ***


----------------------------------
MP2 DERIVATIVE INTEGRAL GENERATION
----------------------------------


Input Wavefunction Amplitudes       ... reactants.mp2tbb.tmp
Input Correlated Electron Density   ... reactants.pmp2re
Input Energy Weighted Density       ... reactants.wmp2.tmp
Input SCF Electron Density          ... reactants.scfp

One-Electron Terms    ...
                        ... One-Electron Terms done
Prescreening matrices              ... done

Batch handling in the gradient evaluation:
Memory available                      ... 3000.0 MB
Memory per occupied orbital in Q2     ...    1.0 MB
Memory per occupied orbital in Q3     ...    0.0 MB
Total memory requirement per |i>      ...    1.0 MB
Max. Number of orbitals possible      ...   3107
Number of orbitals treated per batch  ...     27
Number of batches to be done          ...      1
Batch   0: i=    0 ...    26

---------------------------------------
MP2 TOTAL ENERGY:     -500.032289455 Eh
---------------------------------------

-----------------------------------
NORM OF THE MP2 GRADIENT:  0.000020
-----------------------------------

-------------------------   --------------------
FINAL SINGLE POINT ENERGY      -500.032289454703
-------------------------   --------------------

                                *** OPTIMIZATION RUN DONE ***

                            ***************************************
                            *     ORCA property calculations      *
                            ***************************************

                                    ---------------------
                                    Active property flags
                                    ---------------------
   (+) Dipole Moment


------------------------------------------------------------------------------
                       ORCA ELECTRIC PROPERTIES CALCULATION
------------------------------------------------------------------------------

Dipole Moment Calculation                       ... on
Quadrupole Moment Calculation                   ... off
Polarizability Calculation                      ... off
GBWName                                         ... reactants.gbw
Electron density file                           ... reactants.scfp
The origin for moment calculation is the CENTER OF MASS  = ( 0.000048,  0.000000  0.023130)

-------------
DIPOLE MOMENT
-------------
                                X             Y             Z
Electronic contribution:      0.00025       0.00000      13.15351
Nuclear contribution   :     -0.00016      -0.00000     -13.16754
                        -----------------------------------------
Total Dipole Moment    :      0.00010       0.00000      -0.01404
                        -----------------------------------------
Magnitude (a.u.)       :      0.01404
Magnitude (Debye)      :      0.03568



--------------------
Rotational spectrum 
--------------------
 
Rotational constants in cm-1:     5.282554     0.078163     0.078163 
Rotational constants in MHz : 158366.997462  2343.273269  2343.268075 

 Dipole components along the rotational axes: 
x,y,z [a.u.] :    -0.014038    -0.000098    -0.000000 
x,y,z [Debye]:    -0.035682    -0.000249    -0.000000 

 

                         *** MP2 UNRELAXED DENSITY ***

------------------------------------------------------------------------------
                       ORCA ELECTRIC PROPERTIES CALCULATION
------------------------------------------------------------------------------

Dipole Moment Calculation                       ... on
Quadrupole Moment Calculation                   ... off
Polarizability Calculation                      ... off
GBWName                                         ... reactants.gbw
Electron density file                           ... reactants.pmp2ur
The origin for moment calculation is the CENTER OF MASS  = ( 0.000048,  0.000000  0.023130)

-------------
DIPOLE MOMENT
-------------
                                X             Y             Z
Electronic contribution:      0.00025       0.00000      13.15357
Nuclear contribution   :     -0.00016      -0.00000     -13.16754
                        -----------------------------------------
Total Dipole Moment    :      0.00010       0.00000      -0.01397
                        -----------------------------------------
Magnitude (a.u.)       :      0.01397
Magnitude (Debye)      :      0.03552



--------------------
Rotational spectrum 
--------------------
 
Rotational constants in cm-1:     5.282554     0.078163     0.078163 
Rotational constants in MHz : 158366.997462  2343.273269  2343.268075 

 Dipole components along the rotational axes: 
x,y,z [a.u.] :    -0.013972    -0.000099    -0.000000 
x,y,z [Debye]:    -0.035515    -0.000251    -0.000000 

 

                           *** MP2 RELAXED DENSITY ***

------------------------------------------------------------------------------
                       ORCA ELECTRIC PROPERTIES CALCULATION
------------------------------------------------------------------------------

Dipole Moment Calculation                       ... on
Quadrupole Moment Calculation                   ... off
Polarizability Calculation                      ... off
GBWName                                         ... reactants.gbw
Electron density file                           ... reactants.pmp2re
The origin for moment calculation is the CENTER OF MASS  = ( 0.000048,  0.000000  0.023130)

-------------
DIPOLE MOMENT
-------------
                                X             Y             Z
Electronic contribution:      0.00024       0.00000      13.15850
Nuclear contribution   :     -0.00016      -0.00000     -13.16754
                        -----------------------------------------
Total Dipole Moment    :      0.00008       0.00000      -0.00905
                        -----------------------------------------
Magnitude (a.u.)       :      0.00905
Magnitude (Debye)      :      0.02300



--------------------
Rotational spectrum 
--------------------
 
Rotational constants in cm-1:     5.282554     0.078163     0.078163 
Rotational constants in MHz : 158366.997462  2343.273269  2343.268075 

 Dipole components along the rotational axes: 
x,y,z [a.u.] :    -0.009047    -0.000079    -0.000000 
x,y,z [Debye]:    -0.022996    -0.000202    -0.000000 

 
------------------------------------------------------------------------------
                         ORCA MP2 H E S S I A N CALCULATION
------------------------------------------------------------------------------

Calculating analytic MP2 second derivatives ... (>reactants.last_mp2) done

-----------------------
VIBRATIONAL FREQUENCIES
-----------------------

Scaling factor for frequencies =  1.000000000  (already applied!)

   0:         0.00 cm**-1
   1:         0.00 cm**-1
   2:         0.00 cm**-1
   3:         0.00 cm**-1
   4:         0.00 cm**-1
   5:         0.00 cm**-1
   6:        42.63 cm**-1
   7:        56.70 cm**-1
   8:        63.98 cm**-1
   9:      1347.64 cm**-1
  10:      1362.08 cm**-1
  11:      1364.66 cm**-1
  12:      1574.34 cm**-1
  13:      1580.55 cm**-1
  14:      3082.39 cm**-1
  15:      3217.08 cm**-1
  16:      3218.81 cm**-1
  17:      3225.41 cm**-1


------------
NORMAL MODES
------------

These modes are the Cartesian displacements weighted by the diagonal matrix
M(i,i)=1/sqrt(m[i]) where m[i] is the mass of the displaced atom
Thus, these vectors are normalized but *not* orthogonal

                  0          1          2          3          4          5    
      0       0.000000   0.000000   0.000000   0.000000   0.000000   0.000000
      1       0.000000   0.000000   0.000000   0.000000   0.000000   0.000000
      2       0.000000   0.000000   0.000000   0.000000   0.000000   0.000000
      3       0.000000   0.000000   0.000000   0.000000   0.000000   0.000000
      4       0.000000   0.000000   0.000000   0.000000   0.000000   0.000000
      5       0.000000   0.000000   0.000000   0.000000   0.000000   0.000000
      6       0.000000   0.000000   0.000000   0.000000   0.000000   0.000000
      7       0.000000   0.000000   0.000000   0.000000   0.000000   0.000000
      8       0.000000   0.000000   0.000000   0.000000   0.000000   0.000000
      9       0.000000   0.000000   0.000000   0.000000   0.000000   0.000000
     10       0.000000   0.000000   0.000000   0.000000   0.000000   0.000000
     11       0.000000   0.000000   0.000000   0.000000   0.000000   0.000000
     12       0.000000   0.000000   0.000000   0.000000   0.000000   0.000000
     13       0.000000   0.000000   0.000000   0.000000   0.000000   0.000000
     14       0.000000   0.000000   0.000000   0.000000   0.000000   0.000000
     15       0.000000   0.000000   0.000000   0.000000   0.000000   0.000000
     16       0.000000   0.000000   0.000000   0.000000   0.000000   0.000000
     17       0.000000   0.000000   0.000000   0.000000   0.000000   0.000000
                  6          7          8          9         10         11    
      0      -0.000013   0.000995  -0.025895   0.002264  -0.001567   0.124470
      1      -0.000314   0.025740   0.000990  -0.124576  -0.005628   0.002193
      2       0.438841   0.001216  -0.000065  -0.005636   0.124271   0.001650
      3       0.000162  -0.007718   0.179075   0.258002   0.127872  -0.454226
      4       0.002004  -0.178876  -0.006773   0.142300  -0.180237  -0.276206
      5       0.443986  -0.485977  -0.308252   0.208982  -0.518430   0.096064
      6       0.000142  -0.006990   0.178786   0.010294  -0.219672   0.015944
      7       0.002175  -0.180319  -0.006960   0.608720   0.027618  -0.010765
      8       0.439094  -0.021330   0.577649   0.019935  -0.523217  -0.219824
      9      -0.000716   0.024623  -0.633212  -0.010705   0.007288  -0.601680
     10      -0.007506   0.636114   0.024732   0.598787   0.026925  -0.010488
     11       0.437352   0.001142  -0.000100  -0.003941   0.095209   0.001213
     12       0.000117  -0.006054   0.179109  -0.284567   0.103175  -0.444594
     13       0.002267  -0.178868  -0.007087   0.135374   0.192696   0.271357
     14       0.432134   0.510562  -0.269578  -0.157897  -0.535278   0.102660
     15       0.000013  -0.000447   0.011509  -0.000000   0.000000   0.000040
     16       0.000137  -0.011508  -0.000447  -0.000022   0.000002  -0.000001
     17      -0.198502  -0.000537   0.000030   0.000002   0.000027   0.000006
                 12         13         14         15         16         17    
      0       0.000002   0.000939  -0.000033  -0.002593   0.092393  -0.000293
      1       0.001107  -0.000040   0.000062  -0.092107  -0.002595  -0.003674
      2      -0.000006  -0.000036  -0.002050  -0.003631   0.000193   0.092344
      3       0.285127   0.330292   0.239049  -0.328874  -0.187268  -0.145162
      4      -0.000576   0.286870  -0.413901   0.548586   0.354690   0.250688
      5      -0.411605   0.236049   0.168529  -0.231882  -0.145240  -0.085416
      6       0.000057  -0.166302  -0.477093   0.010434  -0.763366   0.267215
      7       0.493468   0.000345   0.000091  -0.020125  -0.000536  -0.000595
      8       0.000155  -0.471466   0.168128  -0.004654   0.276717  -0.077352
      9       0.000135  -0.506055   0.000022  -0.000466   0.017927   0.000003
     10      -0.504967   0.000043   0.000069  -0.017218  -0.000461  -0.000529
     11      -0.000007  -0.000067  -0.481243   0.034053  -0.001954  -0.872921
     12      -0.285341   0.329936   0.238420   0.349808  -0.168218  -0.118556
     13      -0.000430  -0.286796   0.412995   0.586378  -0.322773  -0.205806
     14       0.411534   0.236123   0.168066   0.245817  -0.131842  -0.066750
     15      -0.000000   0.000027  -0.000000  -0.000000  -0.000000  -0.000000
     16      -0.000020   0.000000   0.000000  -0.000003   0.000000   0.000001
     17      -0.000000  -0.000006   0.000027  -0.000002   0.000001   0.000060


-----------
IR SPECTRUM
-----------

 Mode    freq (cm**-1)   T**2         TX         TY         TZ
-------------------------------------------------------------------
   6:        42.63    0.000949  (  0.000917  -0.001046  -0.030779)
   7:        56.70    0.086221  ( -0.017171   0.292925   0.011019)
   8:        63.98    0.008306  ( -0.090452   0.010937  -0.002174)
   9:      1347.64   18.745064  (  0.026575   4.328020   0.112250)
  10:      1362.08   13.630658  (  0.045080   0.195408  -3.686522)
  11:      1364.66   14.308434  ( -3.781572  -0.076430  -0.048010)
  12:      1574.34    0.435149  ( -0.001063  -0.659657   0.000686)
  13:      1580.55    0.001167  ( -0.033891   0.002024   0.003725)
  14:      3082.39    0.248569  ( -0.007005   0.005029  -0.498492)
  15:      3217.08   22.513098  ( -0.056414  -4.739918  -0.207585)
  16:      3218.81   21.481210  (  4.632857  -0.133274   0.009266)
  17:      3225.41   17.801909  ( -0.007895  -0.185722   4.215134)

The first frequency considered to be a vibration is 6
The total number of vibrations considered is 12


--------------------------
THERMOCHEMISTRY AT 298.15K
--------------------------

Temperature         ... 298.15 K
Pressure            ... 1.00 atm
Total Mass          ... 51.50 AMU

Throughout the following assumptions are being made:
  (1) The electronic state is orbitally nondegenerate
      but the spin degeneracy is treated
  (2) There are no thermally accessible electronically excited states
  (3) Hindered rotations indicated by low frequency modes are not
      treated as such but are treated as vibrations and this may
      cause some error
  (4) All equations used are the standard statistical mechanics
      equations for an ideal gas
  (5) All vibrations are strictly harmonic

freq.      42.63  E(vib)   ...       0.53 
freq.      56.70  E(vib)   ...       0.52 
freq.      63.98  E(vib)   ...       0.51 
freq.    1347.64  E(vib)   ...       0.01 
freq.    1362.08  E(vib)   ...       0.01 
freq.    1364.66  E(vib)   ...       0.01 
freq.    1574.34  E(vib)   ...       0.00 
freq.    1580.55  E(vib)   ...       0.00 
freq.    3082.39  E(vib)   ...       0.00 
freq.    3217.08  E(vib)   ...       0.00 
freq.    3218.81  E(vib)   ...       0.00 
freq.    3225.41  E(vib)   ...       0.00 

------------
INNER ENERGY
------------

The inner energy is: U= E(el) + E(ZPE) + E(vib) + E(rot) + E(trans)
    E(el)   - is the total energy from the electronic structure calculation
              = E(kin-el) + E(nuc-el) + E(el-el) + E(nuc-nuc)
    E(ZPE)  - the the zero temperature vibrational energy from the frequency calculation
    E(vib)  - the the finite temperature correction to E(ZPE) due to population
              of excited vibrational states
    E(rot)  - is the rotational thermal energy
    E(trans)- is the translational thermal energy

Summary of contributions to the inner energy U:
Electronic energy                ...   -500.03228945 Eh
Zero point energy                ...      0.04587382 Eh      28.79 kcal/mol
Thermal vibrational correction   ...      0.00251090 Eh       1.58 kcal/mol
Thermal rotational correction    ...      0.00141627 Eh       0.89 kcal/mol
Thermal translational correction ...      0.00141627 Eh       0.89 kcal/mol
-----------------------------------------------------------------------
Total thermal energy                   -499.98107220 Eh


Summary of corrections to the electronic energy:
(perhaps to be used in another calculation)
Total thermal correction                  0.00534344 Eh       3.35 kcal/mol
Non-thermal (ZPE) correction              0.04587382 Eh      28.79 kcal/mol
-----------------------------------------------------------------------
Total correction                          0.05121725 Eh      32.14 kcal/mol


--------
ENTHALPY
--------

The enthalpy is H = U + kB*T
                kB is Boltzmann's constant
Total free energy                 ...   -499.98107220 Eh 
Thermal Enthalpy correction       ...      0.00094421 Eh       0.59 kcal/mol
-----------------------------------------------------------------------
Total Enthalpy                    ...   -499.98012799 Eh


Note: Rotational entropy computed according to Herzberg 
Infrared and Raman Spectra, Chapter V,1, Van Nostrand Reinhold, 1945 
Point Group:  Cs, Symmetry Number:   1  
Rotational constants in cm-1:     5.282554     0.078163     0.078163 

Vibrational entropy computed according to the QRRHO of S. Grimme
Chem.Eur.J. 2012 18 9955


-------
ENTROPY
-------

The entropy contributions are T*S = T*(S(el)+S(vib)+S(rot)+S(trans))
     S(el)   - electronic entropy
     S(vib)  - vibrational entropy
     S(rot)  - rotational entropy
     S(trans)- translational entropy
The entropies will be listed as mutliplied by the temperature to get
units of energy

Electronic entropy                ...      0.00065446 Eh      0.41 kcal/mol
Vibrational entropy               ...      0.00513285 Eh      3.22 kcal/mol
Rotational entropy                ...      0.01113174 Eh      6.99 kcal/mol
Translational entropy             ...      0.01793131 Eh     11.25 kcal/mol
-----------------------------------------------------------------------
Final entropy term                ...      0.03485036 Eh     21.87 kcal/mol

In case the symmetry of your molecule has not been determined correctly
or in case you have a reason to use a different symmetry number we print 
out the resulting rotational entropy values for sn=1,12 :
 --------------------------------------------------------
|  sn= 1 | S(rot)=       0.01113174 Eh      6.99 kcal/mol|
|  sn= 2 | S(rot)=       0.01047728 Eh      6.57 kcal/mol|
|  sn= 3 | S(rot)=       0.01009445 Eh      6.33 kcal/mol|
|  sn= 4 | S(rot)=       0.00982282 Eh      6.16 kcal/mol|
|  sn= 5 | S(rot)=       0.00961213 Eh      6.03 kcal/mol|
|  sn= 6 | S(rot)=       0.00943999 Eh      5.92 kcal/mol|
|  sn= 7 | S(rot)=       0.00929444 Eh      5.83 kcal/mol|
|  sn= 8 | S(rot)=       0.00916837 Eh      5.75 kcal/mol|
|  sn= 9 | S(rot)=       0.00905716 Eh      5.68 kcal/mol|
|  sn=10 | S(rot)=       0.00895768 Eh      5.62 kcal/mol|
|  sn=11 | S(rot)=       0.00886769 Eh      5.56 kcal/mol|
|  sn=12 | S(rot)=       0.00878553 Eh      5.51 kcal/mol|
 --------------------------------------------------------


-------------------
GIBBS FREE ENERGY
-------------------

The Gibbs free energy is G = H - T*S

Total enthalpy                    ...   -499.98012799 Eh 
Total entropy correction          ...     -0.03485036 Eh    -21.87 kcal/mol
-----------------------------------------------------------------------
Final Gibbs free energy         ...   -500.01497835 Eh

For completeness - the Gibbs free energy minus the electronic energy
G-E(el)                           ...      0.01731111 Eh     10.86 kcal/mol


Timings for individual modules:

Sum of individual times         ...       97.209 sec (=   1.620 min)
GTO integral calculation        ...        1.459 sec (=   0.024 min)   1.5 %
SCF iterations                  ...        5.194 sec (=   0.087 min)   5.3 %
MP2 module                      ...        7.160 sec (=   0.119 min)   7.4 %
Geometry relaxation             ...        0.034 sec (=   0.001 min)   0.0 %
Analytical frequency calculation...       83.362 sec (=   1.389 min)  85.8 %
                             ****ORCA TERMINATED NORMALLY****
TOTAL RUN TIME: 0 days 0 hours 1 minutes 38 seconds 111 msec
