
                                 *****************
                                 * O   R   C   A *
                                 *****************

           --- An Ab Initio, DFT and Semiempirical electronic structure package ---

                  #######################################################
                  #                        -***-                        #
                  #          Department of theory and spectroscopy      #
                  #               Directorship: Frank Neese             #
                  #        Max Planck Institute fuer Kohlenforschung    #
                  #                Kaiser Wilhelm Platz 1               #
                  #                 D-45470 Muelheim/Ruhr               #
                  #                      Germany                        #
                  #                                                     #
                  #                  All rights reserved                #
                  #                        -***-                        #
                  #######################################################


                         Program Version 4.2.1 -  RELEASE  -


 With contributions from (in alphabetic order):
   Daniel Aravena         : Magnetic Suceptibility
   Michael Atanasov       : Ab Initio Ligand Field Theory (pilot matlab implementation)
   Alexander A. Auer      : GIAO ZORA, VPT2
   Ute Becker             : Parallelization
   Giovanni Bistoni       : ED, misc. LED, open-shell LED, HFLD
   Martin Brehm           : Molecular dynamics
   Dmytro Bykov           : SCF Hessian
   Vijay G. Chilkuri      : MRCI spin determinant printing, contributions to CSF-ICE
   Dipayan Datta          : RHF DLPNO-CCSD density
   Achintya Kumar Dutta   : EOM-CC, STEOM-CC
   Dmitry Ganyushin       : Spin-Orbit,Spin-Spin,Magnetic field MRCI
   Miquel Garcia          : C-PCM Hessian, Gaussian charge scheme
   Yang Guo               : DLPNO-NEVPT2, CIM, IAO-localization
   Andreas Hansen         : Spin unrestricted coupled pair/coupled cluster methods
   Benjamin Helmich-Paris : CASSCF linear response (MC-RPA)
   Lee Huntington         : MR-EOM, pCC
   Robert Izsak           : Overlap fitted RIJCOSX, COSX-SCS-MP3, EOM
   Christian Kollmar      : KDIIS, OOCD, Brueckner-CCSD(T), CCSD density
   Simone Kossmann        : Meta GGA functionals, TD-DFT gradient, OOMP2, MP2 Hessian
   Martin Krupicka        : AUTO-CI
   Lucas Lang             : DCDCAS
   Dagmar Lenk            : GEPOL surface, SMD
   Dimitrios Liakos       : Extrapolation schemes; Compound Job, initial MDCI parallelization
   Dimitrios Manganas     : Further ROCIS development; embedding schemes
   Dimitrios Pantazis     : SARC Basis sets
   Taras Petrenko         : DFT Hessian,TD-DFT gradient, ASA, ECA, R-Raman, ABS, FL, XAS/XES, NRVS
   Peter Pinski           : DLPNO-MP2, DLPNO-MP2 Gradient
   Christoph Reimann      : Effective Core Potentials
   Marius Retegan         : Local ZFS, SOC
   Christoph Riplinger    : Optimizer, TS searches, QM/MM, DLPNO-CCSD(T), (RO)-DLPNO pert. Triples
   Tobias Risthaus        : Range-separated hybrids, TD-DFT gradient, RPA, STAB
   Michael Roemelt        : Original ROCIS implementation
   Masaaki Saitow         : Open-shell DLPNO-CCSD energy and density
   Barbara Sandhoefer     : DKH picture change effects
   Avijit Sen             : IP-ROCIS
   Kantharuban Sivalingam : CASSCF convergence, NEVPT2, FIC-MRCI
   Bernardo de Souza      : ESD, SOC TD-DFT
   Georgi Stoychev        : AutoAux, RI-MP2 NMR
   Willem Van den Heuvel  : Paramagnetic NMR
   Boris Wezisla          : Elementary symmetry handling
   Frank Wennmohs         : Technical directorship


 We gratefully acknowledge several colleagues who have allowed us to
 interface, adapt or use parts of their codes:
   Stefan Grimme, W. Hujo, H. Kruse,             : VdW corrections, initial TS optimization,
                  C. Bannwarth                     DFT functionals, gCP, sTDA/sTD-DF
   Ed Valeev, F. Pavosevic, A. Kumar             : LibInt (2-el integral package), F12 methods
   Garnet Chan, S. Sharma, J. Yang, R. Olivares  : DMRG
   Ulf Ekstrom                                   : XCFun DFT Library
   Mihaly Kallay                                 : mrcc  (arbitrary order and MRCC methods)
   Andreas Klamt, Michael Diedenhofen            : otool_cosmo (COSMO solvation model)
   Jiri Pittner, Ondrej Demel                    : Mk-CCSD
   Frank Weinhold                                : gennbo (NPA and NBO analysis)
   Christopher J. Cramer and Donald G. Truhlar   : smd solvation model
   Lars Goerigk                                  : TD-DFT with DH, B97 family of functionals
   V. Asgeirsson, H. Jonsson                     : NEB implementation
   FAccTs GmbH                                   : IRC, NEB, NEB-TS, Multilevel, MM, QM/MM, CI optimization
   S Lehtola, MJT Oliveira, MAL Marques          : LibXC Library


 Your calculation uses the libint2 library for the computation of 2-el integrals
 For citations please refer to: http://libint.valeyev.net

 Your ORCA version has been built with support for libXC version: 4.2.3
 For citations please refer to: https://tddft.org/programs/libxc/

 This ORCA versions uses:
   CBLAS   interface :  Fast vector & matrix operations
   LAPACKE interface :  Fast linear algebra routines
   SCALAPACK package :  Parallel linear algebra routines


Your calculation utilizes the atom-pairwise dispersion correction
with the Becke-Johnson damping scheme (D3BJ)
Cite in your paper:
S.Grimme, S.Ehrlich, L.Goerigk, J Comput Chem, (2011), 32, 1456–1465 
S.Grimme, J.Antony, S.Ehrlich and H.Krieg, J.Chem.Phys., 132, (2010), 154104 
   

Your calculation employs the composite approach B97-3c by Grimme and coworkers.
For the correct reference, please check the publication list of the Grimme group:
http://www.thch.uni-bonn.de/tc/index.php?section=publikationen&subsection=grimme#2017
   

XCFun DFT library Copyright 2009-2010 Ulf Ekstrom and contributors.
See http://admol.org/xcfun for more information. This is free soft-
ware; see the source code for copying conditions. There is ABSOLUTELY
NO WARRANTY; not even for MERCHANTABILITY or FITNESS FOR A PARTICULAR
PURPOSE. For details see the documentation. Scientific users of this 
library should cite U. Ekstrom, L. Visscher, R. Bast, A. J. Thorvald-
sen and K. Ruud; J.Chem.Theor.Comp. 2010, DOI: 10.1021/ct100117s
XCFun Version 0.99 
----- Orbital basis set information -----
Your calculation utilizes the basis: def2-mTZVP
----- AuxJ basis set information -----
Your calculation utilizes the basis: def2-mTZVP/J
================================================================================
                                        WARNINGS
                       Please study these warnings very carefully!
================================================================================


WARNING: Geometry Optimization
  ===> : Switching off AutoStart
         For restart on a previous wavefunction, please use MOREAD

INFO   : the flag for use of LIBINT has been found!

================================================================================
                                       INPUT FILE
================================================================================
NAME = ethane-eclipsed.inp
|  1> ! B97-3c Opt Freq TightOpt TightSCF
|  2> 
|  3> %pal
|  4>  nprocs 2
|  5> end
|  6> 
|  7> *xyz 0 1
|  8> C       -7.633588000      2.520693000     -0.000048000
|  9> C       -6.124410000      2.689104000      0.000047000
| 10> H       -7.925146000      1.535366000     -0.363240000
| 11> H       -8.117558000      3.259536000     -0.638459000
| 12> H       -8.047628000      2.634298000      1.001593000
| 13> H       -5.815403252      3.516534335     -0.638306222
| 14> H       -5.622756499      1.792368159     -0.363127044
| 15> H       -5.745503706      2.891318392      1.001707199
| 16> *
| 17> 
| 18>                          ****END OF INPUT****
================================================================================

                       *****************************
                       * Geometry Optimization Run *
                       *****************************

Geometry optimization settings:
Update method            Update   .... BFGS
Choice of coordinates    CoordSys .... Z-matrix Internals
Initial Hessian          InHess   .... Almoef's Model

Convergence Tolerances:
Energy Change            TolE     ....  1.0000e-06 Eh
Max. Gradient            TolMAXG  ....  1.0000e-04 Eh/bohr
RMS Gradient             TolRMSG  ....  3.0000e-05 Eh/bohr
Max. Displacement        TolMAXD  ....  1.0000e-03 bohr
RMS Displacement         TolRMSD  ....  6.0000e-04 bohr
Strict Convergence                ....  False
------------------------------------------------------------------------------
                        ORCA OPTIMIZATION COORDINATE SETUP
------------------------------------------------------------------------------

The optimization will be done in new redundant internal coordinates
Making redundant internal coordinates   ...  (new redundants) done
Evaluating the initial hessian          ...  (Almloef) done
Evaluating the coordinates              ...  done
Calculating the B-matrix                .... done
Calculating the G-matrix                .... done
Diagonalizing the G-matrix              .... done
The first mode is                       ....   10
The number of degrees of freedom        ....   18

    -----------------------------------------------------------------
                    Redundant Internal Coordinates


    -----------------------------------------------------------------
         Definition                    Initial Value    Approx d2E/dq
    -----------------------------------------------------------------
      1. B(C   1,C   0)                  1.5185         0.389630   
      2. B(H   2,C   0)                  1.0899         0.360292   
      3. B(H   3,C   0)                  1.0898         0.360352   
      4. B(H   4,C   0)                  1.0898         0.360391   
      5. B(H   5,C   1)                  1.0898         0.360391   
      6. B(H   6,C   1)                  1.0898         0.360351   
      7. B(H   7,C   1)                  1.0899         0.360292   
      8. A(H   2,C   0,H   4)          107.3918         0.290901   
      9. A(C   1,C   0,H   4)          111.4671         0.326614   
     10. A(C   1,C   0,H   2)          111.4788         0.326599   
     11. A(H   3,C   0,H   4)          107.3991         0.290908   
     12. A(H   2,C   0,H   3)          107.3924         0.290896   
     13. A(C   1,C   0,H   3)          111.4813         0.326608   
     14. A(C   0,C   1,H   5)          111.4672         0.326614   
     15. A(H   6,C   1,H   7)          107.3924         0.290896   
     16. A(H   5,C   1,H   7)          107.3918         0.290901   
     17. A(C   0,C   1,H   7)          111.4788         0.326599   
     18. A(H   5,C   1,H   6)          107.3991         0.290908   
     19. A(C   0,C   1,H   6)          111.4813         0.326608   
     20. D(H   5,C   1,C   0,H   3)      0.0038         0.012070   
     21. D(H   5,C   1,C   0,H   4)   -120.0001         0.012070   
     22. D(H   6,C   1,C   0,H   2)      0.0032         0.012070   
     23. D(H   6,C   1,C   0,H   3)   -120.0000         0.012070   
     24. D(H   6,C   1,C   0,H   4)    119.9961         0.012070   
     25. D(H   7,C   1,C   0,H   2)   -120.0000         0.012070   
     26. D(H   7,C   1,C   0,H   3)    119.9968         0.012070   
     27. D(H   7,C   1,C   0,H   4)     -0.0071         0.012070   
     28. D(H   5,C   1,C   0,H   2)    120.0071         0.012070   
    -----------------------------------------------------------------

Number of atoms                         .... 8
Number of degrees of freedom            .... 28

         *************************************************************
         *                GEOMETRY OPTIMIZATION CYCLE   1            *
         *************************************************************
---------------------------------
CARTESIAN COORDINATES (ANGSTROEM)
---------------------------------
  C     -7.633588    2.520693   -0.000048
  C     -6.124410    2.689104    0.000047
  H     -7.925146    1.535366   -0.363240
  H     -8.117558    3.259536   -0.638459
  H     -8.047628    2.634298    1.001593
  H     -5.815403    3.516534   -0.638306
  H     -5.622756    1.792368   -0.363127
  H     -5.745504    2.891318    1.001707

----------------------------
CARTESIAN COORDINATES (A.U.)
----------------------------
  NO LB      ZA    FRAG     MASS         X           Y           Z
   0 C     6.0000    0    12.011  -14.425391    4.763419   -0.000091
   1 C     6.0000    0    12.011  -11.573458    5.081670    0.000089
   2 H     1.0000    0     1.008  -14.976356    2.901421   -0.686424
   3 H     1.0000    0     1.008  -15.339961    6.159630   -1.206513
   4 H     1.0000    0     1.008  -15.207813    4.978102    1.892736
   5 H     1.0000    0     1.008  -10.989520    6.645287   -1.206224
   6 H     1.0000    0     1.008  -10.625470    3.387085   -0.686211
   7 H     1.0000    0     1.008  -10.857429    5.463800    1.892952

--------------------------------
INTERNAL COORDINATES (ANGSTROEM)
--------------------------------
 C      0   0   0     0.000000000000     0.00000000     0.00000000
 C      1   0   0     1.518545524385     0.00000000     0.00000000
 H      1   2   0     1.089854941337   111.47878760     0.00000000
 H      1   2   3     1.089809407406   111.48125162   239.99675061
 H      1   2   3     1.089779753210   111.46714440   119.99287661
 H      2   1   3     1.089780237307   111.46718428   120.00706172
 H      2   1   3     1.089810437569   111.48128644     0.00000000
 H      2   1   3     1.089854941827   111.47878762   239.99999999

---------------------------
INTERNAL COORDINATES (A.U.)
---------------------------
 C      0   0   0     0.000000000000     0.00000000     0.00000000
 C      1   0   0     2.869635162980     0.00000000     0.00000000
 H      1   2   0     2.059527364828   111.47878760     0.00000000
 H      1   2   3     2.059441318168   111.48125162   239.99675061
 H      1   2   3     2.059385279859   111.46714440   119.99287661
 H      2   1   3     2.059386194670   111.46718428   120.00706172
 H      2   1   3     2.059443264895   111.48128644     0.00000000
 H      2   1   3     2.059527365754   111.47878762   239.99999999

---------------------
BASIS SET INFORMATION
---------------------
There are 2 groups of distinct atoms

 Group   1 Type C   : 11s6p1d contracted to 5s3p1d pattern {62111/411/1}
 Group   2 Type H   : 5s contracted to 3s pattern {311}

Atom   0C    basis set group =>   1
Atom   1C    basis set group =>   1
Atom   2H    basis set group =>   2
Atom   3H    basis set group =>   2
Atom   4H    basis set group =>   2
Atom   5H    basis set group =>   2
Atom   6H    basis set group =>   2
Atom   7H    basis set group =>   2
---------------------------------
AUXILIARY/J BASIS SET INFORMATION
---------------------------------
There are 2 groups of distinct atoms

 Group   1 Type C   : 8s3p3d contracted to 6s3p3d pattern {311111/111/111}
 Group   2 Type H   : 5s2p contracted to 3s1p pattern {311/2}

Atom   0C    basis set group =>   1
Atom   1C    basis set group =>   1
Atom   2H    basis set group =>   2
Atom   3H    basis set group =>   2
Atom   4H    basis set group =>   2
Atom   5H    basis set group =>   2
Atom   6H    basis set group =>   2
Atom   7H    basis set group =>   2


           ************************************************************
           *        Program running with 2 parallel MPI-processes     *
           *              working on a common directory               *
           ************************************************************
------------------------------------------------------------------------------
                           ORCA GTO INTEGRAL CALCULATION
                           -- RI-GTO INTEGRALS CHOSEN --
------------------------------------------------------------------------------

                         BASIS SET STATISTICS AND STARTUP INFO

Gaussian basis set:
 # of primitive gaussian shells          ...   66
 # of primitive gaussian functions       ...   98
 # of contracted shells                  ...   36
 # of contracted basis functions         ...   56
 Highest angular momentum                ...    2
 Maximum contraction depth               ...    6
Auxiliary gaussian basis set:
 # of primitive gaussian shells          ...   70
 # of primitive gaussian functions       ...  130
 # of contracted shells                  ...   48
 # of contracted aux-basis functions     ...   96
 Highest angular momentum                ...    2
 Maximum contraction depth               ...    3
Ratio of auxiliary to basis functions    ...  1.71
Integral package used                  ... LIBINT
 One Electron integrals                  ... done
 Ordering auxiliary basis shells         ... done
 Integral threshhold             Thresh  ...  2.500e-11
 Primitive cut-off               TCut    ...  2.500e-12
 Pre-screening matrix                    ... done
 Shell pair data                         ... 
 Ordering of the shell pairs             ... done (   0.000 sec) 665 of 666 pairs
 Determination of significant pairs      ... done (   0.000 sec)
 Creation of shell pair data             ... done (   0.000 sec)
 Storage of shell pair data              ... done (   0.002 sec)
 Shell pair data done in (   0.002 sec)
 Computing two index integrals           ... done
 Cholesky decomposition of the V-matrix  ... done


Timings:
 Total evaluation time                   ...   0.080 sec (  0.001 min)
 One electron matrix time                ...   0.003 sec (  0.000 min) =  4.3%
 Schwartz matrix evaluation time         ...   0.057 sec (  0.001 min) = 71.7%
 Two index repulsion integral time       ...   0.000 sec (  0.000 min) =  0.4%
 Cholesky decomposition of V             ...   0.000 sec (  0.000 min) =  0.4%
 Three index repulsion integral time     ...   0.000 sec (  0.000 min) =  0.0%



           ************************************************************
           *        Program running with 2 parallel MPI-processes     *
           *              working on a common directory               *
           ************************************************************
-------------------------------------------------------------------------------
                                 ORCA SCF
-------------------------------------------------------------------------------

------------
SCF SETTINGS
------------
Hamiltonian:
 Density Functional     Method          .... DFT(GTOs)
 Exchange Functional    Exchange        .... B973C
 Correlation Functional Correlation     .... B973C
 Gradients option       PostSCFGGA      .... off
   Density functional embedding theory  .... OFF
 RI-approximation to the Coulomb term is turned on
   Number of auxiliary basis functions  .... 96


General Settings:
 Integral files         IntName         .... ethane-eclipsed
 Hartree-Fock type      HFTyp           .... RHF
 Total Charge           Charge          ....    0
 Multiplicity           Mult            ....    1
 Number of Electrons    NEL             ....   18
 Basis Dimension        Dim             ....   56
 Nuclear Repulsion      ENuc            ....     42.3927192221 Eh

Convergence Acceleration:
 DIIS                   CNVDIIS         .... on
   Start iteration      DIISMaxIt       ....    12
   Startup error        DIISStart       ....  0.200000
   # of expansion vecs  DIISMaxEq       ....     5
   Bias factor          DIISBfac        ....   1.050
   Max. coefficient     DIISMaxC        ....  10.000
 Newton-Raphson         CNVNR           .... off
 SOSCF                  CNVSOSCF        .... on
   Start iteration      SOSCFMaxIt      ....   150
   Startup grad/error   SOSCFStart      ....  0.003300
 Level Shifting         CNVShift        .... on
   Level shift para.    LevelShift      ....    0.2500
   Turn off err/grad.   ShiftErr        ....    0.0010
 Zerner damping         CNVZerner       .... off
 Static damping         CNVDamp         .... on
   Fraction old density DampFac         ....    0.7000
   Max. Damping (<1)    DampMax         ....    0.9800
   Min. Damping (>=0)   DampMin         ....    0.0000
   Turn off err/grad.   DampErr         ....    0.1000
 Fernandez-Rico         CNVRico         .... off

SCF Procedure:
 Maximum # iterations   MaxIter         ....   125
 SCF integral mode      SCFMode         .... Direct
   Integral package                     .... LIBINT
 Reset frequency        DirectResetFreq ....    20
 Integral Threshold     Thresh          ....  2.500e-11 Eh
 Primitive CutOff       TCut            ....  2.500e-12 Eh

Convergence Tolerance:
 Convergence Check Mode ConvCheckMode   .... Total+1el-Energy
 Convergence forced     ConvForced      .... 0
 Energy Change          TolE            ....  1.000e-08 Eh
 1-El. energy change                    ....  1.000e-05 Eh
 Orbital Gradient       TolG            ....  1.000e-05
 Orbital Rotation angle TolX            ....  1.000e-05
 DIIS Error             TolErr          ....  5.000e-07


Diagonalization of the overlap matrix:
Smallest eigenvalue                        ... 5.560e-04
Time for diagonalization                   ...    0.002 sec
Threshold for overlap eigenvalues          ... 1.000e-08
Number of eigenvalues below threshold      ... 0
Time for construction of square roots      ...    0.001 sec
Total time needed                          ...    0.002 sec

--------------------------------
INITIAL GUESS: MINIMAL BASIS EHT
--------------------------------
The minimal basis has 16 functions
EHT matrix was diagonalized
Basis set overlap was calculated now projecting the orbitals
Using GuessMode=FMatrix for the initial guess
C*T matrix was formed
Effective Fockian was calculated
Effective Fockian was diagonalized
Initial density was built
                      ------------------
                      INITIAL GUESS DONE
                      ------------------
-------------------
DFT GRID GENERATION
-------------------

General Integration Accuracy     IntAcc      ...  4.340
Radial Grid Type                 RadialGrid  ... Gauss-Chebyshev
Angular Grid (max. acc.)         AngularGrid ... Lebedev-194
Angular grid pruning method      GridPruning ... 3 (G Style)
Weight generation scheme         WeightScheme... Becke
Basis function cutoff            BFCut       ...    1.0000e-11
Integration weight cutoff        WCut        ...    1.0000e-14
Grids for H and He will be reduced by one unit

# of grid points (after initial pruning)     ...  15728 (   0.0 sec)
# of grid points (after weights+screening)   ...  15087 (   0.0 sec)
nearest neighbour list constructed           ...    0.0 sec
Grid point re-assignment to atoms done       ...    0.0 sec
Grid point division into batches done        ...    0.0 sec
Reduced shell lists constructed in    0.0 sec

Total number of grid points                  ...    15087
Total number of batches                      ...      239
Average number of points per batch           ...       63
Average number of grid points per atom       ...     1886
Average number of shells per batch           ...    30.31 (84.18%)
Average number of basis functions per batch  ...    48.31 (86.26%)
Average number of large shells per batch     ...    27.21 (89.80%)
Average number of large basis fcns per batch ...    44.11 (91.31%)
Maximum spatial batch extension              ...  18.31, 21.21, 21.21 au
Average spatial batch extension              ...   1.67,  1.70,  1.66 au

Time for grid setup =    0.055 sec

--------------
SCF ITERATIONS
--------------
ITER       Energy         Delta-E        Max-DP      RMS-DP      [F,P]     Damp
               ***  Starting incremental Fock matrix formation  ***
  0    -79.6069925950   0.000000000000 0.04160096  0.00359898  0.4424221 0.7000
  1    -79.6535641023  -0.046571507230 0.02830581  0.00253959  0.3127552 0.7000
  2    -79.6854404327  -0.031876330433 0.01897899  0.00174851  0.2196755 0.7000
                               ***Turning on DIIS***
  3    -79.7075521337  -0.022111700971 0.01267414  0.00120447  0.1538301 0.7000
  4    -79.7230099570  -0.015457823326 0.00801442  0.00081604  0.1074518 0.7000
  5    -79.7338206956  -0.010810738631 0.01764931  0.00187158  0.0750559 0.0000
                      *** Initiating the SOSCF procedure ***
                           *** Shutting down DIIS ***
                      *** Re-Reading the Fockian *** 
                      *** Removing any level shift *** 
ITER      Energy       Delta-E        Grad      Rot      Max-DP    RMS-DP
  6    -79.75901748  -0.0251967881  0.000225  0.000225  0.000825  0.000051
               *** Restarting incremental Fock matrix formation ***
  7    -79.75901757  -0.0000000833  0.000112  0.000242  0.000240  0.000024
  8    -79.75901725   0.0000003141  0.000179  0.000141  0.000144  0.000014
  9    -79.75901783  -0.0000005726  0.000005  0.000007  0.000008  0.000001
                 **** Energy Check signals convergence ****
              ***Rediagonalizing the Fockian in SOSCF/NRSCF***

               *****************************************************
               *                     SUCCESS                       *
               *           SCF CONVERGED AFTER  10 CYCLES          *
               *****************************************************

Setting up the final grid:

General Integration Accuracy     IntAcc      ...  4.670
Radial Grid Type                 RadialGrid  ... Gauss-Chebyshev
Angular Grid (max. acc.)         AngularGrid ... Lebedev-302
Angular grid pruning method      GridPruning ... 3 (G Style)
Weight generation scheme         WeightScheme... Becke
Basis function cutoff            BFCut       ...    1.0000e-11
Integration weight cutoff        WCut        ...    1.0000e-14
Grids for H and He will be reduced by one unit

# of grid points (after initial pruning)     ...  32788 (   0.0 sec)
# of grid points (after weights+screening)   ...  31226 (   0.0 sec)
nearest neighbour list constructed           ...    0.0 sec
Grid point re-assignment to atoms done       ...    0.0 sec
Grid point division into batches done        ...    0.1 sec
Reduced shell lists constructed in    0.1 sec

Total number of grid points                  ...    31226
Total number of batches                      ...      492
Average number of points per batch           ...       63
Average number of grid points per atom       ...     3903
Average number of shells per batch           ...    29.10 (80.84%)
Average number of basis functions per batch  ...    46.49 (83.02%)
Average number of large shells per batch     ...    26.02 (89.43%)
Average number of large basis fcns per batch ...    42.30 (90.98%)
Maximum spatial batch extension              ...  18.62, 20.09, 17.34 au
Average spatial batch extension              ...   1.35,  1.44,  1.42 au

Final grid set up in    0.2 sec
Final integration                            ... done (   0.1 sec)
Change in XC energy                          ...    -0.000315779
Integrated number of electrons               ...    17.999973199
Previous integrated no of electrons          ...    17.999985618

----------------
TOTAL SCF ENERGY
----------------

Total Energy       :          -79.75933360 Eh           -2170.36181 eV

Components:
Nuclear Repulsion  :           42.39271922 Eh            1153.56454 eV
Electronic Energy  :         -122.15205283 Eh           -3323.92634 eV
One Electron Energy:         -189.63673207 Eh           -5160.27782 eV
Two Electron Energy:           67.48467924 Eh            1836.35148 eV

Virial components:
Potential Energy   :         -159.18709587 Eh           -4331.70110 eV
Kinetic Energy     :           79.42776226 Eh            2161.33929 eV
Virial Ratio       :            2.00417450


DFT components:
N(Alpha)           :        8.999986599323 electrons
N(Beta)            :        8.999986599323 electrons
N(Total)           :       17.999973198646 electrons
E(XC)              :      -13.027376565020 Eh       
DFET-embed. en.    :        0.000000000000 Eh       

---------------
SCF CONVERGENCE
---------------

  Last Energy change         ...   -2.8874e-10  Tolerance :   1.0000e-08
  Last MAX-Density change    ...    2.8021e-06  Tolerance :   1.0000e-07
  Last RMS-Density change    ...    1.9322e-07  Tolerance :   5.0000e-09
  Last Orbital Gradient      ...    2.6198e-06  Tolerance :   1.0000e-05
  Last Orbital Rotation      ...    2.4597e-06  Tolerance :   1.0000e-05

             **** THE GBW FILE WAS UPDATED (ethane-eclipsed.gbw) ****
             **** DENSITY FILE WAS UPDATED (ethane-eclipsed.scfp) ****
             **** ENERGY FILE WAS UPDATED (ethane-eclipsed.en.tmp) ****
             **** THE GBW FILE WAS UPDATED (ethane-eclipsed.gbw) ****
             **** DENSITY FILE WAS UPDATED (ethane-eclipsed.scfp) ****
----------------
ORBITAL ENERGIES
----------------

  NO   OCC          E(Eh)            E(eV) 
   0   2.0000      -9.875339      -268.7216 
   1   2.0000      -9.875223      -268.7185 
   2   2.0000      -0.685133       -18.6434 
   3   2.0000      -0.554984       -15.1019 
   4   2.0000      -0.388845       -10.5810 
   5   2.0000      -0.388765       -10.5788 
   6   2.0000      -0.326751        -8.8914 
   7   2.0000      -0.297583        -8.0976 
   8   2.0000      -0.297574        -8.0974 
   9   0.0000       0.036951         1.0055 
  10   0.0000       0.070914         1.9297 
  11   0.0000       0.078598         2.1388 
  12   0.0000       0.078669         2.1407 
  13   0.0000       0.163330         4.4444 
  14   0.0000       0.163401         4.4464 
  15   0.0000       0.180105         4.9009 
  16   0.0000       0.188465         5.1284 
  17   0.0000       0.203239         5.5304 
  18   0.0000       0.204550         5.5661 
  19   0.0000       0.269987         7.3467 
  20   0.0000       0.270458         7.3595 
  21   0.0000       0.374554        10.1921 
  22   0.0000       0.400217        10.8904 
  23   0.0000       0.400488        10.8978 
  24   0.0000       0.401069        10.9137 
  25   0.0000       0.435873        11.8607 
  26   0.0000       0.485096        13.2001 
  27   0.0000       0.485323        13.2063 
  28   0.0000       0.493024        13.4159 
  29   0.0000       0.610330        16.6079 
  30   0.0000       1.288066        35.0500 
  31   0.0000       1.288360        35.0581 
  32   0.0000       1.362502        37.0756 
  33   0.0000       1.397881        38.0383 
  34   0.0000       1.489391        40.5284 
  35   0.0000       1.490600        40.5613 
  36   0.0000       1.490803        40.5668 
  37   0.0000       1.527833        41.5744 
  38   0.0000       1.528068        41.5808 
  39   0.0000       1.625583        44.2344 
  40   0.0000       1.753361        47.7114 
  41   0.0000       1.753555        47.7167 
  42   0.0000       1.780594        48.4524 
  43   0.0000       1.780606        48.4528 
  44   0.0000       1.860926        50.6384 
  45   0.0000       2.093463        56.9660 
  46   0.0000       2.093567        56.9689 
  47   0.0000       2.252028        61.2808 
  48   0.0000       2.332737        63.4770 
  49   0.0000       2.557067        69.5813 
  50   0.0000       2.557202        69.5850 
  51   0.0000       2.804713        76.3201 
  52   0.0000       2.804877        76.3246 
  53   0.0000       3.077334        83.7385 
  54   0.0000      21.481295       584.5358 
  55   0.0000      21.769710       592.3839 

                    ********************************
                    * MULLIKEN POPULATION ANALYSIS *
                    ********************************

-----------------------
MULLIKEN ATOMIC CHARGES
-----------------------
   0 C :   -0.488132
   1 C :   -0.488314
   2 H :    0.163337
   3 H :    0.162456
   4 H :    0.162458
   5 H :    0.162538
   6 H :    0.163162
   7 H :    0.162496
Sum of atomic charges:    0.0000000

--------------------------------
MULLIKEN REDUCED ORBITAL CHARGES
--------------------------------
  0 C s       :     3.239854  s :     3.239854
      pz      :     1.120674  p :     3.211340
      px      :     0.971722
      py      :     1.118945
      dz2     :     0.006800  d :     0.036938
      dxz     :     0.008502
      dyz     :     0.005656
      dx2y2   :     0.008543
      dxy     :     0.007438
  1 C s       :     3.239977  s :     3.239977
      pz      :     1.120704  p :     3.211384
      px      :     0.971965
      py      :     1.118716
      dz2     :     0.006793  d :     0.036953
      dxz     :     0.007402
      dyz     :     0.006766
      dx2y2   :     0.007476
      dxy     :     0.008515
  2 H s       :     0.836663  s :     0.836663
  3 H s       :     0.837544  s :     0.837544
  4 H s       :     0.837542  s :     0.837542
  5 H s       :     0.837462  s :     0.837462
  6 H s       :     0.836838  s :     0.836838
  7 H s       :     0.837504  s :     0.837504


                     *******************************
                     * LOEWDIN POPULATION ANALYSIS *
                     *******************************

----------------------
LOEWDIN ATOMIC CHARGES
----------------------
   0 C :   -0.449923
   1 C :   -0.450046
   2 H :    0.150002
   3 H :    0.149930
   4 H :    0.149933
   5 H :    0.149996
   6 H :    0.150089
   7 H :    0.150019

-------------------------------
LOEWDIN REDUCED ORBITAL CHARGES
-------------------------------
  0 C s       :     2.986516  s :     2.986516
      pz      :     1.155684  p :     3.402349
      px      :     1.091743
      py      :     1.154923
      dz2     :     0.010918  d :     0.061058
      dxz     :     0.013954
      dyz     :     0.008155
      dx2y2   :     0.015595
      dxy     :     0.012436
  1 C s       :     2.986529  s :     2.986529
      pz      :     1.155756  p :     3.402459
      px      :     1.091721
      py      :     1.154982
      dz2     :     0.010915  d :     0.061057
      dxz     :     0.012279
      dyz     :     0.009832
      dx2y2   :     0.013964
      dxy     :     0.014068
  2 H s       :     0.849998  s :     0.849998
  3 H s       :     0.850070  s :     0.850070
  4 H s       :     0.850067  s :     0.850067
  5 H s       :     0.850004  s :     0.850004
  6 H s       :     0.849911  s :     0.849911
  7 H s       :     0.849981  s :     0.849981


                      *****************************
                      * MAYER POPULATION ANALYSIS *
                      *****************************

  NA   - Mulliken gross atomic population
  ZA   - Total nuclear charge
  QA   - Mulliken gross atomic charge
  VA   - Mayer's total valence
  BVA  - Mayer's bonded valence
  FA   - Mayer's free valence

  ATOM       NA         ZA         QA         VA         BVA        FA
  0 C      6.4881     6.0000    -0.4881     3.7806     3.7806     0.0000
  1 C      6.4883     6.0000    -0.4883     3.7798     3.7798     0.0000
  2 H      0.8367     1.0000     0.1633     0.9481     0.9481     0.0000
  3 H      0.8375     1.0000     0.1625     0.9484     0.9484     0.0000
  4 H      0.8375     1.0000     0.1625     0.9487     0.9487    -0.0000
  5 H      0.8375     1.0000     0.1625     0.9484     0.9484     0.0000
  6 H      0.8368     1.0000     0.1632     0.9483     0.9483     0.0000
  7 H      0.8375     1.0000     0.1625     0.9486     0.9486    -0.0000

  Mayer bond orders larger than 0.100000
B(  0-C ,  1-C ) :   0.9143 B(  0-C ,  2-H ) :   0.9734 B(  0-C ,  3-H ) :   0.9733 
B(  0-C ,  4-H ) :   0.9737 B(  1-C ,  5-H ) :   0.9736 B(  1-C ,  6-H ) :   0.9732 
B(  1-C ,  7-H ) :   0.9731 

-------
TIMINGS
-------

Total SCF time: 0 days 0 hours 0 min 1 sec 

Total time                  ....       1.686 sec
Sum of individual times     ....       1.607 sec  ( 95.3%)

Fock matrix formation       ....       1.366 sec  ( 81.0%)
  Split-RI-J                ....       0.739 sec  ( 54.1% of F)
  XC integration            ....       0.621 sec  ( 45.4% of F)
    Basis function eval.    ....       0.160 sec  ( 25.8% of XC)
    Density eval.           ....       0.109 sec  ( 17.5% of XC)
    XC-Functional eval.     ....       0.227 sec  ( 36.6% of XC)
    XC-Potential eval.      ....       0.085 sec  ( 13.7% of XC)
Diagonalization             ....       0.004 sec  (  0.2%)
Density matrix formation    ....       0.001 sec  (  0.0%)
Population analysis         ....       0.001 sec  (  0.1%)
Initial guess               ....       0.003 sec  (  0.2%)
Orbital Transformation      ....       0.000 sec  (  0.0%)
Orbital Orthonormalization  ....       0.000 sec  (  0.0%)
DIIS solution               ....       0.001 sec  (  0.1%)
SOSCF solution              ....       0.023 sec  (  1.4%)
Grid generation             ....       0.208 sec  ( 12.3%)


-------------------------------------------------------------------------------
                          DFT DISPERSION CORRECTION                            
                                                                               
                              DFTD3 V3.1  Rev 1                                
                          USING Becke-Johnson damping                          
-------------------------------------------------------------------------------
The B97-3c composite method is recognized
Using three-body term ABC
Active option DFTDOPT                   ...         4   

molecular C6(AA) [au] = 363.949534 


            DFT-D V3
 parameters
 s6 scaling factor         :     1.0000 
 a1 scaling factor         :     0.3700 
 s8 scaling factor         :     1.5000 
 a2 scaling factor         :     4.1000 
 Damping factor alpha9(ATM):    16.0000 
 ad hoc parameters k1-k3   :    16.0000     1.3333    -4.0000 

 Edisp/kcal,au: -4.808422206108  -0.007662707723 
 E6   /kcal   :  -2.623067182 
 E8   /kcal   :  -2.185970555 
 E6(ABC)      :   0.000615531 
 % E8         :  45.461285662 
 % E6(ABC)    :  -0.012801106 

-------------------------   ----------------
Dispersion correction           -0.007662708
-------------------------   ----------------

------------------   -----------------
SRB correction            -0.016664138
------------------   -----------------

-------------------------   --------------------
FINAL SINGLE POINT ENERGY       -79.783660450248
-------------------------   --------------------



           ************************************************************
           *        Program running with 2 parallel MPI-processes     *
           *              working on a common directory               *
           ************************************************************
------------------------------------------------------------------------------
                         ORCA SCF GRADIENT CALCULATION
------------------------------------------------------------------------------

Gradient of the Kohn-Sham DFT energy:
Kohn-Sham wavefunction type      ... RKS
Hartree-Fock exchange scaling    ...    0.000
Number of operators              ...    1
Number of atoms                  ...    8
Basis set dimensions             ...   56
Integral neglect threshold       ... 2.5e-11
Integral primitive cutoff        ... 2.5e-12

Nuclear repulsion gradient       ... done
One Electron Gradient            ... done
Pre-screening matrix             ... done
RI-J gradient                    ... done
Exchange-correlation gradient    ... done
Dispersion correction            ... done
SRB correction                   ... done

------------------
CARTESIAN GRADIENT
------------------

   1   C   :    0.005616905    0.000609435    0.000001042
   2   C   :   -0.005599625   -0.000621788   -0.000024134
   3   H   :    0.001547025   -0.001234259   -0.000526441
   4   H   :    0.001251582    0.001319723   -0.000964213
   5   H   :    0.001363388    0.000408063    0.001466422
   6   H   :   -0.001533949    0.000985664   -0.000924181
   7   H   :   -0.001229849   -0.001544966   -0.000517136
   8   H   :   -0.001415477    0.000078128    0.001488641

Difference to translation invariance:
           :    0.0000000000   -0.0000000000   -0.0000000000

Norm of the cartesian gradient     ...    0.0094256393
RMS gradient                       ...    0.0019240006
MAX gradient                       ...    0.0056169050

-------
TIMINGS
-------

Total SCF gradient time            ...        0.579 sec

One electron gradient       ....       0.006 sec  (  1.1%)
Prescreening matrices       ....       0.006 sec  (  1.1%)
RI-J Coulomb gradient       ....       0.075 sec  ( 13.0%)
XC gradient                 ....       0.370 sec  ( 63.9%)
------------------------------------------------------------------------------
                         ORCA GEOMETRY RELAXATION STEP
------------------------------------------------------------------------------

Reading the OPT-File                    .... done
Getting information on internals        .... done
Copying old internal coords+grads       .... done
Making the new internal coordinates     .... (new redundants).... done
Validating the new internal coordinates .... (new redundants).... done
Calculating the B-matrix                .... done
Calculating the G,G- and P matrices     .... done
Transforming gradient to internals      .... done
Projecting the internal gradient        .... done
Number of atoms                         ....   8
Number of internal coordinates          ....  28
Current Energy                          ....   -79.783660450 Eh
Current gradient norm                   ....     0.009425639 Eh/bohr
Maximum allowed component of the step   ....  0.300
Current trust radius                    ....  0.300
Evaluating the initial hessian          ....  (Almloef) done
Projecting the Hessian                  .... done
Forming the augmented Hessian           .... done
Diagonalizing the augmented Hessian     .... done
Last element of RFO vector              ....  0.999450073
Lowest eigenvalues of augmented Hessian:
 -0.000392918  0.012070276  0.104731445  0.104731544  0.104756874
Length of the computed step             ....  0.033177732
The final length of the internal step   ....  0.033177732
Converting the step to cartesian space:
 Initial RMS(Int)=    0.0062700019
Transforming coordinates:
 Iter   0:  RMS(Cart)=    0.0124017834 RMS(Int)=    0.0062768469
 Iter   1:  RMS(Cart)=    0.0000290667 RMS(Int)=    0.0000222737
 Iter   2:  RMS(Cart)=    0.0000001469 RMS(Int)=    0.0000001309
 Iter   3:  RMS(Cart)=    0.0000000005 RMS(Int)=    0.0000000004
done
Storing new coordinates                 .... done

                                .--------------------.
          ----------------------|Geometry convergence|-------------------------
          Item                value                   Tolerance       Converged
          ---------------------------------------------------------------------
          RMS gradient        0.0022523880            0.0000300000      NO
          MAX gradient        0.0098408969            0.0001000000      NO
          RMS step            0.0062700019            0.0006000000      NO
          MAX step            0.0252315874            0.0010000000      NO
          ........................................................
          Max(Bonds)      0.0134      Max(Angles)    0.36
          Max(Dihed)        0.02      Max(Improp)    0.00
          ---------------------------------------------------------------------

The optimization has not yet converged - more geometry cycles are needed


    ---------------------------------------------------------------------------
                         Redundant Internal Coordinates
                            (Angstroem and degrees)

        Definition                    Value    dE/dq     Step     New-Value
    ----------------------------------------------------------------------------
     1. B(C   1,C   0)                1.5185 -0.009841  0.0134    1.5319   
     2. B(H   2,C   0)                1.0899  0.000877 -0.0013    1.0886   
     3. B(H   3,C   0)                1.0898  0.000902 -0.0013    1.0885   
     4. B(H   4,C   0)                1.0898  0.000875 -0.0013    1.0885   
     5. B(H   5,C   1)                1.0898  0.000857 -0.0013    1.0885   
     6. B(H   6,C   1)                1.0898  0.000878 -0.0013    1.0885   
     7. B(H   7,C   1)                1.0899  0.000888 -0.0013    1.0886   
     8. A(H   2,C   0,H   4)          107.39  0.001903   -0.35    107.04   
     9. A(C   1,C   0,H   4)          111.47 -0.001781    0.33    111.80   
    10. A(C   1,C   0,H   2)          111.48 -0.001772    0.33    111.81   
    11. A(H   3,C   0,H   4)          107.40  0.001896   -0.35    107.05   
    12. A(H   2,C   0,H   3)          107.39  0.001899   -0.35    107.04   
    13. A(C   1,C   0,H   3)          111.48 -0.001768    0.33    111.81   
    14. A(C   0,C   1,H   5)          111.47 -0.001791    0.33    111.80   
    15. A(H   6,C   1,H   7)          107.39  0.001892   -0.35    107.04   
    16. A(H   5,C   1,H   7)          107.39  0.001904   -0.35    107.04   
    17. A(C   0,C   1,H   7)          111.48 -0.001772    0.33    111.81   
    18. A(H   5,C   1,H   6)          107.40  0.001908   -0.36    107.04   
    19. A(C   0,C   1,H   6)          111.48 -0.001763    0.33    111.81   
    20. D(H   5,C   1,C   0,H   3)      0.00  0.000003   -0.02     -0.01   
    21. D(H   5,C   1,C   0,H   4)   -120.00  0.000008   -0.02   -120.02   
    22. D(H   6,C   1,C   0,H   2)      0.00  0.000002   -0.01     -0.01   
    23. D(H   6,C   1,C   0,H   3)   -120.00 -0.000002   -0.01   -120.01   
    24. D(H   6,C   1,C   0,H   4)    120.00  0.000003   -0.01    119.98   
    25. D(H   7,C   1,C   0,H   2)   -120.00  0.000003   -0.02   -120.02   
    26. D(H   7,C   1,C   0,H   3)    120.00 -0.000001   -0.01    119.98   
    27. D(H   7,C   1,C   0,H   4)     -0.01  0.000004   -0.02     -0.02   
    28. D(H   5,C   1,C   0,H   2)    120.01  0.000008   -0.02    119.99   
    ----------------------------------------------------------------------------

         *************************************************************
         *                GEOMETRY OPTIMIZATION CYCLE   2            *
         *************************************************************
---------------------------------
CARTESIAN COORDINATES (ANGSTROEM)
---------------------------------
  C     -7.640228    2.519960   -0.000035
  C     -6.117781    2.689859    0.000057
  H     -7.937444    1.537337   -0.362106
  H     -8.129183    3.255549   -0.636144
  H     -8.059528    2.632271    0.998162
  H     -5.803096    3.515089   -0.636222
  H     -5.611214    1.796911   -0.361766
  H     -5.733519    2.892242    0.998221

----------------------------
CARTESIAN COORDINATES (A.U.)
----------------------------
  NO LB      ZA    FRAG     MASS         X           Y           Z
   0 C     6.0000    0    12.011  -14.437938    4.762034   -0.000066
   1 C     6.0000    0    12.011  -11.560930    5.083097    0.000109
   2 H     1.0000    0     1.008  -14.999596    2.905145   -0.684281
   3 H     1.0000    0     1.008  -15.361930    6.152097   -1.202138
   4 H     1.0000    0     1.008  -15.230302    4.974272    1.886252
   5 H     1.0000    0     1.008  -10.966262    6.642555   -1.202285
   6 H     1.0000    0     1.008  -10.603659    3.395671   -0.683639
   7 H     1.0000    0     1.008  -10.834781    5.465545    1.886364

--------------------------------
INTERNAL COORDINATES (ANGSTROEM)
--------------------------------
 C      0   0   0     0.000000000000     0.00000000     0.00000000
 C      1   0   0     1.531897505370     0.00000000     0.00000000
 H      1   2   0     1.088568372422   111.80714237     0.00000000
 H      1   2   3     1.088486935276   111.80940154   239.99896559
 H      1   2   3     1.088496203936   111.79801604   119.99226904
 H      2   1   3     1.088523271651   111.79926202   119.98984621
 H      2   1   3     1.088522480899   111.80807514     0.00000000
 H      2   1   3     1.088552376599   111.80816446   239.98490969

---------------------------
INTERNAL COORDINATES (A.U.)
---------------------------
 C      0   0   0     0.000000000000     0.00000000     0.00000000
 C      1   0   0     2.894866750386     0.00000000     0.00000000
 H      1   2   0     2.057096101925   111.80714237     0.00000000
 H      1   2   3     2.056942208024   111.80940154   239.99896559
 H      1   2   3     2.056959723251   111.79801604   119.99226904
 H      2   1   3     2.057010873821   111.79926202   119.98984621
 H      2   1   3     2.057009379515   111.80807514     0.00000000
 H      2   1   3     2.057065874202   111.80816446   239.98490969



           ************************************************************
           *        Program running with 2 parallel MPI-processes     *
           *              working on a common directory               *
           ************************************************************
 One Electron integrals                  ... done
 Pre-screening matrix                    ... done


           ************************************************************
           *        Program running with 2 parallel MPI-processes     *
           *              working on a common directory               *
           ************************************************************

Diagonalization of the overlap matrix:
Smallest eigenvalue                        ... 5.789e-04
Time for diagonalization                   ...    0.002 sec
Threshold for overlap eigenvalues          ... 1.000e-08
Number of eigenvalues below threshold      ... 0
Time for construction of square roots      ...    0.001 sec
Total time needed                          ...    0.002 sec

-------------------
DFT GRID GENERATION
-------------------

General Integration Accuracy     IntAcc      ...  4.340
Radial Grid Type                 RadialGrid  ... Gauss-Chebyshev
Angular Grid (max. acc.)         AngularGrid ... Lebedev-194
Angular grid pruning method      GridPruning ... 3 (G Style)
Weight generation scheme         WeightScheme... Becke
Basis function cutoff            BFCut       ...    1.0000e-11
Integration weight cutoff        WCut        ...    1.0000e-14
Grids for H and He will be reduced by one unit

# of grid points (after initial pruning)     ...  15728 (   0.0 sec)
# of grid points (after weights+screening)   ...  15087 (   0.0 sec)
nearest neighbour list constructed           ...    0.0 sec
Grid point re-assignment to atoms done       ...    0.0 sec
Grid point division into batches done        ...    0.0 sec
Reduced shell lists constructed in    0.0 sec

Total number of grid points                  ...    15087
Total number of batches                      ...      239
Average number of points per batch           ...       63
Average number of grid points per atom       ...     1886
Average number of shells per batch           ...    30.29 (84.14%)
Average number of basis functions per batch  ...    48.29 (86.23%)
Average number of large shells per batch     ...    27.16 (89.66%)
Average number of large basis fcns per batch ...    44.00 (91.12%)
Maximum spatial batch extension              ...  18.34, 21.21, 21.21 au
Average spatial batch extension              ...   1.66,  1.70,  1.66 au

Time for grid setup =    0.051 sec

--------------
SCF ITERATIONS
--------------
ITER       Energy         Delta-E        Max-DP      RMS-DP      [F,P]     Damp
               ***  Starting incremental Fock matrix formation  ***
                      *** Initiating the SOSCF procedure ***
                      *** Re-Reading the Fockian *** 
                      *** Removing any level shift *** 
ITER      Energy       Delta-E        Grad      Rot      Max-DP    RMS-DP
  0    -79.75927577 -79.7592757740  0.002090  0.002090  0.001598  0.000137
               *** Restarting incremental Fock matrix formation ***
  1    -79.75931906  -0.0000432901  0.000545  0.000511  0.000503  0.000055
  2    -79.75932076  -0.0000016985  0.000251  0.000256  0.000215  0.000021
  3    -79.75932119  -0.0000004253  0.000125  0.000105  0.000100  0.000011
  4    -79.75932137  -0.0000001832  0.000039  0.000034  0.000045  0.000003
  5    -79.75932138  -0.0000000123  0.000009  0.000012  0.000009  0.000001
                 **** Energy Check signals convergence ****
              ***Rediagonalizing the Fockian in SOSCF/NRSCF***

               *****************************************************
               *                     SUCCESS                       *
               *           SCF CONVERGED AFTER   6 CYCLES          *
               *****************************************************

Setting up the final grid:

General Integration Accuracy     IntAcc      ...  4.670
Radial Grid Type                 RadialGrid  ... Gauss-Chebyshev
Angular Grid (max. acc.)         AngularGrid ... Lebedev-302
Angular grid pruning method      GridPruning ... 3 (G Style)
Weight generation scheme         WeightScheme... Becke
Basis function cutoff            BFCut       ...    1.0000e-11
Integration weight cutoff        WCut        ...    1.0000e-14
Grids for H and He will be reduced by one unit

# of grid points (after initial pruning)     ...  32788 (   0.0 sec)
# of grid points (after weights+screening)   ...  31235 (   0.0 sec)
nearest neighbour list constructed           ...    0.0 sec
Grid point re-assignment to atoms done       ...    0.0 sec
Grid point division into batches done        ...    0.1 sec
Reduced shell lists constructed in    0.1 sec

Total number of grid points                  ...    31235
Total number of batches                      ...      493
Average number of points per batch           ...       63
Average number of grid points per atom       ...     3904
Average number of shells per batch           ...    29.08 (80.78%)
Average number of basis functions per batch  ...    46.48 (83.01%)
Average number of large shells per batch     ...    26.05 (89.59%)
Average number of large basis fcns per batch ...    42.37 (91.14%)
Maximum spatial batch extension              ...  18.61, 20.20, 17.35 au
Average spatial batch extension              ...   1.36,  1.44,  1.42 au

Final grid set up in    0.1 sec
Final integration                            ... done (   0.1 sec)
Change in XC energy                          ...    -0.000314138
Integrated number of electrons               ...    17.999974912
Previous integrated no of electrons          ...    17.999984622
Total Energy       :          -79.75963552 Eh           -2170.37002 eV
  Last Energy change         ...   -8.9503e-10  Tolerance :   1.0000e-08
  Last MAX-Density change    ...    7.3877e-07  Tolerance :   1.0000e-07
             **** THE GBW FILE WAS UPDATED (ethane-eclipsed.gbw) ****
             **** DENSITY FILE WAS UPDATED (ethane-eclipsed.scfp) ****
             **** ENERGY FILE WAS UPDATED (ethane-eclipsed.en.tmp) ****
             **** THE GBW FILE WAS UPDATED (ethane-eclipsed.gbw) ****
             **** DENSITY FILE WAS UPDATED (ethane-eclipsed.scfp) ****
Total SCF time: 0 days 0 hours 0 min 1 sec 


-------------------------------------------------------------------------------
                          DFT DISPERSION CORRECTION                            
                                                                               
                              DFTD3 V3.1  Rev 1                                
                          USING Becke-Johnson damping                          
-------------------------------------------------------------------------------
-------------------------   ----------------
Dispersion correction           -0.007636117
-------------------------   ----------------

------------------   -----------------
SRB correction            -0.016613799
------------------   -----------------

-------------------------   --------------------
FINAL SINGLE POINT ENERGY       -79.783885438694
-------------------------   --------------------



           ************************************************************
           *        Program running with 2 parallel MPI-processes     *
           *              working on a common directory               *
           ************************************************************
------------------------------------------------------------------------------
                         ORCA SCF GRADIENT CALCULATION
------------------------------------------------------------------------------

Gradient of the Kohn-Sham DFT energy:
Kohn-Sham wavefunction type      ... RKS
Hartree-Fock exchange scaling    ...    0.000
Number of operators              ...    1
Number of atoms                  ...    8
Basis set dimensions             ...   56
Integral neglect threshold       ... 2.5e-11
Integral primitive cutoff        ... 2.5e-12

Nuclear repulsion gradient       ... done
One Electron Gradient            ... done
Pre-screening matrix             ... done
RI-J gradient                    ... done
Exchange-correlation gradient    ... done
Dispersion correction            ... done
SRB correction                   ... done

------------------
CARTESIAN GRADIENT
------------------

   1   C   :   -0.000123790   -0.000016719   -0.000006050
   2   C   :    0.000130473    0.000012124   -0.000004978
   3   H   :    0.000428107   -0.000143667   -0.000061772
   4   H   :    0.000391912    0.000195096   -0.000140501
   5   H   :    0.000401112    0.000094122    0.000188927
   6   H   :   -0.000429536    0.000106354   -0.000120041
   7   H   :   -0.000384247   -0.000232754   -0.000059635
   8   H   :   -0.000414031   -0.000014557    0.000204051

Difference to translation invariance:
           :    0.0000000000   -0.0000000000   -0.0000000000

Norm of the cartesian gradient     ...    0.0011341419
RMS gradient                       ...    0.0002315057
MAX gradient                       ...    0.0004295362

-------
TIMINGS
-------

Total SCF gradient time            ...        0.598 sec

One electron gradient       ....       0.012 sec  (  2.0%)
Prescreening matrices       ....       0.010 sec  (  1.7%)
RI-J Coulomb gradient       ....       0.077 sec  ( 12.9%)
XC gradient                 ....       0.368 sec  ( 61.5%)
------------------------------------------------------------------------------
                         ORCA GEOMETRY RELAXATION STEP
------------------------------------------------------------------------------

Reading the OPT-File                    .... done
Getting information on internals        .... done
Copying old internal coords+grads       .... done
Making the new internal coordinates     .... (new redundants).... done
Validating the new internal coordinates .... (new redundants).... done
Calculating the B-matrix                .... done
Calculating the G,G- and P matrices     .... done
Transforming gradient to internals      .... done
Projecting the internal gradient        .... done
Number of atoms                         ....   8
Number of internal coordinates          ....  28
Current Energy                          ....   -79.783885439 Eh
Current gradient norm                   ....     0.001134142 Eh/bohr
Maximum allowed component of the step   ....  0.300
Current trust radius                    ....  0.300
Updating the Hessian (BFGS)             .... done
Forming the augmented Hessian           .... done
Diagonalizing the augmented Hessian     .... done
Last element of RFO vector              ....  0.999974516
Lowest eigenvalues of augmented Hessian:
 -0.000013429  0.012069669  0.104731293  0.104731479  0.104756671
Length of the computed step             ....  0.007139283
The final length of the internal step   ....  0.007139283
Converting the step to cartesian space:
 Initial RMS(Int)=    0.0013491977
Transforming coordinates:
 Iter   0:  RMS(Cart)=    0.0026231392 RMS(Int)=    0.0013500110
 Iter   1:  RMS(Cart)=    0.0000021183 RMS(Int)=    0.0000017102
 Iter   2:  RMS(Cart)=    0.0000000026 RMS(Int)=    0.0000000024
done
Storing new coordinates                 .... done

                                .--------------------.
          ----------------------|Geometry convergence|-------------------------
          Item                value                   Tolerance       Converged
          ---------------------------------------------------------------------
          Energy change      -0.0002249884            0.0000010000      NO
          RMS gradient        0.0003613477            0.0000300000      NO
          MAX gradient        0.0011048593            0.0001000000      NO
          RMS step            0.0013491977            0.0006000000      NO
          MAX step            0.0035005068            0.0010000000      NO
          ........................................................
          Max(Bonds)      0.0019      Max(Angles)    0.11
          Max(Dihed)        0.02      Max(Improp)    0.00
          ---------------------------------------------------------------------

The optimization has not yet converged - more geometry cycles are needed


    ---------------------------------------------------------------------------
                         Redundant Internal Coordinates
                            (Angstroem and degrees)

        Definition                    Value    dE/dq     Step     New-Value
    ----------------------------------------------------------------------------
     1. B(C   1,C   0)                1.5319 -0.001105  0.0019    1.5337   
     2. B(H   2,C   0)                1.0886  0.000033 -0.0001    1.0885   
     3. B(H   3,C   0)                1.0885  0.000036 -0.0001    1.0884   
     4. B(H   4,C   0)                1.0885  0.000031 -0.0001    1.0884   
     5. B(H   5,C   1)                1.0885  0.000029 -0.0001    1.0885   
     6. B(H   6,C   1)                1.0885  0.000032 -0.0001    1.0885   
     7. B(H   7,C   1)                1.0886  0.000036 -0.0001    1.0885   
     8. A(H   2,C   0,H   4)          107.04  0.000467   -0.10    106.93   
     9. A(C   1,C   0,H   4)          111.80 -0.000435    0.10    111.90   
    10. A(C   1,C   0,H   2)          111.81 -0.000428    0.10    111.90   
    11. A(H   3,C   0,H   4)          107.05  0.000466   -0.10    106.94   
    12. A(H   2,C   0,H   3)          107.04  0.000466   -0.10    106.93   
    13. A(C   1,C   0,H   3)          111.81 -0.000430    0.10    111.91   
    14. A(C   0,C   1,H   5)          111.80 -0.000441    0.10    111.90   
    15. A(H   6,C   1,H   7)          107.04  0.000463   -0.10    106.94   
    16. A(H   5,C   1,H   7)          107.04  0.000470   -0.10    106.93   
    17. A(C   0,C   1,H   7)          111.81 -0.000431    0.10    111.91   
    18. A(H   5,C   1,H   6)          107.04  0.000471   -0.11    106.94   
    19. A(C   0,C   1,H   6)          111.81 -0.000426    0.10    111.90   
    20. D(H   5,C   1,C   0,H   3)     -0.01  0.000004   -0.02     -0.03   
    21. D(H   5,C   1,C   0,H   4)   -120.02  0.000007   -0.02   -120.04   
    22. D(H   6,C   1,C   0,H   2)     -0.01  0.000003   -0.02     -0.03   
    23. D(H   6,C   1,C   0,H   3)   -120.01  0.000001   -0.02   -120.03   
    24. D(H   6,C   1,C   0,H   4)    119.98  0.000004   -0.02    119.96   
    25. D(H   7,C   1,C   0,H   2)   -120.02  0.000004   -0.02   -120.04   
    26. D(H   7,C   1,C   0,H   3)    119.98  0.000001   -0.02    119.96   
    27. D(H   7,C   1,C   0,H   4)     -0.02  0.000005   -0.02     -0.04   
    28. D(H   5,C   1,C   0,H   2)    119.99  0.000006   -0.02    119.97   
    ----------------------------------------------------------------------------

         *************************************************************
         *                GEOMETRY OPTIMIZATION CYCLE   3            *
         *************************************************************
---------------------------------
CARTESIAN COORDINATES (ANGSTROEM)
---------------------------------
  C     -7.641152    2.519863   -0.000026
  C     -6.116864    2.689971    0.000063
  H     -7.940105    1.537808   -0.362015
  H     -8.131724    3.254793   -0.635531
  H     -8.062108    2.631668    0.997464
  H     -5.800394    3.514682   -0.635906
  H     -5.608717    1.797827   -0.361335
  H     -5.730930    2.892607    0.997454

----------------------------
CARTESIAN COORDINATES (A.U.)
----------------------------
  NO LB      ZA    FRAG     MASS         X           Y           Z
   0 C     6.0000    0    12.011  -14.439684    4.761850   -0.000049
   1 C     6.0000    0    12.011  -11.559198    5.083308    0.000119
   2 H     1.0000    0     1.008  -15.004624    2.906036   -0.684109
   3 H     1.0000    0     1.008  -15.366731    6.150668   -1.200980
   4 H     1.0000    0     1.008  -15.235176    4.973131    1.884933
   5 H     1.0000    0     1.008  -10.961156    6.641786   -1.201689
   6 H     1.0000    0     1.008  -10.598939    3.397401   -0.682824
   7 H     1.0000    0     1.008  -10.829888    5.466235    1.884914

--------------------------------
INTERNAL COORDINATES (ANGSTROEM)
--------------------------------
 C      0   0   0     0.000000000000     0.00000000     0.00000000
 C      1   0   0     1.533749893801     0.00000000     0.00000000
 H      1   2   0     1.088503759556   111.90290707     0.00000000
 H      1   2   3     1.088417070078   111.90595464   240.00046911
 H      1   2   3     1.088434824308   111.89594122   119.99183079
 H      2   1   3     1.088466034080   111.89800734   119.96690197
 H      2   1   3     1.088458690238   111.90350587   359.96793568
 H      2   1   3     1.088482827685   111.90537339   239.96327786

---------------------------
INTERNAL COORDINATES (A.U.)
---------------------------
 C      0   0   0     0.000000000000     0.00000000     0.00000000
 C      1   0   0     2.898367257215     0.00000000     0.00000000
 H      1   2   0     2.056974001304   111.90290707     0.00000000
 H      1   2   3     2.056810181933   111.90595464   240.00046911
 H      1   2   3     2.056843732566   111.89594122   119.99183079
 H      2   1   3     2.056902710487   111.89800734   119.96690197
 H      2   1   3     2.056888832636   111.90350587   359.96793568
 H      2   1   3     2.056934445801   111.90537339   239.96327786



           ************************************************************
           *        Program running with 2 parallel MPI-processes     *
           *              working on a common directory               *
           ************************************************************
 One Electron integrals                  ... done
 Pre-screening matrix                    ... done


           ************************************************************
           *        Program running with 2 parallel MPI-processes     *
           *              working on a common directory               *
           ************************************************************

Diagonalization of the overlap matrix:
Smallest eigenvalue                        ... 5.833e-04
Time for diagonalization                   ...    0.002 sec
Threshold for overlap eigenvalues          ... 1.000e-08
Number of eigenvalues below threshold      ... 0
Time for construction of square roots      ...    0.001 sec
Total time needed                          ...    0.002 sec

-------------------
DFT GRID GENERATION
-------------------

General Integration Accuracy     IntAcc      ...  4.340
Radial Grid Type                 RadialGrid  ... Gauss-Chebyshev
Angular Grid (max. acc.)         AngularGrid ... Lebedev-194
Angular grid pruning method      GridPruning ... 3 (G Style)
Weight generation scheme         WeightScheme... Becke
Basis function cutoff            BFCut       ...    1.0000e-11
Integration weight cutoff        WCut        ...    1.0000e-14
Grids for H and He will be reduced by one unit

# of grid points (after initial pruning)     ...  15728 (   0.0 sec)
# of grid points (after weights+screening)   ...  15089 (   0.0 sec)
nearest neighbour list constructed           ...    0.0 sec
Grid point re-assignment to atoms done       ...    0.0 sec
Grid point division into batches done        ...    0.0 sec
Reduced shell lists constructed in    0.0 sec

Total number of grid points                  ...    15089
Total number of batches                      ...      239
Average number of points per batch           ...       63
Average number of grid points per atom       ...     1886
Average number of shells per batch           ...    30.27 (84.09%)
Average number of basis functions per batch  ...    48.27 (86.20%)
Average number of large shells per batch     ...    27.15 (89.68%)
Average number of large basis fcns per batch ...    43.99 (91.13%)
Maximum spatial batch extension              ...  18.34, 21.21, 21.21 au
Average spatial batch extension              ...   1.67,  1.70,  1.66 au

Time for grid setup =    0.053 sec

--------------
SCF ITERATIONS
--------------
ITER       Energy         Delta-E        Max-DP      RMS-DP      [F,P]     Damp
               ***  Starting incremental Fock matrix formation  ***
                      *** Initiating the SOSCF procedure ***
                      *** Re-Reading the Fockian *** 
                      *** Removing any level shift *** 
ITER      Energy       Delta-E        Grad      Rot      Max-DP    RMS-DP
  0    -79.75934649 -79.7593464895  0.000503  0.000503  0.000285  0.000025
               *** Restarting incremental Fock matrix formation ***
  1    -79.75934785  -0.0000013555  0.000093  0.000128  0.000110  0.000012
  2    -79.75934787  -0.0000000243  0.000076  0.000052  0.000051  0.000005
  3    -79.75934793  -0.0000000593  0.000021  0.000020  0.000021  0.000002
  4    -79.75934793  -0.0000000028  0.000010  0.000006  0.000009  0.000001
                 **** Energy Check signals convergence ****
              ***Rediagonalizing the Fockian in SOSCF/NRSCF***

               *****************************************************
               *                     SUCCESS                       *
               *           SCF CONVERGED AFTER   5 CYCLES          *
               *****************************************************

Setting up the final grid:

General Integration Accuracy     IntAcc      ...  4.670
Radial Grid Type                 RadialGrid  ... Gauss-Chebyshev
Angular Grid (max. acc.)         AngularGrid ... Lebedev-302
Angular grid pruning method      GridPruning ... 3 (G Style)
Weight generation scheme         WeightScheme... Becke
Basis function cutoff            BFCut       ...    1.0000e-11
Integration weight cutoff        WCut        ...    1.0000e-14
Grids for H and He will be reduced by one unit

# of grid points (after initial pruning)     ...  32788 (   0.0 sec)
# of grid points (after weights+screening)   ...  31235 (   0.0 sec)
nearest neighbour list constructed           ...    0.0 sec
Grid point re-assignment to atoms done       ...    0.0 sec
Grid point division into batches done        ...    0.1 sec
Reduced shell lists constructed in    0.1 sec

Total number of grid points                  ...    31235
Total number of batches                      ...      492
Average number of points per batch           ...       63
Average number of grid points per atom       ...     3904
Average number of shells per batch           ...    29.10 (80.84%)
Average number of basis functions per batch  ...    46.53 (83.08%)
Average number of large shells per batch     ...    26.01 (89.39%)
Average number of large basis fcns per batch ...    42.30 (90.92%)
Maximum spatial batch extension              ...  18.61, 20.19, 17.35 au
Average spatial batch extension              ...   1.37,  1.46,  1.42 au

Final grid set up in    0.2 sec
Final integration                            ... done (   0.1 sec)
Change in XC energy                          ...    -0.000313753
Integrated number of electrons               ...    17.999975241
Previous integrated no of electrons          ...    17.999984340
Total Energy       :          -79.75966169 Eh           -2170.37073 eV
  Last Energy change         ...   -6.9011e-10  Tolerance :   1.0000e-08
  Last MAX-Density change    ...    5.7950e-07  Tolerance :   1.0000e-07
             **** THE GBW FILE WAS UPDATED (ethane-eclipsed.gbw) ****
             **** DENSITY FILE WAS UPDATED (ethane-eclipsed.scfp) ****
             **** ENERGY FILE WAS UPDATED (ethane-eclipsed.en.tmp) ****
             **** THE GBW FILE WAS UPDATED (ethane-eclipsed.gbw) ****
             **** DENSITY FILE WAS UPDATED (ethane-eclipsed.scfp) ****
Total SCF time: 0 days 0 hours 0 min 1 sec 


-------------------------------------------------------------------------------
                          DFT DISPERSION CORRECTION                            
                                                                               
                              DFTD3 V3.1  Rev 1                                
                          USING Becke-Johnson damping                          
-------------------------------------------------------------------------------
-------------------------   ----------------
Dispersion correction           -0.007630576
-------------------------   ----------------

------------------   -----------------
SRB correction            -0.016600680
------------------   -----------------

-------------------------   --------------------
FINAL SINGLE POINT ENERGY       -79.783892940879
-------------------------   --------------------



           ************************************************************
           *        Program running with 2 parallel MPI-processes     *
           *              working on a common directory               *
           ************************************************************
------------------------------------------------------------------------------
                         ORCA SCF GRADIENT CALCULATION
------------------------------------------------------------------------------

Gradient of the Kohn-Sham DFT energy:
Kohn-Sham wavefunction type      ... RKS
Hartree-Fock exchange scaling    ...    0.000
Number of operators              ...    1
Number of atoms                  ...    8
Basis set dimensions             ...   56
Integral neglect threshold       ... 2.5e-11
Integral primitive cutoff        ... 2.5e-12

Nuclear repulsion gradient       ... done
One Electron Gradient            ... done
Pre-screening matrix             ... done
RI-J gradient                    ... done
Exchange-correlation gradient    ... done
Dispersion correction            ... done
SRB correction                   ... done

------------------
CARTESIAN GRADIENT
------------------

   1   C   :   -0.000672114   -0.000075747   -0.000006202
   2   C   :    0.000675793    0.000073586    0.000000929
   3   H   :    0.000134369   -0.000004668    0.000005098
   4   H   :    0.000135140    0.000019393   -0.000025745
   5   H   :    0.000127582    0.000034426    0.000009791
   6   H   :   -0.000134220   -0.000002313   -0.000006684
   7   H   :   -0.000129630   -0.000031619    0.000001738
   8   H   :   -0.000136920   -0.000013058    0.000021075

Difference to translation invariance:
           :    0.0000000000   -0.0000000000   -0.0000000000

Norm of the cartesian gradient     ...    0.0010148013
RMS gradient                       ...    0.0002071455
MAX gradient                       ...    0.0006757931

-------
TIMINGS
-------

Total SCF gradient time            ...        0.593 sec

One electron gradient       ....       0.006 sec  (  1.0%)
Prescreening matrices       ....       0.007 sec  (  1.2%)
RI-J Coulomb gradient       ....       0.078 sec  ( 13.1%)
XC gradient                 ....       0.373 sec  ( 62.9%)
------------------------------------------------------------------------------
                         ORCA GEOMETRY RELAXATION STEP
------------------------------------------------------------------------------

Reading the OPT-File                    .... done
Getting information on internals        .... done
Copying old internal coords+grads       .... done
Making the new internal coordinates     .... (new redundants).... done
Validating the new internal coordinates .... (new redundants).... done
Calculating the B-matrix                .... done
Calculating the G,G- and P matrices     .... done
Transforming gradient to internals      .... done
Projecting the internal gradient        .... done
Number of atoms                         ....   8
Number of internal coordinates          ....  28
Current Energy                          ....   -79.783892941 Eh
Current gradient norm                   ....     0.001014801 Eh/bohr
Maximum allowed component of the step   ....  0.300
Current trust radius                    ....  0.300
Updating the Hessian (BFGS)             .... done
Forming the augmented Hessian           .... done
Diagonalizing the augmented Hessian     .... done
Last element of RFO vector              ....  0.999996510
Lowest eigenvalues of augmented Hessian:
 -0.000001138  0.012037206  0.104728441  0.104731468  0.104754432
Length of the computed step             ....  0.002641815
The final length of the internal step   ....  0.002641815
Converting the step to cartesian space:
 Initial RMS(Int)=    0.0004992561
Transforming coordinates:
 Iter   0:  RMS(Cart)=    0.0005628383 RMS(Int)=    0.0004993751
 Iter   1:  RMS(Cart)=    0.0000002572 RMS(Int)=    0.0000002229
 Iter   2:  RMS(Cart)=    0.0000000001 RMS(Int)=    0.0000000001
done
Storing new coordinates                 .... done

                                .--------------------.
          ----------------------|Geometry convergence|-------------------------
          Item                value                   Tolerance       Converged
          ---------------------------------------------------------------------
          Energy change      -0.0000075022            0.0000010000      NO
          RMS gradient        0.0001003649            0.0000300000      NO
          MAX gradient        0.0002762772            0.0001000000      NO
          RMS step            0.0004992561            0.0006000000      YES
          MAX step            0.0006667800            0.0010000000      YES
          ........................................................
          Max(Bonds)      0.0002      Max(Angles)    0.04
          Max(Dihed)        0.03      Max(Improp)    0.00
          ---------------------------------------------------------------------

The optimization has not yet converged - more geometry cycles are needed


    ---------------------------------------------------------------------------
                         Redundant Internal Coordinates
                            (Angstroem and degrees)

        Definition                    Value    dE/dq     Step     New-Value
    ----------------------------------------------------------------------------
     1. B(C   1,C   0)                1.5337  0.000276 -0.0002    1.5335   
     2. B(H   2,C   0)                1.0885 -0.000035  0.0000    1.0886   
     3. B(H   3,C   0)                1.0884 -0.000035  0.0000    1.0885   
     4. B(H   4,C   0)                1.0884 -0.000034  0.0000    1.0885   
     5. B(H   5,C   1)                1.0885 -0.000035  0.0000    1.0885   
     6. B(H   6,C   1)                1.0885 -0.000035  0.0000    1.0885   
     7. B(H   7,C   1)                1.0885 -0.000034  0.0000    1.0885   
     8. A(H   2,C   0,H   4)          106.93  0.000133   -0.04    106.89   
     9. A(C   1,C   0,H   4)          111.90 -0.000125    0.04    111.93   
    10. A(C   1,C   0,H   2)          111.90 -0.000120    0.03    111.94   
    11. A(H   3,C   0,H   4)          106.94  0.000133   -0.04    106.91   
    12. A(H   2,C   0,H   3)          106.93  0.000133   -0.04    106.89   
[...]
Number of operators                              ...    1
Number of atoms                                  ...    8
Basis set dimensions                             ...   56
Integral neglect threshold                       ... 2.5e-11
Integral primitive cutoff                        ... 2.5e-12

Setting up DFT Hessian calculations              ... 
Electron density on the grid                     ... found on disk
Electron density on the final grid               ... found on disk
Building xc-kernel on the grid                   ... done   (      0.0 sec)
Building xc-kernel on the final grid             ... done   (      0.1 sec)
                                                     done   (      0.1 sec)

Nuclear repulsion Hessian                        ... done   (      0.0 sec)

----------------------------------------------
Forming right-hand sides of CP-SCF equations     ...
----------------------------------------------
One electron integral derivatives                ... done   (      0.1 sec)
Transforming the overlap derivative matrices     ... done   (      0.0 sec)
Making the Q(x) pseudodensities                  ... done   (      0.0 sec)
Adding the E*S(x)*S(y) terms to the Hessian      ... done   (      0.0 sec)
Calculating energy weighted overlap derivatives  ... done   (      0.0 sec)
Two electron integral derivatives (RI)           ... done   (      0.2 sec)
Exchange-correlation integral derivatives        ... done   (      1.7 sec)
tr(F(y)Q(x)) contribution to the Hessian         ... done   (      0.0 sec)
Response fock operator R(S(x)) (RI)              ... done   (      0.2 sec)
XC Response fock operator R(S(x))                ... done   (      0.7 sec)
tr(F(y)S(x)) contribution to the Hessian         ... done   (      0.0 sec)
Transforming and finalizing RHSs                 ... done   (      0.0 sec)

----------------------------------------------
Solving the CP-SCF equations (RI)                ...
----------------------------------------------
     CP-SCF ITERATION   0: 
     CP-SCF ITERATION   1:      0.000324570147
     CP-SCF ITERATION   2:      0.000011798675
     CP-SCF ITERATION   3:      0.000001231592
     CP-SCF ITERATION   4:      0.000000033294
     CP-SCF ITERATION   5:      0.000000003368

                                                 ... done   (      3.9 sec)
Forming perturbed density Hessian contributions  ... done   (      0.0 sec)
Making the perturbed densities                   ... done   (      0.0 sec)
2nd integral derivative contribs (RI)            ... done   (      0.3 sec)
Exchange-correlation Hessian                     ... done   (      2.3 sec)
Dispersion correction in the Hessian             ... done   (      0.6 sec)
SRB correction in the Hessian                    ... done   (      0.0 sec)
Dipol derivatives                                ... done   (      0.1 sec)

Total SCF Hessian time: 0 days 0 hours 0 min 10 sec 

Writing the Hessian file to the disk             ... done


Maximum memory used throughout the entire calculation: 136.3 MB

-----------------------
VIBRATIONAL FREQUENCIES
-----------------------

Scaling factor for frequencies =  1.000000000  (already applied!)

   0:         0.00 cm**-1
   1:         0.00 cm**-1
   2:         0.00 cm**-1
   3:         0.00 cm**-1
   4:         0.00 cm**-1
   5:         0.00 cm**-1
   6:      -298.94 cm**-1 ***imaginary mode***
   7:       902.19 cm**-1
   8:       902.54 cm**-1
   9:       992.11 cm**-1
  10:      1168.85 cm**-1
  11:      1168.98 cm**-1
  12:      1410.01 cm**-1
  13:      1449.71 cm**-1
  14:      1513.01 cm**-1
  15:      1513.11 cm**-1
  16:      1521.54 cm**-1
  17:      1521.60 cm**-1
  18:      3003.48 cm**-1
  19:      3010.82 cm**-1
  20:      3055.51 cm**-1
  21:      3055.84 cm**-1
  22:      3077.75 cm**-1
  23:      3078.05 cm**-1


------------
NORMAL MODES
------------

These modes are the Cartesian displacements weighted by the diagonal matrix
M(i,i)=1/sqrt(m[i]) where m[i] is the mass of the displaced atom
Thus, these vectors are normalized but *not* orthogonal

                  0          1          2          3          4          5    
      0       0.000000   0.000000   0.000000   0.000000   0.000000   0.000000
      1       0.000000   0.000000   0.000000   0.000000   0.000000   0.000000
      2       0.000000   0.000000   0.000000   0.000000   0.000000   0.000000
      3       0.000000   0.000000   0.000000   0.000000   0.000000   0.000000
      4       0.000000   0.000000   0.000000   0.000000   0.000000   0.000000
      5       0.000000   0.000000   0.000000   0.000000   0.000000   0.000000
      6       0.000000   0.000000   0.000000   0.000000   0.000000   0.000000
      7       0.000000   0.000000   0.000000   0.000000   0.000000   0.000000
      8       0.000000   0.000000   0.000000   0.000000   0.000000   0.000000
      9       0.000000   0.000000   0.000000   0.000000   0.000000   0.000000
     10       0.000000   0.000000   0.000000   0.000000   0.000000   0.000000
     11       0.000000   0.000000   0.000000   0.000000   0.000000   0.000000
     12       0.000000   0.000000   0.000000   0.000000   0.000000   0.000000
     13       0.000000   0.000000   0.000000   0.000000   0.000000   0.000000
     14       0.000000   0.000000   0.000000   0.000000   0.000000   0.000000
     15       0.000000   0.000000   0.000000   0.000000   0.000000   0.000000
     16       0.000000   0.000000   0.000000   0.000000   0.000000   0.000000
     17       0.000000   0.000000   0.000000   0.000000   0.000000   0.000000
     18       0.000000   0.000000   0.000000   0.000000   0.000000   0.000000
     19       0.000000   0.000000   0.000000   0.000000   0.000000   0.000000
     20       0.000000   0.000000   0.000000   0.000000   0.000000   0.000000
     21       0.000000   0.000000   0.000000   0.000000   0.000000   0.000000
     22       0.000000   0.000000   0.000000   0.000000   0.000000   0.000000
     23       0.000000   0.000000   0.000000   0.000000   0.000000   0.000000
                  6          7          8          9         10         11    
      0      -0.000067   0.005052  -0.001803  -0.367816  -0.015611   0.004262
      1       0.000023  -0.046100   0.015908  -0.041086   0.138315  -0.039515
      2       0.000034  -0.015742  -0.046501  -0.000038   0.039914   0.139201
      3       0.000060   0.005291  -0.001647   0.367800   0.015512  -0.004350
      4       0.000027  -0.046254   0.015911   0.041201  -0.138232   0.039771
      5       0.000055  -0.016276  -0.046453   0.000174  -0.039853  -0.139112
      6       0.016514  -0.515384  -0.009501  -0.343363   0.499507   0.035040
      7      -0.145831   0.092518  -0.080377  -0.053286  -0.009594   0.093436
      8       0.380853   0.048452   0.220613  -0.006301  -0.000218  -0.247140
      9       0.028635   0.244355  -0.420790  -0.346753  -0.265727   0.409554
     10      -0.255083   0.217145  -0.072514  -0.026206  -0.193383  -0.011929
     11      -0.317857   0.101280   0.179901  -0.009991  -0.146049  -0.149499
     12      -0.045294   0.208704   0.450436  -0.345892  -0.181338  -0.458407
     13       0.400519   0.240127  -0.036639  -0.036426  -0.261730   0.050052
     14      -0.063463   0.040206   0.153482   0.015609   0.011912  -0.071186
     15      -0.028673  -0.284409   0.426601   0.343956  -0.299748   0.398739
     16       0.255754   0.159304   0.022484   0.050253   0.130436   0.101098
     17       0.316597   0.102560   0.179858  -0.010797   0.145928   0.147920
     18      -0.016461   0.483371   0.025282   0.346002   0.483585   0.051041
     19       0.144703   0.203859  -0.076128   0.023380   0.118412  -0.084103
     20      -0.381571   0.048702   0.219788  -0.005643   0.000293   0.247102
     21       0.045361  -0.259880  -0.430921   0.346235  -0.235095  -0.434916
     22      -0.400650   0.187511  -0.135967   0.040908   0.214867  -0.151615
     23       0.064389   0.040326   0.153963   0.015494  -0.012593   0.071751
                 12         13         14         15         16         17    
      0      -0.092133   0.084889  -0.002163   0.000075  -0.005342  -0.000517
      1      -0.010235   0.009486   0.021298   0.000460   0.048431   0.005452
      2      -0.000134   0.000126   0.002318  -0.020933   0.004616  -0.048824
      3      -0.092116  -0.084943   0.002104   0.000157  -0.005117  -0.000408
      4      -0.010126  -0.009320  -0.021621  -0.002150   0.048216   0.004481
      5      -0.000018  -0.000090  -0.000303   0.022102   0.005393  -0.048338
      6       0.382845  -0.383200  -0.284957   0.112062  -0.232976   0.079906
      7      -0.115412   0.114527   0.027318  -0.185977   0.033037  -0.200684
      8      -0.059382   0.058872   0.167950   0.407767   0.174508   0.457540
      9       0.351653  -0.353047   0.225128   0.158368   0.187595   0.140484
     10       0.171210  -0.170690  -0.117840   0.304866  -0.133960   0.312898
     11      -0.105623   0.105276  -0.312923   0.229211  -0.330741   0.224070
     12       0.363396  -0.364092   0.116833  -0.269877   0.109360  -0.213565
     13       0.065975  -0.065624  -0.448324  -0.141515  -0.476250  -0.183662
     14       0.166284  -0.165403   0.100026  -0.100393   0.105755  -0.095939
     15       0.379938   0.380107   0.204416   0.233612  -0.146389  -0.192092
     16      -0.089094  -0.088521   0.154580  -0.264556  -0.181981   0.274139
     17       0.105405   0.104311   0.305299  -0.222586  -0.338120   0.229243
     18       0.348842   0.350734  -0.268877   0.062498   0.220570  -0.043780
     19       0.196956   0.196368  -0.080745   0.208134   0.090838  -0.210159
     20       0.060865   0.061437  -0.185385  -0.426211   0.158251   0.439233
     21       0.368767   0.370134   0.008162  -0.299434  -0.013533   0.240070
     22       0.012982   0.011959   0.468868   0.099186  -0.483299  -0.110887
     23      -0.165738  -0.164922  -0.098979   0.098285   0.111079  -0.096387
                 18         19         20         21         22         23    
      0       0.034886  -0.036907  -0.006281   0.004226   0.005816  -0.004542
      1       0.004259  -0.004557   0.054190  -0.036368  -0.050930   0.039531
      2      -0.000015   0.000028   0.036950   0.053759  -0.039475  -0.052102
      3       0.035024   0.036844   0.006029  -0.004154   0.005785  -0.004384
      4       0.003898   0.004270  -0.053494   0.036846  -0.051640   0.039210
      5      -0.000008   0.000018  -0.036724  -0.054641  -0.039763  -0.051133
      6      -0.099923   0.100079  -0.147839   0.034513   0.144459  -0.043374
      7      -0.372857   0.374338  -0.508117   0.110330   0.495932  -0.139271
      8      -0.138507   0.139074  -0.184245   0.057631   0.178075  -0.070513
      9      -0.170594   0.170583   0.074298  -0.241743  -0.058160   0.249241
     10       0.278532  -0.278971  -0.106631   0.375465   0.080385  -0.386118
     11      -0.238819   0.239184   0.112500  -0.317078  -0.092701   0.326705
     12      -0.145176   0.145343   0.148118   0.157082  -0.155597  -0.151789
     13       0.043549  -0.043720  -0.029250  -0.053628   0.030600   0.054320
     14       0.377525  -0.378578  -0.367388  -0.379388   0.385066   0.364647
     15      -0.106049  -0.105796   0.046664  -0.154912   0.039010  -0.155609
     16      -0.311304  -0.311221   0.113712  -0.423523   0.090710  -0.423849
     17       0.241881   0.241830  -0.107644   0.321964  -0.092969   0.322837
     18      -0.178900  -0.177518  -0.254389   0.060221  -0.253792   0.074572
     19       0.340660   0.338580   0.460386  -0.104185   0.458837  -0.129372
     20       0.136866   0.136039   0.181504  -0.059228   0.179316  -0.071023
     21      -0.132385  -0.131941   0.136158   0.143985   0.145837   0.133315
     22      -0.075782  -0.075593   0.061607   0.089845   0.065717   0.086028
     23      -0.378680  -0.378092   0.362587   0.386604   0.387387   0.357460


-----------
IR SPECTRUM
-----------

 Mode    freq (cm**-1)   T**2         TX         TY         TZ
-------------------------------------------------------------------
   7:       902.19    5.083567  ( -0.236371   2.120566   0.728627)
   8:       902.54    5.020107  (  0.083655  -0.718946   2.120430)
   9:       992.11    0.000022  (  0.002214  -0.003599  -0.002044)
  10:      1168.85    0.000078  ( -0.008154   0.000570  -0.003366)
  11:      1168.98    0.000075  ( -0.001787  -0.000734   0.008421)
  12:      1410.01    3.155813  (  1.766290   0.189809   0.002199)
  13:      1449.71    0.000056  ( -0.002400   0.003884   0.005942)
  14:      1513.01    0.007434  ( -0.009630   0.012023  -0.084831)
  15:      1513.11    0.006089  ( -0.010635   0.065736  -0.040675)
  16:      1521.54   14.027950  (  0.411357  -3.705077  -0.362130)
  17:      1521.60   14.153377  (  0.034760  -0.372863   3.743413)
  18:      3003.48   83.917484  (  9.101540   1.038969  -0.000974)
  19:      3010.82    0.001191  ( -0.015945  -0.030324   0.004123)
  20:      3055.51    0.004468  ( -0.041544   0.046332   0.024403)
  21:      3055.84    0.004890  (  0.010003   0.035182  -0.059596)
  22:      3077.75   76.324038  (  0.793955  -6.876273  -5.330154)
  23:      3078.05   76.389587  ( -0.600393   5.294989  -6.927641)

The first frequency considered to be a vibration is 7
The total number of vibrations considered is 17


--------------------------
THERMOCHEMISTRY AT 298.15K
--------------------------

Temperature         ... 298.15 K
Pressure            ... 1.00 atm
Total Mass          ... 30.07 AMU

Throughout the following assumptions are being made:
  (1) The electronic state is orbitally nondegenerate
  (2) There are no thermally accessible electronically excited states
  (3) Hindered rotations indicated by low frequency modes are not
      treated as such but are treated as vibrations and this may
      cause some error
  (4) All equations used are the standard statistical mechanics
      equations for an ideal gas
  (5) All vibrations are strictly harmonic

freq.     902.19  E(vib)   ...       0.03 
freq.     902.54  E(vib)   ...       0.03 
freq.     992.11  E(vib)   ...       0.02 
freq.    1168.85  E(vib)   ...       0.01 
freq.    1168.98  E(vib)   ...       0.01 
freq.    1410.01  E(vib)   ...       0.00 
freq.    1449.71  E(vib)   ...       0.00 
freq.    1513.01  E(vib)   ...       0.00 
freq.    1513.11  E(vib)   ...       0.00 
freq.    1521.54  E(vib)   ...       0.00 
freq.    1521.60  E(vib)   ...       0.00 
freq.    3003.48  E(vib)   ...       0.00 
freq.    3010.82  E(vib)   ...       0.00 
freq.    3055.51  E(vib)   ...       0.00 
freq.    3055.84  E(vib)   ...       0.00 
freq.    3077.75  E(vib)   ...       0.00 
freq.    3078.05  E(vib)   ...       0.00 

------------
INNER ENERGY
------------

The inner energy is: U= E(el) + E(ZPE) + E(vib) + E(rot) + E(trans)
    E(el)   - is the total energy from the electronic structure calculation
              = E(kin-el) + E(nuc-el) + E(el-el) + E(nuc-nuc)
    E(ZPE)  - the the zero temperature vibrational energy from the frequency calculation
    E(vib)  - the the finite temperature correction to E(ZPE) due to population
              of excited vibrational states
    E(rot)  - is the rotational thermal energy
    E(trans)- is the translational thermal energy

Summary of contributions to the inner energy U:
Electronic energy                ...    -79.78389416 Eh
Zero point energy                ...      0.07368758 Eh      46.24 kcal/mol
Thermal vibrational correction   ...      0.00021450 Eh       0.13 kcal/mol
Thermal rotational correction    ...      0.00141627 Eh       0.89 kcal/mol
Thermal translational correction ...      0.00141627 Eh       0.89 kcal/mol
-----------------------------------------------------------------------
Total thermal energy                    -79.70715954 Eh


Summary of corrections to the electronic energy:
(perhaps to be used in another calculation)
Total thermal correction                  0.00304704 Eh       1.91 kcal/mol
Non-thermal (ZPE) correction              0.07368758 Eh      46.24 kcal/mol
-----------------------------------------------------------------------
Total correction                          0.07673462 Eh      48.15 kcal/mol


--------
ENTHALPY
--------

The enthalpy is H = U + kB*T
                kB is Boltzmann's constant
Total free energy                 ...    -79.70715954 Eh 
Thermal Enthalpy correction       ...      0.00094421 Eh       0.59 kcal/mol
-----------------------------------------------------------------------
Total Enthalpy                    ...    -79.70621533 Eh


Note: Only C1 symmetry has been detected, increase convergence thresholds 
      if your molecule has a higher symmetry. Symmetry factor of 1.0 is   
      used for the rotational entropy correction. 
 

Note: Rotational entropy computed according to Herzberg 
Infrared and Raman Spectra, Chapter V,1, Van Nostrand Reinhold, 1945 
Point Group:  C1, Symmetry Number:   1  
Rotational constants in cm-1:     2.734987     0.660581     0.660577 

Vibrational entropy computed according to the QRRHO of S. Grimme
Chem.Eur.J. 2012 18 9955


-------
ENTROPY
-------

The entropy contributions are T*S = T*(S(el)+S(vib)+S(rot)+S(trans))
     S(el)   - electronic entropy
     S(vib)  - vibrational entropy
     S(rot)  - rotational entropy
     S(trans)- translational entropy
The entropies will be listed as mutliplied by the temperature to get
units of energy

Electronic entropy                ...      0.00000000 Eh      0.00 kcal/mol
Vibrational entropy               ...      0.00025807 Eh      0.16 kcal/mol
Rotational entropy                ...      0.00942732 Eh      5.92 kcal/mol
Translational entropy             ...      0.01716939 Eh     10.77 kcal/mol
-----------------------------------------------------------------------
Final entropy term                ...      0.02685478 Eh     16.85 kcal/mol

In case the symmetry of your molecule has not been determined correctly
or in case you have a reason to use a different symmetry number we print 
out the resulting rotational entropy values for sn=1,12 :
 --------------------------------------------------------
|  sn= 1 | S(rot)=       0.00942732 Eh      5.92 kcal/mol|
|  sn= 2 | S(rot)=       0.00877287 Eh      5.51 kcal/mol|
|  sn= 3 | S(rot)=       0.00839003 Eh      5.26 kcal/mol|
|  sn= 4 | S(rot)=       0.00811841 Eh      5.09 kcal/mol|
|  sn= 5 | S(rot)=       0.00790772 Eh      4.96 kcal/mol|
|  sn= 6 | S(rot)=       0.00773558 Eh      4.85 kcal/mol|
|  sn= 7 | S(rot)=       0.00759003 Eh      4.76 kcal/mol|
|  sn= 8 | S(rot)=       0.00746395 Eh      4.68 kcal/mol|
|  sn= 9 | S(rot)=       0.00735274 Eh      4.61 kcal/mol|
|  sn=10 | S(rot)=       0.00725326 Eh      4.55 kcal/mol|
|  sn=11 | S(rot)=       0.00716327 Eh      4.50 kcal/mol|
|  sn=12 | S(rot)=       0.00708112 Eh      4.44 kcal/mol|
 --------------------------------------------------------


-------------------
GIBBS FREE ENERGY
-------------------

The Gibbs free energy is G = H - T*S

Total enthalpy                    ...    -79.70621533 Eh 
Total entropy correction          ...     -0.02685478 Eh    -16.85 kcal/mol
-----------------------------------------------------------------------
Final Gibbs free energy         ...    -79.73307012 Eh

For completeness - the Gibbs free energy minus the electronic energy
G-E(el)                           ...      0.05082405 Eh     31.89 kcal/mol


Timings for individual modules:

Sum of individual times         ...       24.553 sec (=   0.409 min)
GTO integral calculation        ...        1.753 sec (=   0.029 min)   7.1 %
SCF iterations                  ...        7.981 sec (=   0.133 min)  32.5 %
SCF Gradient evaluation         ...        3.991 sec (=   0.067 min)  16.3 %
Geometry relaxation             ...        0.153 sec (=   0.003 min)   0.6 %
Analytical frequency calculation...       10.676 sec (=   0.178 min)  43.5 %
                             ****ORCA TERMINATED NORMALLY****
TOTAL RUN TIME: 0 days 0 hours 0 minutes 25 seconds 330 msec
