
                                 *****************
                                 * O   R   C   A *
                                 *****************

           --- An Ab Initio, DFT and Semiempirical electronic structure package ---

                  #######################################################
                  #                        -***-                        #
                  #          Department of theory and spectroscopy      #
                  #               Directorship: Frank Neese             #
                  #        Max Planck Institute fuer Kohlenforschung    #
                  #                Kaiser Wilhelm Platz 1               #
                  #                 D-45470 Muelheim/Ruhr               #
                  #                      Germany                        #
                  #                                                     #
                  #                  All rights reserved                #
                  #                        -***-                        #
                  #######################################################


                         Program Version 4.2.1 -  RELEASE  -


 With contributions from (in alphabetic order):
   Daniel Aravena         : Magnetic Suceptibility
   Michael Atanasov       : Ab Initio Ligand Field Theory (pilot matlab implementation)
   Alexander A. Auer      : GIAO ZORA, VPT2
   Ute Becker             : Parallelization
   Giovanni Bistoni       : ED, misc. LED, open-shell LED, HFLD
   Martin Brehm           : Molecular dynamics
   Dmytro Bykov           : SCF Hessian
   Vijay G. Chilkuri      : MRCI spin determinant printing, contributions to CSF-ICE
   Dipayan Datta          : RHF DLPNO-CCSD density
   Achintya Kumar Dutta   : EOM-CC, STEOM-CC
   Dmitry Ganyushin       : Spin-Orbit,Spin-Spin,Magnetic field MRCI
   Miquel Garcia          : C-PCM Hessian, Gaussian charge scheme
   Yang Guo               : DLPNO-NEVPT2, CIM, IAO-localization
   Andreas Hansen         : Spin unrestricted coupled pair/coupled cluster methods
   Benjamin Helmich-Paris : CASSCF linear response (MC-RPA)
   Lee Huntington         : MR-EOM, pCC
   Robert Izsak           : Overlap fitted RIJCOSX, COSX-SCS-MP3, EOM
   Christian Kollmar      : KDIIS, OOCD, Brueckner-CCSD(T), CCSD density
   Simone Kossmann        : Meta GGA functionals, TD-DFT gradient, OOMP2, MP2 Hessian
   Martin Krupicka        : AUTO-CI
   Lucas Lang             : DCDCAS
   Dagmar Lenk            : GEPOL surface, SMD
   Dimitrios Liakos       : Extrapolation schemes; Compound Job, initial MDCI parallelization
   Dimitrios Manganas     : Further ROCIS development; embedding schemes
   Dimitrios Pantazis     : SARC Basis sets
   Taras Petrenko         : DFT Hessian,TD-DFT gradient, ASA, ECA, R-Raman, ABS, FL, XAS/XES, NRVS
   Peter Pinski           : DLPNO-MP2, DLPNO-MP2 Gradient
   Christoph Reimann      : Effective Core Potentials
   Marius Retegan         : Local ZFS, SOC
   Christoph Riplinger    : Optimizer, TS searches, QM/MM, DLPNO-CCSD(T), (RO)-DLPNO pert. Triples
   Tobias Risthaus        : Range-separated hybrids, TD-DFT gradient, RPA, STAB
   Michael Roemelt        : Original ROCIS implementation
   Masaaki Saitow         : Open-shell DLPNO-CCSD energy and density
   Barbara Sandhoefer     : DKH picture change effects
   Avijit Sen             : IP-ROCIS
   Kantharuban Sivalingam : CASSCF convergence, NEVPT2, FIC-MRCI
   Bernardo de Souza      : ESD, SOC TD-DFT
   Georgi Stoychev        : AutoAux, RI-MP2 NMR
   Willem Van den Heuvel  : Paramagnetic NMR
   Boris Wezisla          : Elementary symmetry handling
   Frank Wennmohs         : Technical directorship


 We gratefully acknowledge several colleagues who have allowed us to
 interface, adapt or use parts of their codes:
   Stefan Grimme, W. Hujo, H. Kruse,             : VdW corrections, initial TS optimization,
                  C. Bannwarth                     DFT functionals, gCP, sTDA/sTD-DF
   Ed Valeev, F. Pavosevic, A. Kumar             : LibInt (2-el integral package), F12 methods
   Garnet Chan, S. Sharma, J. Yang, R. Olivares  : DMRG
   Ulf Ekstrom                                   : XCFun DFT Library
   Mihaly Kallay                                 : mrcc  (arbitrary order and MRCC methods)
   Andreas Klamt, Michael Diedenhofen            : otool_cosmo (COSMO solvation model)
   Jiri Pittner, Ondrej Demel                    : Mk-CCSD
   Frank Weinhold                                : gennbo (NPA and NBO analysis)
   Christopher J. Cramer and Donald G. Truhlar   : smd solvation model
   Lars Goerigk                                  : TD-DFT with DH, B97 family of functionals
   V. Asgeirsson, H. Jonsson                     : NEB implementation
   FAccTs GmbH                                   : IRC, NEB, NEB-TS, Multilevel, MM, QM/MM, CI optimization
   S Lehtola, MJT Oliveira, MAL Marques          : LibXC Library


 Your calculation uses the libint2 library for the computation of 2-el integrals
 For citations please refer to: http://libint.valeyev.net

 Your ORCA version has been built with support for libXC version: 4.2.3
 For citations please refer to: https://tddft.org/programs/libxc/

 This ORCA versions uses:
   CBLAS   interface :  Fast vector & matrix operations
   LAPACKE interface :  Fast linear algebra routines
   SCALAPACK package :  Parallel linear algebra routines


Your calculation utilizes the geometrical counterpoise correction gCP
Please cite in your paper:
H.Kruse, S. Grimme J.Chem.Phys., 136, (2012), 154101 
   

Your calculation utilizes the atom-pairwise dispersion correction
based on tight binding partial charges (D4)
Cite in your paper:
E.Caldeweyher, C.Bannwarth, S.Grimme, J.Chem.Phys., (2017), 147, 034112.
E.Caldeweyher, S.Ehlert, A.Hansen, H.Neugebauer, S.Grimme, J.Chem.Phys., (2018), in progress.
   

----- Orbital basis set information -----
Your calculation utilizes the basis: def2-SVP
   F. Weigend and R. Ahlrichs, Phys. Chem. Chem. Phys. 7, 3297 (2005).

----- AuxJ basis set information -----
Your calculation utilizes the auxiliary basis: def2/J
   F. Weigend, Phys. Chem. Chem. Phys. 8, 1057 (2006).

================================================================================
                                        WARNINGS
                       Please study these warnings very carefully!
================================================================================


WARNING: Geometry Optimization
  ===> : Switching off AutoStart
         For restart on a previous wavefunction, please use MOREAD

INFO   : the flag for use of LIBINT has been found!

================================================================================
                                       INPUT FILE
================================================================================
NAME = 1,2-dichloro-1,2-difluoroethane.inp
|  1> ! revPBE D4 gCP(DFT/SVP) def2-SVP Opt Freq TightOpt TightSCF Grid4 FinalGrid5 LargePrint
|  2> 
|  3> %pal
|  4>  nprocs 12
|  5> end
|  6> 
|  7> *xyz 0 1
|  8> C       -2.1261054407      1.4316986054      0.0283208650                 
|  9> C       -0.6061038335      1.3378024270     -0.0282461585                 
| 10> H       -2.4696710818      2.4682899277     -0.0356890263                 
| 11> F       -2.5875405861      0.8917614714      1.1898860499                 
| 12> Cl      -2.8739634563      0.5414708493     -1.3266866358                 
| 13> Cl       0.1426908084      2.2298177814      1.3255707616                 
| 14> F       -0.1438909663      1.8793572200     -1.1888103661                 
| 15> H       -0.2617834976      0.3014649022      0.0356559058                 
| 16> *
| 17> 
| 18>                          ****END OF INPUT****
================================================================================

                       *****************************
                       * Geometry Optimization Run *
                       *****************************

Geometry optimization settings:
Update method            Update   .... BFGS
Choice of coordinates    CoordSys .... Z-matrix Internals
Initial Hessian          InHess   .... Almoef's Model

Convergence Tolerances:
Energy Change            TolE     ....  1.0000e-06 Eh
Max. Gradient            TolMAXG  ....  1.0000e-04 Eh/bohr
RMS Gradient             TolRMSG  ....  3.0000e-05 Eh/bohr
Max. Displacement        TolMAXD  ....  1.0000e-03 bohr
RMS Displacement         TolRMSD  ....  6.0000e-04 bohr
Strict Convergence                ....  False
------------------------------------------------------------------------------
                        ORCA OPTIMIZATION COORDINATE SETUP
------------------------------------------------------------------------------

The optimization will be done in new redundant internal coordinates
Making redundant internal coordinates   ...  (new redundants) done
Evaluating the initial hessian          ...  (Almloef) done
Evaluating the coordinates              ...  done
Calculating the B-matrix                .... done
Calculating the G-matrix                .... done
Diagonalizing the G-matrix              .... done
The first mode is                       ....   10
The number of degrees of freedom        ....   18

    -----------------------------------------------------------------
                    Redundant Internal Coordinates


    -----------------------------------------------------------------
         Definition                    Initial Value    Approx d2E/dq
    -----------------------------------------------------------------
      1. B(C   1,C   0)                  1.5239         0.381972   
      2. B(H   2,C   0)                  1.0939         0.354954   
      3. B(F   3,C   0)                  1.3615         0.577342   
      4. B(Cl  4,C   0)                  1.7855         0.327955   
      5. B(Cl  5,C   1)                  1.7858         0.327496   
      6. B(F   6,C   1)                  1.3616         0.577230   
      7. B(H   7,C   1)                  1.0939         0.354967   
      8. A(H   2,C   0,Cl  4)          107.2483         0.329877   
      9. A(C   1,C   0,Cl  4)          111.0318         0.372170   
     10. A(C   1,C   0,H   2)          111.6828         0.324737   
     11. A(F   3,C   0,Cl  4)          107.9253         0.395642   
     12. A(H   2,C   0,F   3)          108.6188         0.344277   
     13. A(C   1,C   0,F   3)          110.1984         0.389097   
     14. A(C   0,C   1,Cl  5)          111.0569         0.372080   
     15. A(F   6,C   1,H   7)          108.6480         0.344268   
     16. A(Cl  5,C   1,H   7)          107.2742         0.329803   
     17. A(C   0,C   1,H   7)          111.7248         0.324738   
     18. A(Cl  5,C   1,F   6)          107.7681         0.395531   
     19. A(C   0,C   1,F   6)          110.2262         0.389084   
     20. D(Cl  5,C   1,C   0,F   3)    -60.5495         0.011622   
     21. D(Cl  5,C   1,C   0,Cl  4)    179.9252         0.011622   
     22. D(F   6,C   1,C   0,H   2)    -59.0909         0.011622   
     23. D(F   6,C   1,C   0,F   3)   -179.9128         0.011622   
     24. D(F   6,C   1,C   0,Cl  4)     60.5619         0.011622   
     25. D(H   7,C   1,C   0,H   2)   -179.9968         0.011622   
     26. D(H   7,C   1,C   0,F   3)     59.1813         0.011622   
     27. D(H   7,C   1,C   0,Cl  4)    -60.3440         0.011622   
     28. D(Cl  5,C   1,C   0,H   2)     60.2724         0.011622   
    -----------------------------------------------------------------

Number of atoms                         .... 8
Number of degrees of freedom            .... 28

         *************************************************************
         *                GEOMETRY OPTIMIZATION CYCLE   1            *
         *************************************************************
---------------------------------
CARTESIAN COORDINATES (ANGSTROEM)
---------------------------------
  C     -2.126105    1.431699    0.028321
  C     -0.606104    1.337802   -0.028246
  H     -2.469671    2.468290   -0.035689
  F     -2.587541    0.891761    1.189886
  Cl    -2.873963    0.541471   -1.326687
  Cl     0.142691    2.229818    1.325571
  F     -0.143891    1.879357   -1.188810
  H     -0.261783    0.301465    0.035656

----------------------------
CARTESIAN COORDINATES (A.U.)
----------------------------
  NO LB      ZA    FRAG     MASS         X           Y           Z
   0 C     6.0000    0    12.011   -4.017757    2.705518    0.053519
   1 C     6.0000    0    12.011   -1.145370    2.528080   -0.053378
   2 H     1.0000    0     1.008   -4.667002    4.664392   -0.067442
   3 F     9.0000    0    18.998   -4.889743    1.685185    2.248559
   4 Cl   17.0000    0    35.453   -5.431004    1.023232   -2.507074
   5 Cl   17.0000    0    35.453    0.269647    4.213745    2.504966
   6 F     9.0000    0    18.998   -0.271915    3.551470   -2.246526
   7 H     1.0000    0     1.008   -0.494699    0.569686    0.067380

--------------------------------
INTERNAL COORDINATES (ANGSTROEM)
--------------------------------
 C      0   0   0     0.000000000000     0.00000000     0.00000000
 C      1   0   0     1.523949213838     0.00000000     0.00000000
 H      1   2   0     1.093917814736   111.68282984     0.00000000
 F      1   2   3     1.361502178057   110.19837971   239.17810210
 Cl     1   2   3     1.785452994747   111.03180850   119.65280650
 Cl     2   1   3     1.785834555991   111.05694840    60.27241564
 F      2   1   3     1.361554849570   110.22621335   300.90912258
 H      2   1   3     1.093908329269   111.72480613   180.00320290

---------------------------
INTERNAL COORDINATES (A.U.)
---------------------------
 C      0   0   0     0.000000000000     0.00000000     0.00000000
 C      1   0   0     2.879846656158     0.00000000     0.00000000
 H      1   2   0     2.067205082868   111.68282984     0.00000000
 F      1   2   3     2.572866247265   110.19837971   239.17810210
 Cl     1   2   3     3.374017185062   111.03180850   119.65280650
 Cl     2   1   3     3.374738231316   111.05694840    60.27241564
 F      2   1   3     2.572965782000   110.22621335   300.90912258
 H      2   1   3     2.067187157934   111.72480613   180.00320290

---------------------
BASIS SET INFORMATION
---------------------
There are 4 groups of distinct atoms

 Group   1 Type C   : 7s4p1d contracted to 3s2p1d pattern {511/31/1}
 Group   2 Type H   : 4s1p contracted to 2s1p pattern {31/1}
 Group   3 Type F   : 7s4p1d contracted to 3s2p1d pattern {511/31/1}
 Group   4 Type Cl  : 10s7p1d contracted to 4s3p1d pattern {5311/511/1}

Atom   0C    basis set group =>   1
Atom   1C    basis set group =>   1
Atom   2H    basis set group =>   2
Atom   3F    basis set group =>   3
Atom   4Cl   basis set group =>   4
Atom   5Cl   basis set group =>   4
Atom   6F    basis set group =>   3
Atom   7H    basis set group =>   2

-------------------------
BASIS SET IN INPUT FORMAT
-------------------------

 # Basis set for element : H 
 NewGTO H 
 S 3 
   1      13.0107010000      0.0334854848
   2       1.9622572000      0.2347218709
   3       0.4445379600      0.8137702853
 S 1 
   1       0.1219496200      1.0000000000
 P 1 
   1       0.8000000000      1.0000000000
  end;

 # Basis set for element : C 
 NewGTO C 
 S 5 
   1    1238.4016938000      0.0055173650
   2     186.2900499200      0.0410888285
   3      42.2511763460      0.1822538213
   4      11.6765579320      0.4682845944
   5       3.5930506482      0.4457581734
 S 1 
   1       0.4024514736      1.0000000000
 S 1 
   1       0.1309018267      1.0000000000
 P 3 
   1       9.4680970621      0.0568883320
   2       2.0103545142      0.3129405934
   3       0.5477100471      0.7606501651
 P 1 
   1       0.1526861379      1.0000000000
 D 1 
   1       0.8000000000      1.0000000000
  end;

 # Basis set for element : F 
 NewGTO F 
 S 5 
   1    2894.8325990000     -0.0053493212
   2     435.4193912000     -0.0399677344
   3      98.8433288660     -0.1794126179
   4      27.4851980010     -0.4683246868
   5       8.5405498171     -0.4472416053
 S 1 
   1       1.0654578038      1.0000000000
 S 1 
   1       0.3324734675      1.0000000000
 P 3 
   1      22.6966339240     -0.0647821482
   2       4.9872339257     -0.3403578536
   3       1.3491613954     -0.7348581537
 P 1 
   1       0.3482988198      1.0000000000
 D 1 
   1       1.4000000000      1.0000000000
  end;

 # Basis set for element : Cl
 NewGTO Cl
 S 5 
   1   10449.8275660000      0.0054265952
   2    1571.7365221000      0.0406263782
   3     357.1206552300      0.1835974786
   4     100.2518593500      0.4743894876
   5      30.8127275540      0.4373518111
 S 3 
   1      51.9237894340     -0.0927541549
   2       5.7045760975      0.5638082555
   3       2.3508376809      0.5036704463
 S 1 
   1       0.4460512467      1.0000000000
 S 1 
   1       0.1684885619      1.0000000000
 P 5 
   1     307.6679056900     -0.0088797025
   2      72.1020155150     -0.0642840717
   3      22.5326802620     -0.2428873974
   4       7.8991765444     -0.4834083637
   5       2.8767268321     -0.3895256388
 P 1 
   1       0.7745936396      1.0000000000
 P 1 
   1       0.2103769970      1.0000000000
 D 1 
   1       0.6500000000      1.0000000000
  end;

---------------------------------
AUXILIARY/J BASIS SET INFORMATION
---------------------------------
There are 4 groups of distinct atoms

 Group   1 Type C   : 12s5p4d2f1g contracted to 6s4p3d1f1g pattern {711111/2111/211/2/1}
 Group   2 Type H   : 5s2p1d contracted to 3s1p1d pattern {311/2/1}
 Group   3 Type F   : 12s5p4d2f1g contracted to 6s4p3d1f1g pattern {711111/2111/211/2/1}
 Group   4 Type Cl  : 14s5p5d2f1g contracted to 8s4p3d1f1g pattern {71111111/2111/311/2/1}

Atom   0C    basis set group =>   1
Atom   1C    basis set group =>   1
Atom   2H    basis set group =>   2
Atom   3F    basis set group =>   3
Atom   4Cl   basis set group =>   4
Atom   5Cl   basis set group =>   4
Atom   6F    basis set group =>   3
Atom   7H    basis set group =>   2

-------------------------------------
AUXILIARY/J BASIS SET IN INPUT FORMAT
-------------------------------------

 # Auxiliary/J basis set for element : H 
 NewAuxJGTO H 
 S 3 
   1      15.6752927000      0.1007184237
   2       3.6063578000      0.3404257499
   3       1.2080016000      0.6491996172
 S 1 
   1       0.4726794000      1.0000000000
 S 1 
   1       0.2018100000      1.0000000000
 P 2 
   1       2.0281365000      0.5596620919
   2       0.5358730000      0.5596620919
 D 1 
   1       2.2165124000      1.0000000000
  end;

 # Auxiliary/J basis set for element : C 
 NewAuxJGTO C 
 S 7 
   1    1861.0916331000      0.0134602335
   2     642.9939764000      0.0299160374
   3     235.1105725000      0.1008649584
   4      90.7028894000      0.2370970548
   5      36.7794552000      0.3924037254
   6      15.6046273000      0.3195862154
   7       6.8907294000      0.0530104441
 S 1 
   1       3.1478850000     -1.0000000000
 S 1 
   1       1.4777287000      1.0000000000
 S 1 
   1       0.7076466000      1.0000000000
 S 1 
   1       0.3430122000      1.0000000000
 S 1 
   1       0.1669453000      1.0000000000
 P 2 
   1      13.5472892000     -0.6769313712
   2       5.4669419000     -0.3779500978
 P 1 
   1       2.1751721000      1.0000000000
 P 1 
   1       0.8582194000      1.0000000000
 P 1 
   1       0.3376720000      1.0000000000
 D 2 
   1       5.9287253000     -0.3533329857
   2       1.9809209000     -0.7456525731
 D 1 
   1       0.8055417000     -1.0000000000
 D 1 
   1       0.3531244000     -1.0000000000
 F 2 
   1       1.6755626000      0.6311076882
   2       0.5997536000      0.4968166032
 G 1 
   1       1.0024600000     -1.0000000000
  end;

 # Auxiliary/J basis set for element : F 
 NewAuxJGTO F 
 S 7 
   1    3514.9201549000      0.0176189594
   2    1231.2458815000      0.0358663858
   3     454.1367336000      0.1239867649
   4     175.8376258000      0.2758620517
   5      71.2081775000      0.4252764982
   6      30.0316883000      0.2651963387
   7      13.1259023000     -0.0078514564
 S 1 
   1       5.9126861000     -1.0000000000
 S 1 
   1       2.7284431000      1.0000000000
 S 1 
   1       1.2813993000      1.0000000000
 S 1 
   1       0.6082793000      1.0000000000
 S 1 
   1       0.2897894000      1.0000000000
 P 2 
   1      49.3740409000     -0.8404235528
   2      13.4874956000     -0.2331250081
 P 1 
   1       3.9664900000      1.0000000000
 P 1 
   1       1.2226629000     -1.0000000000
 P 1 
   1       0.3830317000      1.0000000000
 D 2 
   1      29.9719140000     -0.2160273306
   2       6.7860915000     -0.8915140390
 D 1 
   1       1.8137313000     -1.0000000000
 D 1 
   1       0.5157840000     -1.0000000000
 F 2 
   1       2.8301877000      0.5762078303
   2       0.9155962000      0.5762078303
 G 1 
   1       1.6097500000     -1.0000000000
  end;

 # Auxiliary/J basis set for element : Cl
 NewAuxJGTO Cl
 S 7 
   1    8044.2766240000      0.0309054740
   2    2924.5123954000      0.0600734063
   3    1110.8168739000      0.1862207460
   4     439.9050761000      0.3715503251
   5     181.1987287000      0.4220785347
   6      77.4148302000      0.0994388367
   7      34.1977273000     -0.0596902748
 S 1 
   1      15.5648397000      1.0000000000
 S 1 
   1       7.2707873000      1.0000000000
 S 1 
   1       3.4711900000     -1.0000000000
 S 1 
   1       1.6860808000     -1.0000000000
 S 1 
   1       0.8293125000      1.0000000000
 S 1 
   1       0.4110124000      1.0000000000
 S 1 
   1       0.2042190000      1.0000000000
 P 2 
   1      12.2564993000      1.4910316311
   2       4.8922575000     -1.4908224419
 P 1 
   1       1.9265460000      1.0000000000
 P 1 
   1       0.7525989000     -1.0000000000
 P 1 
   1       0.2932189000     -1.0000000000
 D 3 
   1      28.4370504000     -1.0829567244
   2       7.2772298000      0.5502349187
   3       2.3111621000     -0.5567798939
 D 1 
   1       0.8580943000     -1.0000000000
 D 1 
   1       0.3376227000     -1.0000000000
 F 2 
   1       1.2035685000      0.5557691438
   2       0.4700000000      0.5557691438
 G 1 
   1       0.7521100000     -1.0000000000
  end;



           ************************************************************
           *        Program running with 12 parallel MPI-processes    *
           *              working on a common directory               *
           ************************************************************
------------------------------------------------------------------------------
                           ORCA GTO INTEGRAL CALCULATION
                           -- RI-GTO INTEGRALS CHOSEN --
------------------------------------------------------------------------------

                         BASIS SET STATISTICS AND STARTUP INFO

Gaussian basis set:
 # of primitive gaussian shells          ...   94
 # of primitive gaussian functions       ...  182
 # of contracted shells                  ...   46
 # of contracted basis functions         ...  102
 Highest angular momentum                ...    2
 Maximum contraction depth               ...    5
Auxiliary gaussian basis set:
 # of primitive gaussian shells          ...  166
 # of primitive gaussian functions       ...  466
 # of contracted shells                  ...  104
 # of contracted aux-basis functions     ...  320
 Highest angular momentum                ...    4
 Maximum contraction depth               ...    7
Ratio of auxiliary to basis functions    ...  3.14
Integral package used                  ... LIBINT
 One Electron integrals                  ... done
 Ordering auxiliary basis shells         ... done
 Integral threshhold             Thresh  ...  2.500e-11
 Primitive cut-off               TCut    ...  2.500e-12
 Pre-screening matrix                    ... done
 Shell pair data                         ... 
 Ordering of the shell pairs             ... done (   0.000 sec) 1017 of 1081 pairs
 Determination of significant pairs      ... done (   0.000 sec)
 Creation of shell pair data             ... done (   0.000 sec)
 Storage of shell pair data              ... done (   0.022 sec)
 Shell pair data done in (   0.023 sec)
 Computing two index integrals           ... done
 Cholesky decomposition of the V-matrix  ... done


Timings:
 Total evaluation time                   ...   0.217 sec (  0.004 min)
 One electron matrix time                ...   0.022 sec (  0.000 min) = 10.0%
 Schwartz matrix evaluation time         ...   0.134 sec (  0.002 min) = 61.9%
 Two index repulsion integral time       ...   0.007 sec (  0.000 min) =  3.4%
 Cholesky decomposition of V             ...   0.011 sec (  0.000 min) =  4.9%
 Three index repulsion integral time     ...   0.000 sec (  0.000 min) =  0.0%



           ************************************************************
           *        Program running with 12 parallel MPI-processes    *
           *              working on a common directory               *
           ************************************************************
-------------------------------------------------------------------------------
                                 ORCA SCF
-------------------------------------------------------------------------------

------------
SCF SETTINGS
------------
Hamiltonian:
 Density Functional     Method          .... DFT(GTOs)
 Exchange Functional    Exchange        .... PBE
   PBE kappa parameter   XKappa         ....  1.245000
   PBE mue parameter    XMuePBE         ....  0.219520
 Correlation Functional Correlation     .... PBE
   PBE beta parameter  CBetaPBE         ....  0.066725
 LDA part of GGA corr.  LDAOpt          .... PW91-LDA
 Gradients option       PostSCFGGA      .... off
   Density functional embedding theory  .... OFF
   NL short-range parameter             ....  3.700000
 RI-approximation to the Coulomb term is turned on
   Number of auxiliary basis functions  .... 320


General Settings:
 Integral files         IntName         .... 1,2-dichloro-1,2-difluoroethane
 Hartree-Fock type      HFTyp           .... RHF
 Total Charge           Charge          ....    0
 Multiplicity           Mult            ....    1
 Number of Electrons    NEL             ....   66
 Basis Dimension        Dim             ....  102
 Nuclear Repulsion      ENuc            ....    373.2606028850 Eh

Convergence Acceleration:
 DIIS                   CNVDIIS         .... on
   Start iteration      DIISMaxIt       ....    12
   Startup error        DIISStart       ....  0.200000
   # of expansion vecs  DIISMaxEq       ....     5
   Bias factor          DIISBfac        ....   1.050
   Max. coefficient     DIISMaxC        ....  10.000
 Newton-Raphson         CNVNR           .... off
 SOSCF                  CNVSOSCF        .... on
   Start iteration      SOSCFMaxIt      ....   150
   Startup grad/error   SOSCFStart      ....  0.003300
 Level Shifting         CNVShift        .... on
   Level shift para.    LevelShift      ....    0.2500
   Turn off err/grad.   ShiftErr        ....    0.0010
 Zerner damping         CNVZerner       .... off
 Static damping         CNVDamp         .... on
   Fraction old density DampFac         ....    0.7000
   Max. Damping (<1)    DampMax         ....    0.9800
   Min. Damping (>=0)   DampMin         ....    0.0000
   Turn off err/grad.   DampErr         ....    0.1000
 Fernandez-Rico         CNVRico         .... off

SCF Procedure:
 Maximum # iterations   MaxIter         ....   125
 SCF integral mode      SCFMode         .... Direct
   Integral package                     .... LIBINT
 Reset frequency        DirectResetFreq ....    20
 Integral Threshold     Thresh          ....  2.500e-11 Eh
 Primitive CutOff       TCut            ....  2.500e-12 Eh

Convergence Tolerance:
 Convergence Check Mode ConvCheckMode   .... Total+1el-Energy
 Convergence forced     ConvForced      .... 0
 Energy Change          TolE            ....  1.000e-08 Eh
 1-El. energy change                    ....  1.000e-05 Eh
 Orbital Gradient       TolG            ....  1.000e-05
 Orbital Rotation angle TolX            ....  1.000e-05
 DIIS Error             TolErr          ....  5.000e-07


Diagonalization of the overlap matrix:
Smallest eigenvalue                        ... 3.315e-03
Time for diagonalization                   ...    0.003 sec
Threshold for overlap eigenvalues          ... 1.000e-08
Number of eigenvalues below threshold      ... 0
Time for construction of square roots      ...    0.011 sec
Total time needed                          ...    0.016 sec

-------------------
DFT GRID GENERATION
-------------------

General Integration Accuracy     IntAcc      ...  4.670
Radial Grid Type                 RadialGrid  ... Gauss-Chebyshev
Angular Grid (max. acc.)         AngularGrid ... Lebedev-302
Angular grid pruning method      GridPruning ... 3 (G Style)
Weight generation scheme         WeightScheme... Becke
Basis function cutoff            BFCut       ...    1.0000e-11
Integration weight cutoff        WCut        ...    1.0000e-14
Grids for H and He will be reduced by one unit

# of grid points (after initial pruning)     ...  45232 (   0.0 sec)
# of grid points (after weights+screening)   ...  43111 (   0.0 sec)
nearest neighbour list constructed           ...    0.0 sec
Grid point re-assignment to atoms done       ...    0.0 sec
Grid point division into batches done        ...    0.3 sec
Reduced shell lists constructed in    0.3 sec

Total number of grid points                  ...    43111
Total number of batches                      ...      676
Average number of points per batch           ...       63
Average number of grid points per atom       ...     5389
Average number of shells per batch           ...    38.10 (82.83%)
Average number of basis functions per batch  ...    89.14 (87.39%)
Average number of large shells per batch     ...    33.12 (86.92%)
Average number of large basis fcns per batch ...    76.40 (85.71%)
Maximum spatial batch extension              ...   1.61,  1.60,  1.86 au
Average spatial batch extension              ...   0.09,  0.08,  0.08 au

Time for grid setup =    0.402 sec

------------------------------
INITIAL GUESS: MODEL POTENTIAL
------------------------------
Loading Hartree-Fock densities                     ... done
Calculating cut-offs                               ... done
Setting up the integral package                    ... done
Initializing the effective Hamiltonian             ... done
Starting the Coulomb interaction                   ... done (   0.0 sec)
Reading the grid                                   ... done
Mapping shells                                     ... done
Starting the XC term evaluation                    ... done (   0.1 sec)
  promolecular density results
     # of electrons  =     65.999069117
     EX              =    -85.973611972
     EC              =     -2.438697211
     EX+EC           =    -88.412309183
Transforming the Hamiltonian                       ... done (   0.0 sec)
Diagonalizing the Hamiltonian                      ... done (   0.0 sec)
Back transforming the eigenvectors                 ... done (   0.0 sec)
Now organizing SCF variables                       ... done
                      ------------------
                      INITIAL GUESS DONE (   0.7 sec)
                      ------------------
----------------------
INITIAL GUESS ORBITALS
----------------------
                      0         1         2         3         4         5   
                 -100.68649 -100.68647 -24.37580 -24.37577 -10.05624 -10.05617
                   2.00000   2.00000   2.00000   2.00000   2.00000   2.00000
                  --------  --------  --------  --------  --------  --------
  0C   1s         0.000030  0.000034 -0.000035  0.000077 -0.786227 -0.598462
  0C   2s        -0.000349 -0.000390 -0.000804 -0.001248 -0.040126 -0.028006
  0C   3s         0.002545  0.001449  0.019625  0.009642  0.032511  0.013110
  0C   1pz        0.000077 -0.000052  0.000807  0.000790 -0.000634 -0.000417
  0C   1px        0.000061 -0.000116 -0.000210 -0.000727 -0.001006  0.001325
  0C   1py        0.000063 -0.000038 -0.000192 -0.000014 -0.001339 -0.001138
  0C   2pz       -0.001265  0.000352  0.003650  0.003850 -0.003200 -0.003491
  0C   2px       -0.000942 -0.000149  0.002395 -0.003266  0.005800  0.000197
  0C   2py       -0.000786 -0.000191 -0.002469 -0.005091  0.001615  0.000845
  0C   1dz2      -0.000033 -0.000001  0.000023  0.000260  0.000678 -0.000438
  0C   1dxz       0.000008 -0.000079 -0.000301  0.000087  0.000669  0.000298
  0C   1dyz      -0.000058 -0.000074 -0.000129 -0.000091  0.000765  0.000509
  0C   1dx2y2     0.000006 -0.000006  0.000197 -0.000109 -0.000299  0.001472
  0C   1dxy      -0.000014 -0.000037  0.000068 -0.000087  0.000588  0.000292
  1C   1s        -0.000012  0.000044  0.000045  0.000072  0.597781 -0.786745
  1C   2s         0.000148 -0.000503  0.000625 -0.001359  0.031188 -0.037707
  1C   3s        -0.001675  0.002402 -0.018098  0.012324 -0.027838  0.021308
  1C   1pz        0.000092  0.000014  0.000689 -0.000896 -0.000499  0.000572
  1C   1px        0.000105  0.000079 -0.000107  0.000750 -0.001322 -0.001010
  1C   1py        0.000073  0.000007 -0.000187  0.000040 -0.000984  0.001451
  1C   2pz       -0.001291  0.000223  0.003065 -0.004311 -0.002144  0.004209
  1C   2px       -0.000787  0.000537  0.002815  0.002898  0.005534 -0.001732
  1C   2py       -0.000628  0.000509 -0.001776  0.005401  0.001318 -0.001238
  1C   1dz2       0.000029 -0.000015  0.000014  0.000260 -0.000774 -0.000237
  1C   1dxz      -0.000042 -0.000067  0.000310  0.000044 -0.000566  0.000466
  1C   1dyz       0.000020 -0.000091  0.000116 -0.000108 -0.000602  0.000696
  1C   1dx2y2    -0.000008 -0.000002 -0.000210 -0.000079  0.000681  0.001338
  1C   1dxy      -0.000003 -0.000040 -0.000079 -0.000075 -0.000489  0.000440
  2H   1s        -0.000142 -0.000246 -0.000993 -0.000397  0.003020  0.002575
  2H   2s        -0.000138 -0.000009 -0.001648 -0.001172 -0.006448 -0.005398
  2H   1pz        0.000064 -0.000102 -0.000516 -0.000350  0.000428  0.000429
  2H   1px        0.000085 -0.000047  0.000270 -0.000020  0.000672 -0.000086
  2H   1py        0.000015 -0.000033  0.000232  0.000318 -0.002291 -0.001609
  3F   1s        -0.000007  0.000012 -0.746149 -0.648739  0.000019  0.000115
  3F   2s        -0.000042  0.000162  0.030738  0.026537 -0.000644  0.000382
  3F   3s        -0.000113 -0.000721 -0.020283 -0.017670  0.002347  0.000570
  3F   1pz       -0.000047 -0.000009  0.000822  0.000764  0.000208  0.000248
  3F   1px        0.000010  0.000005 -0.000432 -0.000136  0.000057 -0.000385
  3F   1py       -0.000013 -0.000012 -0.000366 -0.000261 -0.000038 -0.000009
  3F   2pz        0.000002  0.000108  0.003704  0.003504 -0.003114 -0.001969
  3F   2px        0.000128 -0.000091 -0.001968 -0.000715  0.001755 -0.000545
  3F   2py        0.000028 -0.000130 -0.001606 -0.001082  0.001715  0.001431
  3F   1dz2       0.000001  0.000020 -0.000177 -0.000179  0.000661  0.000580
  3F   1dxz       0.000000  0.000023  0.000194  0.000112 -0.000613 -0.000377
  3F   1dyz       0.000008  0.000022  0.000172  0.000112 -0.000745 -0.000545
  3F   1dx2y2     0.000000  0.000002  0.000031  0.000020  0.000062 -0.000204
  3F   1dxy       0.000039  0.000014 -0.000077 -0.000029  0.000256  0.000179
  4Cl  1s        -0.840051 -0.531433 -0.000006  0.000005  0.000020  0.000022
  4Cl  2s        -0.018877 -0.011914  0.000045 -0.000062 -0.000206 -0.000241
  4Cl  3s         0.008941  0.005358  0.000176  0.001158  0.000518  0.001212
  4Cl  4s        -0.006903 -0.003321 -0.002328 -0.004306 -0.003651 -0.004078
  4Cl  1pz        0.000069  0.000036 -0.000008  0.000030  0.000105  0.000088
  4Cl  1px        0.000048  0.000021 -0.000028  0.000017  0.000035  0.000082
  4Cl  1py        0.000044  0.000020 -0.000013 -0.000019  0.000057  0.000065
  4Cl  2pz        0.000371  0.000179  0.000050  0.000292  0.000239  0.000247
  4Cl  2px        0.000260  0.000104 -0.000164  0.000145  0.000008  0.000398
  4Cl  2py        0.000238  0.000093 -0.000073 -0.000069  0.000107  0.000212
  4Cl  3pz       -0.001450 -0.000502 -0.001707 -0.002641 -0.000441 -0.000629
  4Cl  3px       -0.000928 -0.000251 -0.000040 -0.000933 -0.000408 -0.001543
  4Cl  3py       -0.000946 -0.000231 -0.000111 -0.000294 -0.000474 -0.000710
  4Cl  1dz2      -0.000079 -0.000048 -0.000428 -0.000459  0.000528  0.000542
  4Cl  1dxz      -0.000153 -0.000038 -0.000213 -0.000248  0.000671  0.000331
  4Cl  1dyz      -0.000179 -0.000038 -0.000089 -0.000196  0.000918  0.000650
  4Cl  1dx2y2    -0.000014 -0.000010  0.000089 -0.000201  0.000049 -0.000284
  4Cl  1dxy      -0.000101 -0.000013  0.000134  0.000041  0.000313  0.000107
  5Cl  1s         0.531429 -0.840054  0.000006  0.000005 -0.000013  0.000026
  5Cl  2s         0.011954 -0.018852 -0.000054 -0.000055  0.000135 -0.000287
  5Cl  3s        -0.005783  0.008671 -0.000013  0.001170 -0.000179  0.001307
  5Cl  4s         0.004812 -0.005957  0.001724 -0.004603  0.002437 -0.004902
  5Cl  1pz        0.000047 -0.000062 -0.000013 -0.000028  0.000077 -0.000113
  5Cl  1px        0.000034 -0.000040 -0.000030 -0.000013  0.000012 -0.000089
  5Cl  1py        0.000032 -0.000037 -0.000010  0.000020  0.000038 -0.000078
  5Cl  2pz        0.000258 -0.000320  0.000007 -0.000293  0.000165 -0.000302
  5Cl  2px        0.000190 -0.000205 -0.000183 -0.000122 -0.000098 -0.000385
  5Cl  2py        0.000176 -0.000186 -0.000063  0.000078  0.000046 -0.000233
  5Cl  3pz       -0.001092  0.001074 -0.001329  0.002854 -0.000262  0.000724
  5Cl  3px       -0.000731  0.000625  0.000084  0.000938  0.000015  0.001594
  5Cl  3py       -0.000757  0.000615 -0.000074  0.000316 -0.000267  0.000811
  5Cl  1dz2       0.000050 -0.000077  0.000359 -0.000511 -0.000361  0.000660
  5Cl  1dxz       0.000122 -0.000100  0.000178 -0.000277 -0.000557  0.000498
  5Cl  1dyz       0.000145 -0.000111  0.000062 -0.000209 -0.000711  0.000872
  5Cl  1dx2y2     0.000008 -0.000015 -0.000116 -0.000186 -0.000122 -0.000261
  5Cl  1dxy       0.000086 -0.000055 -0.000127  0.000058 -0.000274  0.000188
  6F   1s         0.000012  0.000008  0.648710 -0.746173  0.000012  0.000116
  6F   2s         0.000108  0.000128 -0.026751  0.030555  0.000720  0.000198
  6F   3s        -0.000208 -0.000698  0.017636 -0.020328 -0.002097  0.001166
  6F   1pz       -0.000039  0.000029  0.000707 -0.000870  0.000134 -0.000294
  6F   1px        0.000006 -0.000008 -0.000409  0.000195  0.000157  0.000356
  6F   1py       -0.000007  0.000017 -0.000326  0.000311 -0.000034  0.000019
  6F   2pz       -0.000046 -0.000097  0.003181 -0.003983 -0.002470  0.002724
  6F   2px        0.000154  0.000028 -0.001852  0.000986  0.001835  0.000056
  6F   2py        0.000080  0.000107 -0.001440  0.001301  0.001274 -0.001839
  6F   1dz2       0.000008  0.000019  0.000150 -0.000201 -0.000481  0.000734
  6F   1dxz       0.000009  0.000021 -0.000176  0.000138  0.000490 -0.000528
  6F   1dyz       0.000002  0.000024 -0.000154  0.000135  0.000573 -0.000726
  6F   1dx2y2     0.000001  0.000002 -0.000028  0.000025 -0.000114 -0.000181
  6F   1dxy      -0.000029  0.000029  0.000072 -0.000040 -0.000200  0.000242
  7H   1s         0.000023 -0.000283  0.000923 -0.000531 -0.002224  0.003292
  7H   2s         0.000120 -0.000068  0.001458 -0.001392  0.004771 -0.006921
  7H   1pz        0.000102  0.000065 -0.000461  0.000417  0.000297 -0.000527
  7H   1px        0.000097  0.000006  0.000271 -0.000021  0.000671 -0.000099
  7H   1py        0.000028  0.000023  0.000187 -0.000348 -0.001778  0.002162
                      6         7         8         9        10        11   
                  -9.23052  -9.23050  -7.04754  -7.04752  -7.04596  -7.04594
                   2.00000   2.00000   2.00000   2.00000   2.00000   2.00000
                  --------  --------  --------  --------  --------  --------
  0C   1s         0.000212  0.000127 -0.000109 -0.000064  0.000002  0.000029
  0C   2s        -0.001011 -0.000888  0.000517  0.000520 -0.000056 -0.000458
  0C   3s         0.005889  0.002556 -0.007099 -0.001113  0.001063 -0.000208
  0C   1pz        0.000362 -0.000117 -0.000117  0.000104  0.000110 -0.000166
  0C   1px        0.000236 -0.000249 -0.000044  0.000287  0.000286 -0.000227
  0C   1py        0.000275 -0.000076 -0.000125  0.000076 -0.000015 -0.000149
  0C   2pz       -0.002667  0.001771  0.002320 -0.000988 -0.001382  0.002451
  0C   2px       -0.002728  0.000418  0.001467 -0.000010 -0.001893  0.000663
  0C   2py       -0.001869  0.000124  0.001361 -0.000468  0.000085  0.001034
  0C   1dz2      -0.000193 -0.000037  0.000339  0.000017  0.000009 -0.000007
  0C   1dxz      -0.000233 -0.000220  0.000405  0.000172 -0.000058 -0.000025
  0C   1dyz      -0.000400 -0.000208  0.000563  0.000130  0.000040 -0.000064
  0C   1dx2y2     0.000016  0.000007 -0.000044  0.000070 -0.000008  0.000021
  0C   1dxy      -0.000189 -0.000095  0.000307  0.000090 -0.000034  0.000003
  1C   1s        -0.000042  0.000243 -0.000009 -0.000126 -0.000028 -0.000011
  1C   2s        -0.000012 -0.001347  0.000242  0.000693  0.000420  0.000192
  1C   3s        -0.001909  0.006129  0.002113 -0.006859  0.000522 -0.000961
  1C   1pz        0.000325 -0.000196 -0.000144  0.000058 -0.000190  0.000055
  1C   1px        0.000342 -0.000015 -0.000277 -0.000087 -0.000301  0.000206
  1C   1py        0.000237 -0.000159 -0.000123  0.000079 -0.000140 -0.000060
  1C   2pz       -0.003079  0.000855  0.001902 -0.001648  0.002728 -0.000601
  1C   2px       -0.002100  0.001786  0.000651 -0.001314  0.001199 -0.001606
  1C   2py       -0.001311  0.001330  0.001015 -0.001017  0.000992  0.000423
  1C   1dz2       0.000098 -0.000168 -0.000133  0.000310  0.000011 -0.000005
  1C   1dxz      -0.000014 -0.000319 -0.000023  0.000438  0.000005  0.000063
  1C   1dyz       0.000104 -0.000438 -0.000130  0.000562  0.000072 -0.000018
  1C   1dx2y2    -0.000004  0.000017  0.000082 -0.000009 -0.000022  0.000002
  1C   1dxy       0.000052 -0.000206 -0.000054  0.000317 -0.000014  0.000031
  2H   1s        -0.000440 -0.000583  0.000585  0.000373 -0.000301 -0.000432
  2H   2s        -0.000149  0.000216  0.000608  0.000404 -0.000110  0.000250
  2H   1pz        0.000005 -0.000303  0.000005  0.000186 -0.000023 -0.000278
  2H   1px        0.000133 -0.000141 -0.000022  0.000156  0.000114 -0.000110
  2H   1py       -0.000011 -0.000124 -0.000082  0.000007 -0.000056 -0.000108
  3F   1s        -0.000017  0.000021  0.000016 -0.000015 -0.000003  0.000019
  3F   2s        -0.000079  0.000310  0.000036 -0.000216 -0.000030  0.000238
  3F   3s        -0.000489 -0.001573  0.000671  0.000953  0.000090 -0.001028
  3F   1pz       -0.000133 -0.000005  0.000137  0.000017 -0.000008  0.000002
  3F   1px        0.000010  0.000031 -0.000017  0.000002  0.000009  0.000021
  3F   1py       -0.000052 -0.000023  0.000017  0.000010 -0.000011 -0.000049
  3F   2pz       -0.000061  0.000198  0.000010 -0.000078  0.000027  0.000060
  3F   2px        0.000191 -0.000227 -0.000089  0.000236  0.000217 -0.000162
  3F   2py       -0.000118 -0.000365  0.000081  0.000236 -0.000045 -0.000423
  3F   1dz2       0.000016  0.000047  0.000001 -0.000032 -0.000003  0.000038
  3F   1dxz       0.000027  0.000051 -0.000042 -0.000032 -0.000018  0.000021
  3F   1dyz       0.000053  0.000046 -0.000057 -0.000033  0.000013  0.000020
  3F   1dx2y2    -0.000001  0.000014 -0.000000  0.000003  0.000019  0.000020
  3F   1dxy       0.000076  0.000015 -0.000061 -0.000000  0.000018 -0.000015
  4Cl  1s        -0.291829 -0.108738 -0.000613 -0.000136 -0.000006 -0.000002
  4Cl  2s         0.955505  0.356066  0.002420  0.000515  0.000044  0.000020
  4Cl  3s         0.050970  0.018381 -0.003428 -0.000356 -0.000115 -0.000320
  4Cl  4s        -0.023844 -0.006572  0.006896  0.000059 -0.000742  0.001653
  4Cl  1pz       -0.000953 -0.000369  0.719907  0.166835 -0.170560 -0.035418
  4Cl  1px       -0.000517 -0.000207  0.404462  0.092917  0.839967  0.131333
  4Cl  1py       -0.000641 -0.000255  0.479322  0.110784 -0.452242 -0.058686
  4Cl  2pz        0.001238  0.000345 -0.039366 -0.009039  0.009102  0.001824
  4Cl  2px        0.000822  0.000200 -0.022189 -0.005015 -0.044949 -0.007023
  4Cl  2py        0.000789  0.000169 -0.026188 -0.005980  0.024150  0.003064
  4Cl  3pz       -0.003654 -0.000423  0.008784  0.001410 -0.001858  0.000407
  4Cl  3px       -0.002292 -0.000173  0.005111  0.000685  0.007200  0.001461
  4Cl  3py       -0.002333 -0.000040  0.005798  0.000861 -0.004174  0.000089
  4Cl  1dz2      -0.000107 -0.000028  0.000012 -0.000011 -0.000062  0.000033
  4Cl  1dxz      -0.000203  0.000035  0.000061 -0.000068 -0.000000  0.000067
  4Cl  1dyz      -0.000250  0.000068  0.000061 -0.000070 -0.000063  0.000108
  4Cl  1dx2y2    -0.000054 -0.000030  0.000039  0.000006  0.000106 -0.000041
  4Cl  1dxy      -0.000128  0.000054  0.000043 -0.000048 -0.000014  0.000058
  5Cl  1s         0.108728 -0.291833  0.000146 -0.000610  0.000000  0.000007
  5Cl  2s        -0.355972  0.955541 -0.000599  0.002397 -0.000006 -0.000048
  5Cl  3s        -0.019450  0.050569  0.001184 -0.003235  0.000272  0.000207
  5Cl  4s         0.010624 -0.022327 -0.002969  0.006217 -0.001800  0.000209
  5Cl  1pz       -0.000343  0.000959  0.165923 -0.719301  0.024327 -0.169813
  5Cl  1px       -0.000182  0.000526  0.094134 -0.404595 -0.127521  0.839382
  5Cl  1py       -0.000226  0.000651  0.111056 -0.480136  0.069944 -0.453395
  5Cl  2pz        0.000548 -0.001160 -0.009148  0.039295 -0.001362  0.009041
  5Cl  2px        0.000386 -0.000752 -0.005238  0.022160  0.006828 -0.044916
  5Cl  2py        0.000389 -0.000708 -0.006133  0.026200 -0.003803  0.024190
  5Cl  3pz       -0.002065  0.003036  0.002583 -0.008501  0.001004 -0.001618
  5Cl  3px       -0.001368  0.001848  0.001629 -0.004897 -0.000772  0.007296
  5Cl  3py       -0.001498  0.001793  0.001774 -0.005596  0.001254 -0.003994
  5Cl  1dz2       0.000048 -0.000099 -0.000015  0.000007 -0.000050  0.000048
  5Cl  1dxz       0.000159 -0.000131 -0.000088  0.000025 -0.000065 -0.000020
  5Cl  1dyz       0.000215 -0.000146 -0.000090  0.000025 -0.000122  0.000029
  5Cl  1dx2y2     0.000013 -0.000060 -0.000012  0.000037  0.000071 -0.000090
  5Cl  1dxy       0.000125 -0.000062 -0.000063  0.000018 -0.000060 -0.000004
  6F   1s         0.000027  0.000001 -0.000021  0.000008 -0.000019 -0.000002
  6F   2s         0.000288  0.000140 -0.000210 -0.000060 -0.000232 -0.000039
  6F   3s        -0.000871 -0.001392  0.000562  0.001015  0.000987  0.000208
  6F   1pz       -0.000084  0.000104  0.000045 -0.000131  0.000005 -0.000007
  6F   1px       -0.000018 -0.000027 -0.000009  0.000014  0.000019  0.000015
  6F   1py       -0.000017  0.000055 -0.000001 -0.000020 -0.000043 -0.000024
  6F   2pz       -0.000192 -0.000078  0.000076  0.000020  0.000048  0.000043
  6F   2px        0.000295  0.000007 -0.000250 -0.000026 -0.000213  0.000160
  6F   2py        0.000196  0.000332 -0.000175 -0.000179 -0.000388 -0.000168
  6F   1dz2       0.000024  0.000045 -0.000029 -0.000014 -0.000037 -0.000008
  6F   1dxz       0.000021  0.000054 -0.000010 -0.000052 -0.000025  0.000010
  6F   1dyz      -0.000000  0.000071 -0.000005 -0.000066 -0.000015 -0.000018
  6F   1dx2y2     0.000011  0.000008  0.000003  0.000001 -0.000014 -0.000024
  6F   1dxy      -0.000039  0.000067  0.000027 -0.000054  0.000020 -0.000013
  7H   1s        -0.000152 -0.000715  0.000078  0.000690  0.000329  0.000422
  7H   2s         0.000259  0.000025  0.000096  0.000724 -0.000266  0.000046
  7H   1pz        0.000233  0.000194 -0.000165 -0.000085 -0.000258 -0.000105
  7H   1px        0.000194 -0.000008 -0.000149 -0.000049 -0.000141  0.000075
  7H   1py        0.000087  0.000089 -0.000043  0.000071 -0.000088 -0.000086
                     12        13        14        15        16        17   
                  -7.04594  -7.04593  -1.16756  -1.16241  -0.83686  -0.81589
                   2.00000   2.00000   2.00000   2.00000   2.00000   2.00000
                  --------  --------  --------  --------  --------  --------
  0C   1s        -0.000005  0.000021  0.064565  0.049167  0.114352  0.060032
  0C   2s         0.000215 -0.000317 -0.122416 -0.094287 -0.240236 -0.127587
  0C   3s        -0.001721  0.001619 -0.006263  0.003343 -0.033600 -0.014492
  0C   1pz        0.000093 -0.000077 -0.059707 -0.069086  0.063853  0.077761
  0C   1px        0.000002 -0.000003  0.014349  0.034857 -0.032010  0.053513
  0C   1py       -0.000170 -0.000050  0.029494  0.032433  0.011044  0.032192
  0C   2pz       -0.001597 -0.000180 -0.005847 -0.009796  0.017079  0.018499
  0C   2px       -0.000020  0.000489 -0.001240  0.006637 -0.013584  0.009165
  0C   2py        0.002131  0.001531  0.008341  0.005137  0.007565  0.007143
  0C   1dz2      -0.000073 -0.000048 -0.008721 -0.010242  0.000911 -0.003383
  0C   1dxz       0.000052 -0.000071  0.007831  0.006480 -0.006667 -0.003361
  0C   1dyz       0.000051 -0.000011  0.008287  0.008359 -0.006606 -0.005773
  0C   1dx2y2    -0.000034  0.000005 -0.001999  0.001474 -0.003832  0.001965
  0C   1dxy       0.000010  0.000068 -0.004006 -0.003792 -0.001867 -0.002805
  1C   1s         0.000021 -0.000004  0.064501 -0.049239  0.113969 -0.060601
  1C   2s        -0.000330  0.000196 -0.122279  0.094418 -0.239414  0.128785
  1C   3s         0.001734 -0.001582 -0.006390 -0.003324 -0.033632  0.014683
  1C   1pz        0.000084 -0.000090  0.059541 -0.069089 -0.063295  0.078034
  1C   1px        0.000006 -0.000004 -0.014349  0.034934  0.032307  0.053390
  1C   1py        0.000036  0.000171 -0.029561  0.032569 -0.010918  0.032304
  1C   2pz        0.000054  0.001635  0.005812 -0.009782 -0.016968  0.018579
  1C   2px       -0.000510 -0.000010  0.001285  0.006644  0.013676  0.009103
  1C   2py       -0.001359 -0.002222 -0.008350  0.005177 -0.007550  0.007213
  1C   1dz2      -0.000042 -0.000075 -0.008672  0.010218  0.000955  0.003351
  1C   1dxz      -0.000074  0.000046  0.007827 -0.006495 -0.006649  0.003395
  1C   1dyz      -0.000015  0.000050  0.008294 -0.008388 -0.006576  0.005814
  1C   1dx2y2     0.000007 -0.000034 -0.001993 -0.001480 -0.003841 -0.001951
  1C   1dxy       0.000068  0.000016 -0.004021  0.003820 -0.001857  0.002830
  2H   1s        -0.000408 -0.000276 -0.018033 -0.012143 -0.064166 -0.032984
  2H   2s        -0.000043 -0.000978 -0.005833 -0.003179 -0.007442 -0.004485
  2H   1pz        0.000040 -0.000040 -0.000434 -0.000509  0.000134  0.001049
  2H   1px       -0.000123 -0.000027 -0.001816 -0.000512 -0.003261  0.000068
  2H   1py       -0.000148  0.000037  0.004338  0.003135  0.007989  0.004780
  3F   1s        -0.000017 -0.000013 -0.207498 -0.211187  0.057931  0.023325
  3F   2s        -0.000242 -0.000092 -0.418766 -0.427203  0.123207  0.049673
  3F   3s         0.001475  0.000219 -0.270464 -0.273556  0.091583  0.036540
  3F   1pz        0.000088  0.000024 -0.051640 -0.050950 -0.046096 -0.036129
  3F   1px        0.000076  0.000036  0.021225  0.020011  0.022428 -0.009953
  3F   1py        0.000050  0.000017  0.023739  0.023583  0.012649 -0.001021
  3F   2pz        0.000006 -0.000007  0.017873  0.017187  0.023566  0.018226
  3F   2px        0.000419  0.000030 -0.007793 -0.006391 -0.011215  0.005511
  3F   2py        0.000211 -0.000038 -0.009169 -0.008151 -0.009278 -0.000736
  3F   1dz2      -0.000047  0.000013 -0.002772 -0.002748 -0.001483 -0.002168
  3F   1dxz      -0.000038  0.000005  0.002486  0.002261  0.001303 -0.000229
  3F   1dyz      -0.000022  0.000011  0.002869  0.002737  0.000961  0.000286
  3F   1dx2y2     0.000010  0.000004  0.000105  0.000202 -0.000432  0.000475
  3F   1dxy      -0.000010  0.000010 -0.001175 -0.001072 -0.000651  0.000409
  4Cl  1s         0.000000 -0.000001 -0.002958 -0.001799 -0.047376 -0.056540
  4Cl  2s         0.000001  0.000014  0.017861  0.010924  0.295224  0.353021
  4Cl  3s        -0.000048 -0.000135 -0.020583 -0.013629 -0.400156 -0.482438
  4Cl  4s         0.000259  0.000388 -0.014029 -0.008483 -0.192325 -0.229116
  4Cl  1pz        0.619353  0.023701 -0.005122 -0.004169 -0.023009 -0.022507
  4Cl  1px       -0.256208 -0.011461 -0.002195 -0.000343 -0.015461 -0.012540
  4Cl  1py       -0.714207 -0.026789 -0.002045 -0.000940 -0.016421 -0.015772
  4Cl  2pz       -0.033075 -0.001293 -0.007513 -0.006123 -0.037510 -0.037523
  4Cl  2px        0.013689  0.000587 -0.002818 -0.000721 -0.024956 -0.020970
  4Cl  2py        0.038116  0.001418 -0.002646 -0.001357 -0.026638 -0.026062
  4Cl  3pz        0.005449  0.000428 -0.006864 -0.006430 -0.033034 -0.030777
  4Cl  3px       -0.002146  0.000021 -0.004150 -0.000037 -0.021643 -0.016327
  4Cl  3py       -0.006088 -0.000232 -0.004349 -0.001979 -0.024379 -0.022250
  4Cl  1dz2       0.000082  0.000054 -0.002241 -0.002954 -0.004300 -0.005561
  4Cl  1dxz       0.000023  0.000021 -0.001714 -0.000978 -0.010534 -0.008642
  4Cl  1dyz      -0.000026 -0.000005 -0.002084 -0.001463 -0.011796 -0.011304
  4Cl  1dx2y2     0.000011  0.000042 -0.000284  0.000700  0.000611  0.001641
  4Cl  1dxy      -0.000018  0.000008 -0.001378 -0.000040 -0.006997 -0.006110
  5Cl  1s        -0.000001  0.000000 -0.002964  0.001811 -0.047063  0.056821
  5Cl  2s         0.000013  0.000002  0.017893 -0.011002  0.293270 -0.354774
  5Cl  3s        -0.000127 -0.000053 -0.020629  0.013727 -0.397497  0.484818
  5Cl  4s         0.000368  0.000265 -0.014015  0.008513 -0.191067  0.230288
  5Cl  1pz        0.021639 -0.621116  0.005130 -0.004193  0.022822 -0.022588
  5Cl  1px        0.002485  0.259617  0.002200 -0.000352  0.015383 -0.012625
  5Cl  1py       -0.033661  0.711578  0.002052 -0.000951  0.016338 -0.015874
  5Cl  2pz       -0.001129  0.033171  0.007527 -0.006159  0.037204 -0.037653
  5Cl  2px       -0.000109 -0.013869  0.002825 -0.000734  0.024828 -0.021108
  5Cl  2py        0.001808 -0.037975  0.002655 -0.001372  0.026500 -0.026229
  5Cl  3pz       -0.000029 -0.005470  0.006860 -0.006450  0.032774 -0.030904
  5Cl  3px       -0.000092  0.002171  0.004143 -0.000043  0.021542 -0.016451
  5Cl  3py       -0.000284  0.006073  0.004345 -0.001987  0.024268 -0.022406
  5Cl  1dz2       0.000049  0.000085 -0.002241  0.002962 -0.004228  0.005550
  5Cl  1dxz       0.000018  0.000024 -0.001713  0.000984 -0.010470  0.008693
  5Cl  1dyz      -0.000003 -0.000027 -0.002085  0.001470 -0.011724  0.011367
  5Cl  1dx2y2     0.000040  0.000015 -0.000283 -0.000700  0.000609 -0.001652
  5Cl  1dxy       0.000009 -0.000018 -0.001379  0.000044 -0.006972  0.006160
  6F   1s        -0.000011 -0.000018 -0.207227  0.211448  0.057850 -0.023712
  6F   2s        -0.000075 -0.000248 -0.418217  0.427727  0.123028 -0.050491
  6F   3s         0.000112  0.001491 -0.270112  0.273904  0.091500 -0.037199
  6F   1pz       -0.000017 -0.000091  0.051528 -0.050968  0.045949 -0.036516
  6F   1px       -0.000030 -0.000079 -0.021225  0.020063 -0.022491 -0.009810
  6F   1py       -0.000013 -0.000053 -0.023768  0.023674 -0.012680 -0.000929
  6F   2pz        0.000009 -0.000010 -0.017840  0.017200 -0.023483  0.018418
  6F   2px        0.000004 -0.000423  0.007790 -0.006409  0.011248  0.005442
  6F   2py        0.000051 -0.000216  0.009180 -0.008183  0.009288 -0.000799
  6F   1dz2       0.000016 -0.000048 -0.002761  0.002744 -0.001472  0.002181
  6F   1dxz       0.000008 -0.000038  0.002484 -0.002265  0.001303  0.000220
  6F   1dyz       0.000012 -0.000022  0.002871 -0.002745  0.000960 -0.000293
  6F   1dx2y2     0.000003  0.000010  0.000107 -0.000205 -0.000434 -0.000473
  6F   1dxy       0.000010 -0.000009 -0.001178  0.001078 -0.000655 -0.000405
  7H   1s        -0.000238 -0.000421 -0.017999  0.012162 -0.063924  0.033321
  7H   2s        -0.000971 -0.000123 -0.005819  0.003192 -0.007425  0.004531
  7H   1pz        0.000041 -0.000042  0.000435 -0.000511 -0.000127  0.001049
  7H   1px        0.000019  0.000124  0.001815 -0.000517  0.003262  0.000047
  7H   1py       -0.000050  0.000142 -0.004332  0.003140 -0.007955  0.004820
                     18        19        20        21        22        23   
                  -0.70343  -0.62663  -0.55197  -0.53120  -0.50102  -0.49930
                   2.00000   2.00000   2.00000   2.00000   2.00000   2.00000
                  --------  --------  --------  --------  --------  --------
  0C   1s         0.138815  0.130943 -0.000754 -0.001118  0.033637 -0.016568
  0C   2s        -0.303255 -0.298566 -0.004085 -0.006928 -0.070497  0.033015
  0C   3s        -0.058347  0.014555  0.031811  0.026050 -0.076056  0.042012
  0C   1pz       -0.030612 -0.054606 -0.144720 -0.109080  0.189475 -0.101847
  0C   1px       -0.129879  0.101438 -0.000709  0.266263  0.058122 -0.111484
  0C   1py       -0.046198 -0.108340  0.231128  0.023406  0.114659  0.216044
  0C   2pz        0.005203 -0.008074 -0.031656 -0.025355  0.075255 -0.002891
  0C   2px       -0.041461  0.045085 -0.014180  0.092828  0.014346 -0.058153
  0C   2py       -0.005020 -0.048642  0.081883 -0.003128  0.054043  0.068101
  0C   1dz2       0.004111 -0.005169 -0.007612 -0.006346  0.005559 -0.006814
  0C   1dxz       0.003334  0.002238  0.000049  0.012055  0.003064  0.005479
  0C   1dyz       0.003353  0.002859  0.008822  0.005519 -0.003415  0.011326
  0C   1dx2y2    -0.006024  0.004829  0.000919  0.002085  0.001532 -0.001356
  0C   1dxy       0.004281 -0.003284  0.000660 -0.006422 -0.002594 -0.012174
  1C   1s         0.138863 -0.130993  0.000798 -0.001111 -0.033095 -0.017502
  1C   2s        -0.303344  0.298661  0.003985 -0.006966  0.069388  0.034950
  1C   3s        -0.058538 -0.014464 -0.031855  0.026195  0.074740  0.044177
  1C   1pz        0.030526 -0.054566 -0.144587  0.108638  0.186621  0.106933
  1C   1px        0.129800  0.101546 -0.000620 -0.266334  0.054473  0.113083
  1C   1py        0.046151 -0.108252  0.231214 -0.023677  0.120329 -0.212870
  1C   2pz       -0.005211 -0.008071 -0.031631  0.025247  0.075095  0.005005
  1C   2px        0.041507  0.045071 -0.014174 -0.092877  0.012495  0.058634
  1C   2py        0.004987 -0.048789  0.081874  0.003090  0.055826 -0.066545
  1C   1dz2       0.004112  0.005151  0.007588 -0.006308 -0.005397 -0.006955
  1C   1dxz       0.003337 -0.002243 -0.000052  0.012058 -0.003185  0.005396
  1C   1dyz       0.003359 -0.002868 -0.008836  0.005523  0.003132  0.011424
  1C   1dx2y2    -0.006023 -0.004820 -0.000943  0.002084 -0.001504 -0.001369
  1C   1dxy       0.004287  0.003296 -0.000636 -0.006449  0.002917 -0.012108
  2H   1s        -0.104842 -0.187834  0.151246 -0.034475  0.020402  0.203936
  2H   2s        -0.013511 -0.028275  0.013692 -0.002857  0.006997  0.038247
  2H   1pz       -0.001777 -0.002140 -0.002393 -0.002798  0.004232 -0.001152
  2H   1px       -0.006043 -0.003911  0.005355  0.004522  0.002431  0.000582
  2H   1py        0.010228  0.015814 -0.007466  0.004061  0.000490 -0.010385
  3F   1s         0.051270  0.054567  0.040128  0.029918 -0.006560  0.013030
  3F   2s         0.109488  0.117045  0.080657  0.058264 -0.013092  0.024382
  3F   3s         0.093572  0.100919  0.106290  0.082536 -0.018858  0.031333
  3F   1pz       -0.086112 -0.181840 -0.277542 -0.313050 -0.064856 -0.220359
  3F   1px        0.078527  0.035464  0.178598 -0.086686 -0.162524  0.220460
  3F   1py        0.058598  0.148174  0.004026  0.160244 -0.213254 -0.102048
  3F   2pz        0.045725  0.101451  0.154061  0.178527  0.039117  0.130131
  3F   2px       -0.040196 -0.019496 -0.103568  0.053925  0.098886 -0.127768
  3F   2py       -0.034259 -0.082920  0.001792 -0.090199  0.126253  0.066590
  3F   1dz2      -0.000483 -0.002952 -0.004697 -0.006180 -0.005087 -0.003595
  3F   1dxz       0.003818  0.001255  0.005499 -0.001809 -0.002351  0.005745
  3F   1dyz       0.002971  0.005986  0.000172  0.005245 -0.003636 -0.002642
  3F   1dx2y2    -0.000491  0.002489 -0.002818  0.003305 -0.000514 -0.003642
  3F   1dxy      -0.001715 -0.001633 -0.000947  0.000620  0.003669 -0.001129
  4Cl  1s         0.039592  0.017830  0.000146  0.001770  0.020650 -0.003727
  4Cl  2s        -0.249550 -0.113032 -0.000899 -0.011220 -0.132207  0.023945
  4Cl  3s         0.349319  0.161983  0.000749  0.016194  0.187666 -0.035755
  4Cl  4s         0.180034  0.071152  0.000626  0.006408  0.152100 -0.021072
  4Cl  1pz       -0.010983 -0.023109 -0.013312 -0.022259 -0.080289  0.003002
  4Cl  1px       -0.014234 -0.002186 -0.003582  0.023593 -0.053763 -0.004865
  4Cl  1py       -0.009347 -0.023813  0.022560 -0.003868 -0.046177  0.035254
  4Cl  2pz       -0.016651 -0.038093 -0.023200 -0.037592 -0.137451  0.005260
  4Cl  2px       -0.022462 -0.003767 -0.005738  0.039866 -0.091482 -0.008803
  4Cl  2py       -0.014270 -0.038723  0.037964 -0.007042 -0.079458  0.059435
  4Cl  3pz       -0.018008 -0.045827 -0.021517 -0.044145 -0.132240  0.001566
  4Cl  3px       -0.020761 -0.006877 -0.006344  0.038832 -0.090004 -0.004641
  4Cl  3py       -0.016090 -0.044997  0.038571 -0.005124 -0.072252  0.067527
  4Cl  1dz2       0.001655 -0.005427 -0.010436 -0.012486 -0.009220 -0.007229
  4Cl  1dxz      -0.005617 -0.002230 -0.004358  0.005147 -0.014344 -0.003838
  4Cl  1dyz      -0.003616 -0.012301  0.005717 -0.006119 -0.013640  0.011149
  4Cl  1dx2y2    -0.001790  0.007539 -0.006696  0.005853 -0.002333 -0.009455
  4Cl  1dxy      -0.003788 -0.003561  0.005149  0.005565 -0.010333  0.002482
  5Cl  1s         0.039573 -0.017832 -0.000179  0.001826 -0.020515 -0.004275
  5Cl  2s        -0.249430  0.113046  0.001106 -0.011573  0.131345  0.027453
  5Cl  3s         0.349132 -0.161998 -0.001024  0.016683 -0.186428 -0.040744
  5Cl  4s         0.179995 -0.071137 -0.000858  0.006757 -0.151151 -0.025181
  5Cl  1pz        0.010965 -0.023087 -0.013411  0.022436 -0.079946 -0.005115
  5Cl  1px        0.014230 -0.002210 -0.003646 -0.023460 -0.053895  0.003403
  5Cl  1py        0.009360 -0.023834  0.022472  0.003988 -0.045215 -0.036476
  5Cl  2pz        0.016630 -0.038063 -0.023375  0.037899 -0.136855 -0.008875
  5Cl  2px        0.022457 -0.003805 -0.005844 -0.039639 -0.091719  0.006312
  5Cl  2py        0.014289 -0.038756  0.037814  0.007245 -0.077836 -0.061537
  5Cl  3pz        0.017948 -0.045787 -0.021651  0.044441 -0.131831 -0.005019
  5Cl  3px        0.020752 -0.006937 -0.006461 -0.038604 -0.090146  0.002218
  5Cl  3py        0.016111 -0.045060  0.038436  0.005337 -0.070432 -0.069415
  5Cl  1dz2       0.001667  0.005403  0.010441 -0.012496  0.009342 -0.006999
  5Cl  1dxz      -0.005608  0.002244  0.004389  0.005086  0.014421 -0.003466
  5Cl  1dyz      -0.003617  0.012305 -0.005665 -0.006171  0.013306  0.011478
  5Cl  1dx2y2    -0.001785 -0.007541  0.006698  0.005851  0.002590 -0.009389
  5Cl  1dxy      -0.003792  0.003570 -0.005131  0.005540  0.010285  0.002761
  6F   1s         0.051214 -0.054558 -0.040139  0.029903  0.006201  0.013214
  6F   2s         0.109361 -0.117031 -0.080681  0.058243  0.012423  0.024756
  6F   3s         0.093503 -0.100858 -0.106312  0.082449  0.017966  0.031831
  6F   1pz        0.085893 -0.181605 -0.277418  0.312825 -0.070797  0.218376
  6F   1px       -0.078535  0.035555  0.178808  0.086615 -0.155897 -0.225223
  6F   1py       -0.058694  0.148404  0.004515 -0.160395 -0.215926  0.095536
  6F   2pz       -0.045590  0.101332  0.154007 -0.178427  0.042613 -0.128958
  6F   2px        0.040201 -0.019554 -0.103682 -0.053886  0.095034  0.130666
  6F   2py        0.034321 -0.083049  0.001529  0.090278  0.127990 -0.062727
  6F   1dz2      -0.000471  0.002938  0.004688 -0.006173  0.005180 -0.003447
  6F   1dxz       0.003814 -0.001258 -0.005501 -0.001801  0.002173  0.005810
  6F   1dyz       0.002973 -0.005989 -0.000187  0.005248  0.003696 -0.002526
  6F   1dx2y2    -0.000489 -0.002494  0.002819  0.003310  0.000623 -0.003631
  6F   1dxy      -0.001719  0.001637  0.000957  0.000622 -0.003635 -0.001240
  7H   1s        -0.104833  0.187863 -0.151240 -0.034477 -0.025969  0.203376
  7H   2s        -0.013531  0.028205 -0.013692 -0.002866 -0.007987  0.038033
  7H   1pz        0.001775 -0.002139 -0.002393  0.002789  0.004204  0.001271
  7H   1px        0.006045 -0.003920  0.005362 -0.004518  0.002438 -0.000539
  7H   1py       -0.010226  0.015820 -0.007464 -0.004069  0.000198  0.010396
                     24        25        26        27        28        29   
                  -0.47056  -0.42499  -0.38954  -0.37749  -0.37112  -0.32982
                   2.00000   2.00000   2.00000   2.00000   2.00000   2.00000
                  --------  --------  --------  --------  --------  --------
  0C   1s        -0.022215 -0.043638  0.003134 -0.020378  0.013254  0.007209
  0C   2s         0.049100  0.102916 -0.006176  0.063942 -0.026096 -0.019847
  0C   3s         0.046085  0.139623 -0.037829  0.025987 -0.026299 -0.042671
  0C   1pz       -0.153127 -0.071718  0.072767 -0.004100 -0.091525 -0.004116
  0C   1px       -0.044291  0.025224  0.007911  0.204534 -0.099746 -0.032489
  0C   1py       -0.079730  0.026581  0.137330 -0.099869 -0.157088 -0.026018
  0C   2pz       -0.085309 -0.005251  0.022944  0.086512 -0.018037  0.044811
  0C   2px       -0.037669  0.090408 -0.017838  0.060486 -0.023867 -0.056036
  0C   2py       -0.095413 -0.009604  0.049631 -0.023554  0.015668 -0.008770
  0C   1dz2      -0.012709  0.005770 -0.016556 -0.004549  0.019947 -0.008084
  0C   1dxz       0.009786  0.017650  0.001981 -0.011245  0.011554  0.010799
  0C   1dyz       0.002143 -0.000632 -0.015060  0.012157  0.013647  0.005678
  0C   1dx2y2    -0.001398 -0.010937 -0.005446  0.012879  0.003797  0.004943
  0C   1dxy       0.009015 -0.005301  0.005845  0.006595  0.007770  0.004217
  1C   1s        -0.022141  0.043698 -0.003119 -0.020385  0.013233 -0.007349
  1C   2s         0.048918 -0.103015  0.006020  0.063973 -0.026042  0.020190
  1C   3s         0.045913 -0.139786  0.038194  0.025843 -0.026030  0.042764
  1C   1pz        0.153248 -0.071780  0.072877  0.004390  0.091861 -0.004384
  1C   1px        0.044272  0.025223  0.008387 -0.204493  0.099652 -0.032583
  1C   1py        0.079617  0.026790  0.136719  0.100402  0.157194 -0.026454
  1C   2pz        0.085347 -0.005373  0.023459 -0.086411  0.018378  0.044303
  1C   2px        0.037692  0.090350 -0.017494 -0.060433  0.023710 -0.056082
  1C   2py        0.095347 -0.009894  0.049879  0.023744 -0.015586 -0.008517
  1C   1dz2      -0.012762 -0.005725  0.016530 -0.004483  0.019988  0.007931
  1C   1dxz       0.009778 -0.017642 -0.001954 -0.011205  0.011541 -0.010796
  1C   1dyz       0.002172  0.000636  0.014967  0.012199  0.013642 -0.005657
  1C   1dx2y2    -0.001406  0.010964  0.005408  0.012913  0.003788 -0.004990
  1C   1dxy       0.009043  0.005323 -0.005871  0.006594  0.007759 -0.004226
  2H   1s        -0.004452  0.082653  0.123634 -0.144811 -0.150260 -0.022992
  2H   2s         0.013841  0.015983  0.025262 -0.068459 -0.080816 -0.001876
  2H   1pz       -0.003140 -0.003451  0.000481  0.000681 -0.002417  0.000012
  2H   1px        0.000964  0.000036  0.004538  0.002629 -0.006350 -0.000908
  2H   1py        0.000203 -0.004510 -0.002777  0.006960  0.003694  0.000914
  3F   1s         0.003950  0.000699 -0.001079 -0.001038  0.000641 -0.012412
  3F   2s         0.006829  0.001408 -0.004579  0.002795 -0.001046 -0.028946
  3F   3s         0.011039 -0.003596  0.005954 -0.039571  0.021654 -0.040562
  3F   1pz        0.068726 -0.166679  0.172051  0.008329 -0.130445 -0.096605
  3F   1px        0.178311 -0.396861  0.026722  0.334766 -0.131957 -0.002231
  3F   1py        0.319973  0.160031  0.364225 -0.173994 -0.216191 -0.022914
  3F   2pz       -0.042395  0.106274 -0.118477 -0.000926  0.084048  0.070627
  3F   2px       -0.108207  0.253320 -0.016059 -0.228019  0.092383  0.003053
  3F   2py       -0.192370 -0.100226 -0.243099  0.107814  0.141443  0.011400
  3F   1dz2       0.004772 -0.002504  0.002075  0.000232 -0.000211 -0.000665
  3F   1dxz       0.002293 -0.004614 -0.000101  0.001613  0.000086  0.001869
  3F   1dyz       0.004546  0.002565  0.002017 -0.000103 -0.000073  0.001222
  3F   1dx2y2     0.001576  0.002553  0.001269 -0.000693  0.000378  0.000692
  3F   1dxy      -0.003469  0.001623 -0.000923 -0.000081  0.001225  0.000771
  4Cl  1s        -0.011816 -0.002788  0.003187  0.000703 -0.003736  0.000199
  4Cl  2s         0.075449  0.017590 -0.019918 -0.004667  0.023722 -0.001458
  4Cl  3s        -0.096920 -0.017347  0.012950  0.007191 -0.029598  0.004924
  4Cl  4s        -0.136694 -0.035534  0.065889  0.031361 -0.019427  0.003759
  4Cl  1pz        0.081302  0.025006 -0.055450  0.005514  0.097639  0.136233
  4Cl  1px        0.023718  0.026032 -0.073841  0.052430  0.068160 -0.142348
  4Cl  1py        0.037463  0.036045 -0.031502 -0.064092  0.082192 -0.024667
  4Cl  2pz        0.140498  0.044083 -0.099050  0.008820  0.172584  0.238004
  4Cl  2px        0.043121  0.046547 -0.129005  0.091871  0.117906 -0.247686
  4Cl  2py        0.066410  0.062393 -0.055883 -0.110738  0.143207 -0.042697
  4Cl  3pz        0.130432  0.045229 -0.094277  0.025952  0.202425  0.300052
  4Cl  3px        0.021953  0.041474 -0.144756  0.112035  0.154722 -0.310858
  4Cl  3py        0.049169  0.073846 -0.058852 -0.125445  0.177398 -0.051736
  4Cl  1dz2       0.012838 -0.002241 -0.000197  0.001630  0.007222  0.009133
  4Cl  1dxz       0.008993  0.008655 -0.014021  0.009560  0.012677 -0.001704
  4Cl  1dyz       0.010911  0.008918 -0.007988 -0.006455  0.014920  0.004233
  4Cl  1dx2y2    -0.003785 -0.005123 -0.004870  0.012995  0.000363 -0.002792
  4Cl  1dxy       0.004286  0.004779 -0.005959  0.002618  0.009355 -0.005297
  5Cl  1s        -0.011830  0.002781 -0.003180  0.000690 -0.003739 -0.000201
  5Cl  2s         0.075544 -0.017546  0.019876 -0.004581  0.023738  0.001478
  5Cl  3s        -0.097115  0.017261 -0.012842  0.007119 -0.029571 -0.004978
  5Cl  4s        -0.136596  0.035684 -0.066296  0.031097 -0.019679 -0.003652
  5Cl  1pz       -0.081292  0.024842 -0.055044 -0.005860 -0.097213  0.135615
  5Cl  1px       -0.023768  0.026067 -0.073690 -0.052572 -0.068636 -0.141591
  5Cl  1py       -0.037533  0.036040 -0.031957  0.063777 -0.082760 -0.023186
  5Cl  2pz       -0.140464  0.043799 -0.098353 -0.009434 -0.171853  0.236930
  5Cl  2px       -0.043205  0.046608 -0.128747 -0.092123 -0.118737 -0.246360
  5Cl  2py       -0.066534  0.062388 -0.056670  0.110191 -0.144194 -0.040111
  5Cl  3pz       -0.130560  0.044819 -0.093226 -0.026578 -0.201420  0.298653
  5Cl  3px       -0.022052  0.041510 -0.144346 -0.112303 -0.155678 -0.309209
  5Cl  3py       -0.049263  0.073789 -0.059698  0.124774 -0.178584 -0.048508
  5Cl  1dz2       0.012826  0.002296  0.000083  0.001641  0.007089 -0.009062
  5Cl  1dxz       0.008989 -0.008654  0.013954  0.009572  0.012713  0.001664
  5Cl  1dyz       0.010910 -0.008888  0.008030 -0.006378  0.014973 -0.004290
  5Cl  1dx2y2    -0.003786  0.005133  0.004799  0.012997  0.000345  0.002812
  5Cl  1dxy       0.004305 -0.004789  0.005983  0.002650  0.009432  0.005230
  6F   1s         0.003950 -0.000698  0.001067 -0.001039  0.000665  0.012389
  6F   2s         0.006831 -0.001413  0.004555  0.002791 -0.000985  0.028928
  6F   3s         0.011003  0.003676 -0.006012 -0.039538  0.021741  0.040209
  6F   1pz       -0.069618 -0.166675  0.172458 -0.007683  0.131188 -0.096093
  6F   1px       -0.178820 -0.396469  0.027088 -0.334606  0.132240 -0.002056
  6F   1py       -0.320290  0.160920  0.362737  0.175213  0.216272 -0.023070
  6F   2pz        0.042949  0.106310 -0.118806  0.000511 -0.084566  0.070288
  6F   2px        0.108534  0.253077 -0.016357  0.227921 -0.092591  0.003021
  6F   2py        0.192584 -0.100759 -0.242188 -0.108613 -0.141560  0.011541
  6F   1dz2       0.004795  0.002500 -0.002080  0.000228 -0.000214  0.000659
  6F   1dxz       0.002291  0.004605  0.000100  0.001612  0.000079 -0.001876
  6F   1dyz       0.004536 -0.002572 -0.002007 -0.000107 -0.000076 -0.001225
  6F   1dx2y2     0.001579 -0.002560 -0.001267 -0.000699  0.000375 -0.000701
  6F   1dxy      -0.003481 -0.001621  0.000919 -0.000080  0.001225 -0.000771
  7H   1s        -0.004433 -0.082991 -0.122812 -0.145405 -0.150261  0.023766
  7H   2s         0.013837 -0.016251 -0.024911 -0.068533 -0.080781  0.002410
  7H   1pz        0.003147 -0.003453  0.000493 -0.000669  0.002431 -0.000008
  7H   1px       -0.000966  0.000058  0.004534 -0.002604  0.006362 -0.000941
  7H   1py       -0.000208 -0.004516 -0.002741 -0.006973 -0.003678  0.000929
                     30        31        32        33        34        35   
                  -0.31961  -0.31781  -0.30715  -0.05508  -0.00616  -0.00202
                   2.00000   2.00000   2.00000   0.00000   0.00000   0.00000
                  --------  --------  --------  --------  --------  --------
  0C   1s        -0.004603  0.022636 -0.025770  0.069613  0.106337  0.044209
  0C   2s         0.009284 -0.049818  0.074217 -0.179065 -0.306817 -0.128812
  0C   3s        -0.003479 -0.115574  0.070161 -0.527373 -0.746721  0.329551
  0C   1pz        0.007521 -0.003162 -0.000927  0.342005  0.269767 -0.176628
  0C   1px       -0.031730 -0.011090  0.175971  0.073339  0.217833  0.165595
  0C   1py        0.028979 -0.066981 -0.064441  0.160646  0.115342  0.251895
  0C   2pz        0.042984 -0.006482 -0.024069  0.391692  0.557467 -0.309727
  0C   2px       -0.005841 -0.036843  0.031449 -0.032292  0.328457  0.423828
  0C   2py       -0.014781 -0.018162 -0.013781  0.179898 -0.015900  0.426136
  0C   1dz2      -0.009403  0.007916 -0.003770 -0.003721  0.002130  0.024077
  0C   1dxz       0.003863  0.004925  0.001601  0.026789 -0.009321 -0.021896
  0C   1dyz       0.005554 -0.005020 -0.003083  0.012994  0.007971 -0.015439
  0C   1dx2y2    -0.005681  0.010194  0.017579  0.001832 -0.010325  0.000664
  0C   1dxy       0.000063 -0.000035  0.003863  0.014640  0.000380  0.033625
  1C   1s        -0.004489 -0.022569 -0.025881 -0.069892  0.103893 -0.048488
  1C   2s         0.008984  0.049654  0.074478  0.179781 -0.299894  0.141079
  1C   3s        -0.003907  0.115261  0.070529  0.529530 -0.753487 -0.297039
  1C   1pz       -0.007353 -0.003084  0.000976  0.343839 -0.275289 -0.165607
  1C   1px        0.031957 -0.010625 -0.176058  0.074023 -0.210422  0.174126
  1C   1py       -0.028449 -0.066900  0.064192  0.161159 -0.104625  0.255522
  1C   2pz       -0.043234 -0.006712  0.024055  0.394426 -0.567486 -0.286024
  1C   2px        0.006225 -0.036819 -0.031607 -0.031166 -0.311817  0.437119
  1C   2py        0.014963 -0.018176  0.013752  0.180517  0.033020  0.423713
  1C   1dz2      -0.009399 -0.007883 -0.003779  0.003753  0.001163 -0.024026
  1C   1dxz       0.003941 -0.004915  0.001581 -0.026737 -0.008524  0.022268
  1C   1dyz       0.005593  0.005054 -0.003078 -0.013068  0.008546  0.015127
  1C   1dx2y2    -0.005613 -0.010230  0.017542 -0.001794 -0.010344 -0.000195
  1C   1dxy       0.000073  0.000029  0.003875 -0.014632 -0.001029 -0.033635
  2H   1s         0.063233 -0.096824 -0.122147 -0.002678  0.080536 -0.124378
  2H   2s         0.042981  0.003590 -0.092121  0.018176  0.626801 -0.494852
  2H   1pz        0.001509 -0.002210 -0.002012  0.011511  0.008052 -0.012529
  2H   1px        0.001491 -0.001666 -0.000576  0.004953  0.009285  0.020532
  2H   1py       -0.001577  0.002877  0.003841  0.004031  0.009631 -0.000828
  3F   1s        -0.006179  0.005510  0.000335 -0.016066  0.001649  0.065617
  3F   2s        -0.011940  0.013150  0.001657 -0.036032  0.009084  0.139457
  3F   3s        -0.034885  0.017632 -0.002935 -0.076635 -0.047488  0.389371
  3F   1pz       -0.118270  0.039372 -0.027235 -0.002331  0.082613  0.213377
  3F   1px       -0.087899 -0.003871  0.074101  0.069576  0.034919 -0.096217
  3F   1py       -0.021569 -0.026579 -0.067685  0.079818  0.027607 -0.073000
  3F   2pz        0.077767 -0.025860  0.017750 -0.008304 -0.064023 -0.237763
  3F   2px        0.050831  0.005541 -0.053871 -0.068331 -0.056434  0.080031
  3F   2py        0.009158  0.020629  0.044937 -0.090090 -0.040510  0.067211
  3F   1dz2      -0.000742  0.000533 -0.000381 -0.004172 -0.006161 -0.002448
  3F   1dxz       0.000082 -0.000235 -0.000999 -0.000943 -0.000907  0.002495
  3F   1dyz       0.000463 -0.000268  0.000181 -0.002043  0.001678  0.001311
  3F   1dx2y2    -0.000949  0.000904  0.001544 -0.000057 -0.001747 -0.001800
  3F   1dxy       0.000378 -0.000168  0.000415  0.003466  0.002609  0.002247
  4Cl  1s        -0.000192 -0.000044  0.000205  0.017766  0.011057  0.005244
  4Cl  2s         0.001261  0.000247 -0.001400 -0.118150 -0.072289 -0.034894
  4Cl  3s        -0.002656 -0.000380  0.006396  0.166788  0.052411  0.046558
  4Cl  4s         0.007056  0.003503 -0.021048  0.370835  0.480379  0.100499
  4Cl  1pz        0.130970 -0.051103  0.017962  0.089500  0.079795  0.053441
  4Cl  1px       -0.063378 -0.078846 -0.166505  0.085219  0.021483 -0.010836
  4Cl  1py       -0.131070  0.176652  0.080431  0.071374  0.069256 -0.000273
  4Cl  2pz        0.228920 -0.088896  0.031835  0.152763  0.130034  0.090861
  4Cl  2px       -0.111152 -0.137484 -0.290418  0.149029  0.031212 -0.020921
  4Cl  2py       -0.228990  0.308361  0.140680  0.123459  0.116372  0.000346
  4Cl  3pz        0.291222 -0.113713  0.031236  0.387183  0.422443  0.235494
  4Cl  3px       -0.136227 -0.175049 -0.384119  0.328765  0.161647 -0.033396
  4Cl  3py       -0.287043  0.396368  0.176321  0.290482  0.340806 -0.006466
  4Cl  1dz2       0.005191 -0.001969 -0.000415 -0.006444 -0.042329 -0.052557
  4Cl  1dxz      -0.000036 -0.002858  0.000273 -0.053060 -0.040019 -0.016120
  4Cl  1dyz       0.000194  0.003649 -0.001161 -0.047597 -0.080045 -0.015900
  4Cl  1dx2y2     0.000740 -0.003053  0.002793 -0.006191  0.029257 -0.001189
  4Cl  1dxy      -0.004402  0.000853  0.000967 -0.038941 -0.040695  0.029425
  5Cl  1s        -0.000185  0.000046  0.000206 -0.017805  0.010747 -0.005650
  5Cl  2s         0.001209 -0.000261 -0.001406  0.118401 -0.070225  0.037530
  5Cl  3s        -0.002514  0.000401  0.006416 -0.166918  0.049688 -0.047940
  5Cl  4s         0.006981 -0.003361 -0.021063 -0.372678  0.473599 -0.120675
  5Cl  1pz       -0.132276 -0.051625 -0.018132  0.089645 -0.076956  0.056389
  5Cl  1px        0.064430 -0.079389  0.166276  0.085365 -0.021626 -0.009949
  5Cl  1py        0.130682  0.177014 -0.079945  0.071872 -0.069051  0.002619
  5Cl  2pz       -0.231210 -0.089810 -0.032131  0.152968 -0.125216  0.095599
  5Cl  2px        0.112982 -0.138431  0.290012  0.149253 -0.031545 -0.019645
  5Cl  2py        0.228307  0.308991 -0.139832  0.124318 -0.116000  0.005191
  5Cl  3pz       -0.294060 -0.114927 -0.031629  0.388182 -0.409699  0.252029
  5Cl  3px        0.138560 -0.176312  0.383628  0.329649 -0.161613 -0.026527
  5Cl  3py        0.286168  0.397126 -0.175213  0.292539 -0.339899  0.008020
  5Cl  1dz2       0.005220  0.001989 -0.000413  0.006343 -0.039804  0.053962
  5Cl  1dxz      -0.000013  0.002880  0.000275  0.053148 -0.039052  0.017793
  5Cl  1dyz       0.000264 -0.003626 -0.001160  0.047883 -0.079053  0.019354
  5Cl  1dx2y2     0.000722  0.003068  0.002791  0.006012  0.029368 -0.000037
  5Cl  1dxy      -0.004423 -0.000848  0.000969  0.039218 -0.041738 -0.027574
  6F   1s        -0.006292 -0.005533  0.000322  0.016128 -0.000999 -0.065533
  6F   2s        -0.012201 -0.013206  0.001630  0.036177  0.003430 -0.139459
  6F   3s        -0.035210 -0.017679 -0.002997  0.076893 -0.062846 -0.386822
  6F   1pz        0.119367  0.039673  0.027347 -0.002196 -0.073731  0.216053
  6F   1px        0.088087 -0.003585 -0.073867  0.069583 -0.038539 -0.094944
  6F   1py        0.022316 -0.026178  0.067448  0.080127 -0.030106 -0.072454
  6F   2pz       -0.078562 -0.026053 -0.017831 -0.008498  0.054261 -0.239678
  6F   2px       -0.050969  0.005353  0.053738 -0.068471  0.059382  0.077863
  6F   2py       -0.009635  0.020384 -0.044776 -0.090461  0.042798  0.066133
  6F   1dz2      -0.000751 -0.000535 -0.000384  0.004196 -0.006039  0.002678
  6F   1dxz       0.000101  0.000239 -0.000994  0.000933 -0.000984 -0.002467
  6F   1dyz       0.000481  0.000277  0.000181  0.002028  0.001651 -0.001413
[...]
     19      -0.000234   0.000024  -0.000012  -0.000013   0.000233  -0.000120
     20      -0.000023  -0.000012   0.000140  -0.000096  -0.000120  -0.000622
     21      -0.000256   0.000033  -0.000174   0.000189  -0.000131  -0.000087
     22       0.000033   0.000068   0.000017  -0.000131  -0.000445  -0.000442
     23      -0.000174   0.000017  -0.000022  -0.000087  -0.000442  -0.000081
                 18         19         20         21         22         23    
      0      -0.000311  -0.000114   0.000323  -0.000207   0.000188   0.000001
      1      -0.000114   0.000171   0.000073   0.000188  -0.000019  -0.000000
      2       0.000323   0.000073  -0.000008   0.000001  -0.000000   0.000097
      3       0.000769  -0.000314   0.000676   0.000657   0.000544  -0.000041
      4      -0.000314   0.000629   0.000843   0.000544  -0.000902   0.000130
      5       0.000676   0.000843  -0.000792  -0.000041   0.000130   0.000819
      6      -0.000386   0.000141   0.000271  -0.000010   0.000013  -0.000000
      7       0.000141   0.000108  -0.000072   0.000013  -0.000010   0.000000
      8       0.000271  -0.000072   0.000007  -0.000000   0.000000   0.000004
      9      -0.000092  -0.000098   0.000240  -0.000386   0.000141   0.000271
     10      -0.000098   0.000106   0.000098   0.000141   0.000108  -0.000072
     11       0.000240   0.000098  -0.000095   0.000271  -0.000072   0.000007
     12      -0.000329  -0.000234  -0.000023  -0.000256   0.000033  -0.000174
     13      -0.000234   0.000024  -0.000012   0.000033   0.000068   0.000017
     14      -0.000023  -0.000012   0.000140  -0.000174   0.000017  -0.000022
     15       0.000239  -0.000013  -0.000096   0.000189  -0.000131  -0.000087
     16      -0.000013   0.000233  -0.000120  -0.000131  -0.000445  -0.000442
     17      -0.000096  -0.000120  -0.000622  -0.000087  -0.000442  -0.000081
     18      -0.000318   0.000691  -0.001436   0.000428  -0.000059   0.000046
     19       0.000691  -0.000802  -0.001513  -0.000059  -0.000469   0.000704
     20      -0.001436  -0.001513   0.001487   0.000046   0.000704  -0.000118
     21       0.000428  -0.000059   0.000046  -0.000416  -0.000730  -0.000014
     22      -0.000059  -0.000469   0.000704  -0.000730   0.001670  -0.000338
     23       0.000046   0.000704  -0.000118  -0.000014  -0.000338  -0.000706

done   (      0.1 sec)
Dipol derivatives                                ... done   (      0.2 sec)

-------
TIMINGS
-------

Total SCF Hessian time: 0 days 0 hours 0 min 19 sec 
                   F(y)            G[Q(x)]           CPSCF         Total
Table01         0.5  0.03         0.5  0.02         9.1  0.48        19.0 
Table01a        0.5  0.03,        0.5, 0.02,        9.1  0.48        19.0 
Table01b        0.5   2.8,        0.5,  2.5,        9.1  47.9        19.0 

Writing the Hessian file to the disk             ... done


Maximum memory used throughout the entire calculation: 133.6 MB

-----------------------
VIBRATIONAL FREQUENCIES
-----------------------

Scaling factor for frequencies =  1.000000000  (already applied!)

   0:         0.00 cm**-1
   1:         0.00 cm**-1
   2:         0.00 cm**-1
   3:         0.00 cm**-1
   4:         0.00 cm**-1
   5:         0.00 cm**-1
   6:        71.67 cm**-1
   7:       164.86 cm**-1
   8:       258.29 cm**-1
   9:       350.47 cm**-1
  10:       369.70 cm**-1
  11:       381.54 cm**-1
  12:       499.20 cm**-1
  13:       717.64 cm**-1
  14:       768.21 cm**-1
  15:      1027.49 cm**-1
  16:      1072.94 cm**-1
  17:      1083.88 cm**-1
  18:      1168.83 cm**-1
  19:      1245.96 cm**-1
  20:      1282.10 cm**-1
  21:      1347.34 cm**-1
  22:      2985.49 cm**-1
  23:      2995.83 cm**-1


------------
NORMAL MODES
------------

These modes are the Cartesian displacements weighted by the diagonal matrix
M(i,i)=1/sqrt(m[i]) where m[i] is the mass of the displaced atom
Thus, these vectors are normalized but *not* orthogonal

                  0          1          2          3          4          5    
      0       0.000000   0.000000   0.000000   0.000000   0.000000   0.000000
      1       0.000000   0.000000   0.000000   0.000000   0.000000   0.000000
      2       0.000000   0.000000   0.000000   0.000000   0.000000   0.000000
      3       0.000000   0.000000   0.000000   0.000000   0.000000   0.000000
      4       0.000000   0.000000   0.000000   0.000000   0.000000   0.000000
      5       0.000000   0.000000   0.000000   0.000000   0.000000   0.000000
      6       0.000000   0.000000   0.000000   0.000000   0.000000   0.000000
      7       0.000000   0.000000   0.000000   0.000000   0.000000   0.000000
      8       0.000000   0.000000   0.000000   0.000000   0.000000   0.000000
      9       0.000000   0.000000   0.000000   0.000000   0.000000   0.000000
     10       0.000000   0.000000   0.000000   0.000000   0.000000   0.000000
     11       0.000000   0.000000   0.000000   0.000000   0.000000   0.000000
     12       0.000000   0.000000   0.000000   0.000000   0.000000   0.000000
     13       0.000000   0.000000   0.000000   0.000000   0.000000   0.000000
     14       0.000000   0.000000   0.000000   0.000000   0.000000   0.000000
     15       0.000000   0.000000   0.000000   0.000000   0.000000   0.000000
     16       0.000000   0.000000   0.000000   0.000000   0.000000   0.000000
     17       0.000000   0.000000   0.000000   0.000000   0.000000   0.000000
     18       0.000000   0.000000   0.000000   0.000000   0.000000   0.000000
     19       0.000000   0.000000   0.000000   0.000000   0.000000   0.000000
     20       0.000000   0.000000   0.000000   0.000000   0.000000   0.000000
     21       0.000000   0.000000   0.000000   0.000000   0.000000   0.000000
     22       0.000000   0.000000   0.000000   0.000000   0.000000   0.000000
     23       0.000000   0.000000   0.000000   0.000000   0.000000   0.000000
                  6          7          8          9         10         11    
      0      -0.019588  -0.188319  -0.079406   0.023053   0.244749   0.063786
      1       0.116033   0.005956  -0.083686  -0.041525  -0.208302   0.231116
      2      -0.134970   0.200661  -0.146433  -0.068253   0.005438  -0.147826
      3      -0.019611  -0.188355   0.079587  -0.022698   0.244823   0.063772
      4       0.116022   0.005870   0.083508   0.041486  -0.208204   0.231112
      5      -0.134976   0.200603   0.146490   0.068168   0.005408  -0.147889
      6      -0.015117  -0.217231  -0.116213  -0.116091   0.591779   0.028847
      7       0.095483  -0.005971  -0.098298  -0.106111  -0.104896   0.241827
      8      -0.430947   0.169922  -0.196764  -0.271913  -0.107870   0.014416
      9      -0.079128  -0.475019  -0.303321   0.412712  -0.128486  -0.140065
     10       0.429910  -0.051246  -0.179223   0.208706   0.064377  -0.194187
     11      -0.020222   0.056771  -0.290242   0.136659  -0.022509  -0.461230
     12       0.049483   0.324585  -0.396343  -0.152431  -0.030881   0.052583
     13      -0.272393   0.025647  -0.181825  -0.092305   0.039068   0.018871
     14       0.068818  -0.103195  -0.069573  -0.360162   0.013365   0.296956
     15       0.049470   0.324494   0.396391   0.152462  -0.030986   0.052480
     16      -0.272397   0.025613   0.181847   0.092371   0.039001   0.018808
     17       0.068820  -0.103237   0.069548   0.360419   0.013272   0.296684
     18      -0.079145  -0.475060   0.303092  -0.413035  -0.128381  -0.139700
     19       0.429904  -0.051252   0.179300  -0.208810   0.064389  -0.194018
     20      -0.020232   0.056744   0.290256  -0.137082  -0.022603  -0.461147
     21      -0.015130  -0.217278   0.116691   0.116842   0.591832   0.028763
     22       0.095470  -0.006056   0.098220   0.106215  -0.104819   0.241776
     23      -0.430950   0.169833   0.196692   0.271824  -0.107959   0.014192
                 12         13         14         15         16         17    
      0       0.115001   0.260074   0.070073   0.386433   0.177407   0.160859
      1       0.149649   0.310891   0.290703  -0.258953   0.077240   0.222567
      2      -0.232962   0.305997   0.236147   0.203618  -0.197411  -0.385158
      3      -0.114829   0.259993  -0.069843  -0.386393  -0.177359   0.161266
      4      -0.149727   0.311332  -0.290569   0.258952  -0.077192   0.222438
      5       0.232984   0.306244  -0.235912  -0.203875   0.197252  -0.385249
      6       0.263289   0.152736   0.264768   0.380415   0.562237   0.225202
      7       0.201982   0.284362   0.365269  -0.294954   0.191268   0.258924
      8      -0.271960   0.332552   0.380188  -0.014059  -0.215930  -0.243089
      9       0.274654  -0.039947  -0.006610  -0.021224  -0.039879  -0.108920
     10       0.020693  -0.042936  -0.032666   0.057335  -0.078141  -0.140770
     11      -0.373320  -0.036173  -0.031925  -0.079383   0.128922   0.259414
     12       0.016316  -0.071037  -0.008792  -0.009734  -0.006270  -0.002593
     13       0.011854  -0.090436  -0.056976   0.004870  -0.008206  -0.007300
     14       0.102466  -0.093746  -0.041032  -0.003873  -0.006417  -0.001612
     15      -0.016348  -0.071050   0.008721   0.009750   0.006271  -0.002606
     16      -0.011838  -0.090511   0.056927  -0.004840   0.008214  -0.007297
     17      -0.102450  -0.093796   0.040976   0.003893   0.006420  -0.001616
     18      -0.274722  -0.039914   0.006574   0.021175   0.039839  -0.108973
     19      -0.020673  -0.042980   0.032663  -0.057387   0.078093  -0.140808
     20       0.373277  -0.036234   0.031871   0.079528  -0.128819   0.259496
     21      -0.262906   0.152922  -0.264327  -0.380534  -0.562087   0.225966
     22      -0.202007   0.284904  -0.365071   0.294878  -0.191197   0.258867
     23       0.271922   0.332981  -0.379977   0.013706   0.215766  -0.243468
                 18         19         20         21         22         23    
      0      -0.074356  -0.036583  -0.047879   0.102563  -0.021064  -0.019101
      1       0.000538  -0.057577   0.021717   0.045789   0.056083   0.056960
      2      -0.018224  -0.049167   0.054174  -0.063417  -0.004387  -0.004330
      3      -0.074385   0.036573  -0.047878  -0.102551   0.021066  -0.019098
      4       0.000559   0.057574   0.021738  -0.045810  -0.056086   0.056957
      5      -0.018234   0.049152   0.054200   0.063405   0.004387  -0.004330
      6       0.548533   0.316119   0.315700  -0.564929   0.220639   0.226417
      7       0.243495   0.114956   0.092347  -0.144135  -0.666878  -0.665061
      8       0.365533   0.615898  -0.620708   0.378469   0.054330   0.053222
      9       0.011429   0.004973   0.011517  -0.011763   0.000487   0.000027
     10       0.003389   0.021704  -0.022982   0.008148   0.000064  -0.000323
     11      -0.002034  -0.007822   0.000027   0.008805  -0.000686  -0.000212
     12       0.003474   0.000077   0.001073  -0.002201   0.000123   0.000019
     13      -0.008923  -0.007097   0.002331  -0.001098  -0.000083  -0.000215
     14      -0.003128  -0.002481  -0.000721   0.001078   0.000181   0.000067
     15       0.003474  -0.000074   0.001073   0.002200  -0.000124   0.000019
     16      -0.008928   0.007094   0.002332   0.001101   0.000082  -0.000215
     17      -0.003131   0.002480  -0.000722  -0.001077  -0.000181   0.000068
     18       0.011432  -0.004972   0.011517   0.011761  -0.000488   0.000027
     19       0.003387  -0.021695  -0.022993  -0.008139  -0.000064  -0.000323
     20      -0.002032   0.007819   0.000030  -0.008806   0.000686  -0.000212
     21       0.548598  -0.316128   0.315731   0.564863  -0.220648   0.226409
     22       0.243559  -0.114945   0.092347   0.144096   0.666921  -0.665016
     23       0.365656  -0.615637  -0.620947  -0.378359  -0.054341   0.053224


-----------
IR SPECTRUM
-----------

 Mode    freq (cm**-1)   T**2         TX         TY         TZ
-------------------------------------------------------------------
   6:        71.67    0.611477  ( -0.136020  -0.067883  -0.767051)
   7:       164.86    1.198983  ( -0.304687   0.170802   1.037774)
   8:       258.29    0.000001  (  0.000922  -0.000394   0.000244)
   9:       350.47    0.000002  (  0.001497  -0.000076   0.000134)
  10:       369.70   26.390812  (  4.565895  -2.307398   0.468324)
  11:       381.54    1.559467  (  0.223098   1.082000  -0.582213)
  12:       499.20    0.000001  (  0.001091  -0.000117   0.000500)
  13:       717.64  219.859030  (  7.536050   6.307313  11.103368)
  14:       768.21    0.000053  (  0.003772   0.002186   0.005863)
  15:      1027.49    0.000031  (  0.000352   0.000240  -0.005532)
  16:      1072.94    0.000027  (  0.000938   0.000733  -0.005091)
  17:      1083.88  255.312437  (  4.241013   3.619658 -14.974122)
  18:      1168.83   35.734598  ( -3.368274  -3.829675  -3.118159)
  19:      1245.96    0.000001  ( -0.000408  -0.000579  -0.000547)
  20:      1282.10   14.481122  ( -0.907312   1.437111   3.404793)
  21:      1347.34    0.000000  ( -0.000032  -0.000372  -0.000347)
  22:      2985.49    0.000000  (  0.000018  -0.000126   0.000044)
  23:      2995.83   17.357595  (  0.140341   4.126569  -0.556176)

The first frequency considered to be a vibration is 6
The total number of vibrations considered is 18


--------------------------
THERMOCHEMISTRY AT 298.15K
--------------------------

Temperature         ... 298.15 K
Pressure            ... 1.00 atm
Total Mass          ... 134.94 AMU

Throughout the following assumptions are being made:
  (1) The electronic state is orbitally nondegenerate
  (2) There are no thermally accessible electronically excited states
  (3) Hindered rotations indicated by low frequency modes are not
      treated as such but are treated as vibrations and this may
      cause some error
  (4) All equations used are the standard statistical mechanics
      equations for an ideal gas
  (5) All vibrations are strictly harmonic

freq.      71.67  E(vib)   ...       0.50 
freq.     164.86  E(vib)   ...       0.39 
freq.     258.29  E(vib)   ...       0.30 
freq.     350.47  E(vib)   ...       0.23 
freq.     369.70  E(vib)   ...       0.21 
freq.     381.54  E(vib)   ...       0.21 
freq.     499.20  E(vib)   ...       0.14 
freq.     717.64  E(vib)   ...       0.07 
freq.     768.21  E(vib)   ...       0.06 
freq.    1027.49  E(vib)   ...       0.02 
freq.    1072.94  E(vib)   ...       0.02 
freq.    1083.88  E(vib)   ...       0.02 
freq.    1168.83  E(vib)   ...       0.01 
freq.    1245.96  E(vib)   ...       0.01 
freq.    1282.10  E(vib)   ...       0.01 
freq.    1347.34  E(vib)   ...       0.01 
freq.    2985.49  E(vib)   ...       0.00 
freq.    2995.83  E(vib)   ...       0.00 

------------
INNER ENERGY
------------

The inner energy is: U= E(el) + E(ZPE) + E(vib) + E(rot) + E(trans)
    E(el)   - is the total energy from the electronic structure calculation
              = E(kin-el) + E(nuc-el) + E(el-el) + E(nuc-nuc)
    E(ZPE)  - the the zero temperature vibrational energy from the frequency calculation
    E(vib)  - the the finite temperature correction to E(ZPE) due to population
              of excited vibrational states
    E(rot)  - is the rotational thermal energy
    E(trans)- is the translational thermal energy

Summary of contributions to the inner energy U:
Electronic energy                ...  -1196.70697834 Eh
Zero point energy                ...      0.04053190 Eh      25.43 kcal/mol
Thermal vibrational correction   ...      0.00347200 Eh       2.18 kcal/mol
Thermal rotational correction    ...      0.00141627 Eh       0.89 kcal/mol
Thermal translational correction ...      0.00141627 Eh       0.89 kcal/mol
-----------------------------------------------------------------------
Total thermal energy                  -1196.66014190 Eh


Summary of corrections to the electronic energy:
(perhaps to be used in another calculation)
Total thermal correction                  0.00630454 Eh       3.96 kcal/mol
Non-thermal (ZPE) correction              0.04053190 Eh      25.43 kcal/mol
-----------------------------------------------------------------------
Total correction                          0.04683644 Eh      29.39 kcal/mol


--------
ENTHALPY
--------

The enthalpy is H = U + kB*T
                kB is Boltzmann's constant
Total free energy                 ...  -1196.66014190 Eh 
Thermal Enthalpy correction       ...      0.00094421 Eh       0.59 kcal/mol
-----------------------------------------------------------------------
Total Enthalpy                    ...  -1196.65919770 Eh


Note: Only C1 symmetry has been detected, increase convergence thresholds 
      if your molecule has a higher symmetry. Symmetry factor of 1.0 is   
      used for the rotational entropy correction. 
 

Note: Rotational entropy computed according to Herzberg 
Infrared and Raman Spectra, Chapter V,1, Van Nostrand Reinhold, 1945 
Point Group:  C1, Symmetry Number:   1  
Rotational constants in cm-1:     0.129634     0.046960     0.035590 

Vibrational entropy computed according to the QRRHO of S. Grimme
Chem.Eur.J. 2012 18 9955


-------
ENTROPY
-------

The entropy contributions are T*S = T*(S(el)+S(vib)+S(rot)+S(trans))
     S(el)   - electronic entropy
     S(vib)  - vibrational entropy
     S(rot)  - rotational entropy
     S(trans)- translational entropy
The entropies will be listed as mutliplied by the temperature to get
units of energy

Electronic entropy                ...      0.00000000 Eh      0.00 kcal/mol
Vibrational entropy               ...      0.00587051 Eh      3.68 kcal/mol
Rotational entropy                ...      0.01349393 Eh      8.47 kcal/mol
Translational entropy             ...      0.01929564 Eh     12.11 kcal/mol
-----------------------------------------------------------------------
Final entropy term                ...      0.03866009 Eh     24.26 kcal/mol

In case the symmetry of your molecule has not been determined correctly
or in case you have a reason to use a different symmetry number we print 
out the resulting rotational entropy values for sn=1,12 :
 --------------------------------------------------------
|  sn= 1 | S(rot)=       0.01349393 Eh      8.47 kcal/mol|
|  sn= 2 | S(rot)=       0.01283947 Eh      8.06 kcal/mol|
|  sn= 3 | S(rot)=       0.01245664 Eh      7.82 kcal/mol|
|  sn= 4 | S(rot)=       0.01218502 Eh      7.65 kcal/mol|
|  sn= 5 | S(rot)=       0.01197433 Eh      7.51 kcal/mol|
|  sn= 6 | S(rot)=       0.01180219 Eh      7.41 kcal/mol|
|  sn= 7 | S(rot)=       0.01165664 Eh      7.31 kcal/mol|
|  sn= 8 | S(rot)=       0.01153056 Eh      7.24 kcal/mol|
|  sn= 9 | S(rot)=       0.01141935 Eh      7.17 kcal/mol|
|  sn=10 | S(rot)=       0.01131987 Eh      7.10 kcal/mol|
|  sn=11 | S(rot)=       0.01122988 Eh      7.05 kcal/mol|
|  sn=12 | S(rot)=       0.01114773 Eh      7.00 kcal/mol|
 --------------------------------------------------------


-------------------
GIBBS FREE ENERGY
-------------------

The Gibbs free energy is G = H - T*S

Total enthalpy                    ...  -1196.65919770 Eh 
Total entropy correction          ...     -0.03866009 Eh    -24.26 kcal/mol
-----------------------------------------------------------------------
Final Gibbs free energy         ...  -1196.69785778 Eh

For completeness - the Gibbs free energy minus the electronic energy
G-E(el)                           ...      0.00912056 Eh      5.72 kcal/mol


Timings for individual modules:

Sum of individual times         ...       76.642 sec (=   1.277 min)
GTO integral calculation        ...        5.456 sec (=   0.091 min)   7.1 %
SCF iterations                  ...       39.262 sec (=   0.654 min)  51.2 %
SCF Gradient evaluation         ...       12.121 sec (=   0.202 min)  15.8 %
Geometry relaxation             ...        0.204 sec (=   0.003 min)   0.3 %
Analytical frequency calculation...       19.600 sec (=   0.327 min)  25.6 %
                             ****ORCA TERMINATED NORMALLY****
TOTAL RUN TIME: 0 days 0 hours 1 minutes 17 seconds 813 msec
