
                                 *****************
                                 * O   R   C   A *
                                 *****************

           --- An Ab Initio, DFT and Semiempirical electronic structure package ---

                  #######################################################
                  #                        -***-                        #
                  #          Department of theory and spectroscopy      #
                  #               Directorship: Frank Neese             #
                  #        Max Planck Institute fuer Kohlenforschung    #
                  #                Kaiser Wilhelm Platz 1               #
                  #                 D-45470 Muelheim/Ruhr               #
                  #                      Germany                        #
                  #                                                     #
                  #                  All rights reserved                #
                  #                        -***-                        #
                  #######################################################


                         Program Version 4.2.1 -  RELEASE  -


 With contributions from (in alphabetic order):
   Daniel Aravena         : Magnetic Suceptibility
   Michael Atanasov       : Ab Initio Ligand Field Theory (pilot matlab implementation)
   Alexander A. Auer      : GIAO ZORA, VPT2
   Ute Becker             : Parallelization
   Giovanni Bistoni       : ED, misc. LED, open-shell LED, HFLD
   Martin Brehm           : Molecular dynamics
   Dmytro Bykov           : SCF Hessian
   Vijay G. Chilkuri      : MRCI spin determinant printing, contributions to CSF-ICE
   Dipayan Datta          : RHF DLPNO-CCSD density
   Achintya Kumar Dutta   : EOM-CC, STEOM-CC
   Dmitry Ganyushin       : Spin-Orbit,Spin-Spin,Magnetic field MRCI
   Miquel Garcia          : C-PCM Hessian, Gaussian charge scheme
   Yang Guo               : DLPNO-NEVPT2, CIM, IAO-localization
   Andreas Hansen         : Spin unrestricted coupled pair/coupled cluster methods
   Benjamin Helmich-Paris : CASSCF linear response (MC-RPA)
   Lee Huntington         : MR-EOM, pCC
   Robert Izsak           : Overlap fitted RIJCOSX, COSX-SCS-MP3, EOM
   Christian Kollmar      : KDIIS, OOCD, Brueckner-CCSD(T), CCSD density
   Simone Kossmann        : Meta GGA functionals, TD-DFT gradient, OOMP2, MP2 Hessian
   Martin Krupicka        : AUTO-CI
   Lucas Lang             : DCDCAS
   Dagmar Lenk            : GEPOL surface, SMD
   Dimitrios Liakos       : Extrapolation schemes; Compound Job, initial MDCI parallelization
   Dimitrios Manganas     : Further ROCIS development; embedding schemes
   Dimitrios Pantazis     : SARC Basis sets
   Taras Petrenko         : DFT Hessian,TD-DFT gradient, ASA, ECA, R-Raman, ABS, FL, XAS/XES, NRVS
   Peter Pinski           : DLPNO-MP2, DLPNO-MP2 Gradient
   Christoph Reimann      : Effective Core Potentials
   Marius Retegan         : Local ZFS, SOC
   Christoph Riplinger    : Optimizer, TS searches, QM/MM, DLPNO-CCSD(T), (RO)-DLPNO pert. Triples
   Tobias Risthaus        : Range-separated hybrids, TD-DFT gradient, RPA, STAB
   Michael Roemelt        : Original ROCIS implementation
   Masaaki Saitow         : Open-shell DLPNO-CCSD energy and density
   Barbara Sandhoefer     : DKH picture change effects
   Avijit Sen             : IP-ROCIS
   Kantharuban Sivalingam : CASSCF convergence, NEVPT2, FIC-MRCI
   Bernardo de Souza      : ESD, SOC TD-DFT
   Georgi Stoychev        : AutoAux, RI-MP2 NMR
   Willem Van den Heuvel  : Paramagnetic NMR
   Boris Wezisla          : Elementary symmetry handling
   Frank Wennmohs         : Technical directorship


 We gratefully acknowledge several colleagues who have allowed us to
 interface, adapt or use parts of their codes:
   Stefan Grimme, W. Hujo, H. Kruse,             : VdW corrections, initial TS optimization,
                  C. Bannwarth                     DFT functionals, gCP, sTDA/sTD-DF
   Ed Valeev, F. Pavosevic, A. Kumar             : LibInt (2-el integral package), F12 methods
   Garnet Chan, S. Sharma, J. Yang, R. Olivares  : DMRG
   Ulf Ekstrom                                   : XCFun DFT Library
   Mihaly Kallay                                 : mrcc  (arbitrary order and MRCC methods)
   Andreas Klamt, Michael Diedenhofen            : otool_cosmo (COSMO solvation model)
   Jiri Pittner, Ondrej Demel                    : Mk-CCSD
   Frank Weinhold                                : gennbo (NPA and NBO analysis)
   Christopher J. Cramer and Donald G. Truhlar   : smd solvation model
   Lars Goerigk                                  : TD-DFT with DH, B97 family of functionals
   V. Asgeirsson, H. Jonsson                     : NEB implementation
   FAccTs GmbH                                   : IRC, NEB, NEB-TS, Multilevel, MM, QM/MM, CI optimization
   S Lehtola, MJT Oliveira, MAL Marques          : LibXC Library


 Your calculation uses the libint2 library for the computation of 2-el integrals
 For citations please refer to: http://libint.valeyev.net

 Your ORCA version has been built with support for libXC version: 4.2.3
 For citations please refer to: https://tddft.org/programs/libxc/

 This ORCA versions uses:
   CBLAS   interface :  Fast vector & matrix operations
   LAPACKE interface :  Fast linear algebra routines
   SCALAPACK package :  Parallel linear algebra routines


Your calculation utilizes the atom-pairwise dispersion correction
with the Becke-Johnson damping scheme (D3BJ)
Cite in your paper:
S.Grimme, S.Ehrlich, L.Goerigk, J Comput Chem, (2011), 32, 1456–1465 
S.Grimme, J.Antony, S.Ehrlich and H.Krieg, J.Chem.Phys., 132, (2010), 154104 
   

Your calculation employs the composite approach B97-3c by Grimme and coworkers.
For the correct reference, please check the publication list of the Grimme group:
http://www.thch.uni-bonn.de/tc/index.php?section=publikationen&subsection=grimme#2017
   

XCFun DFT library Copyright 2009-2010 Ulf Ekstrom and contributors.
See http://admol.org/xcfun for more information. This is free soft-
ware; see the source code for copying conditions. There is ABSOLUTELY
NO WARRANTY; not even for MERCHANTABILITY or FITNESS FOR A PARTICULAR
PURPOSE. For details see the documentation. Scientific users of this 
library should cite U. Ekstrom, L. Visscher, R. Bast, A. J. Thorvald-
sen and K. Ruud; J.Chem.Theor.Comp. 2010, DOI: 10.1021/ct100117s
XCFun Version 0.99 
----- Orbital basis set information -----
Your calculation utilizes the basis: def2-mTZVP
----- AuxJ basis set information -----
Your calculation utilizes the basis: def2-mTZVP/J
================================================================================
                                        WARNINGS
                       Please study these warnings very carefully!
================================================================================


WARNING: Geometry Optimization
  ===> : Switching off AutoStart
         For restart on a previous wavefunction, please use MOREAD

INFO   : the flag for use of LIBINT has been found!

================================================================================
                                       INPUT FILE
================================================================================
NAME = 1,2-dichlorobenzene.inp
|  1> ! B97-3c Opt Freq TightOpt TightSCF
|  2> 
|  3> %pal
|  4>  nprocs 4
|  5> end
|  6> 
|  7> *xyz 0 1
|  8> C       -5.7493004653      1.2621841579      0.0000000000                 
|  9> C       -4.4475837827      1.7670093825      0.0000000000                 
| 10> C       -5.9623576467     -0.1153197465     -0.0000000000                 
| 11> C       -4.8739796662     -0.9898185747     -0.0000000000                 
| 12> C       -3.5681317919     -0.4884727232      0.0000000000                 
| 13> C       -3.3542164932      0.8945792686      0.0000000000                 
| 14> H       -6.5966223655      1.9442824386     -0.0000000000                 
| 15> H       -4.2912491539      2.8432121628      0.0000000000                 
| 16> H       -6.9761558376     -0.5095604031     -0.0000000000                 
| 17> H       -5.0500825927     -2.0629638116     -0.0000000000                 
| 18> Cl      -2.2693449359     -1.6281105782      0.0000000000                 
| 19> Cl      -1.7718213864      1.5885875278      0.0000000000                 
| 20> *
| 21> 
| 22>                          ****END OF INPUT****
================================================================================

                       *****************************
                       * Geometry Optimization Run *
                       *****************************

Geometry optimization settings:
Update method            Update   .... BFGS
Choice of coordinates    CoordSys .... Z-matrix Internals
Initial Hessian          InHess   .... Almoef's Model

Convergence Tolerances:
Energy Change            TolE     ....  1.0000e-06 Eh
Max. Gradient            TolMAXG  ....  1.0000e-04 Eh/bohr
RMS Gradient             TolRMSG  ....  3.0000e-05 Eh/bohr
Max. Displacement        TolMAXD  ....  1.0000e-03 bohr
RMS Displacement         TolRMSD  ....  6.0000e-04 bohr
Strict Convergence                ....  False
------------------------------------------------------------------------------
                        ORCA OPTIMIZATION COORDINATE SETUP
------------------------------------------------------------------------------

The optimization will be done in new redundant internal coordinates
Making redundant internal coordinates   ...  (new redundants) done
Evaluating the initial hessian          ...  (Almloef) done
Evaluating the coordinates              ...  done
Calculating the B-matrix                .... done
Calculating the G-matrix                .... done
Diagonalizing the G-matrix              .... done
The first mode is                       ....   24
The number of degrees of freedom        ....   30

    -----------------------------------------------------------------
                    Redundant Internal Coordinates


    -----------------------------------------------------------------
         Definition                    Initial Value    Approx d2E/dq
    -----------------------------------------------------------------
      1. B(C   1,C   0)                  1.3962         0.610775   
      2. B(C   2,C   0)                  1.3939         0.615947   
      3. B(C   3,C   2)                  1.3962         0.610775   
      4. B(C   4,C   3)                  1.3988         0.604965   
      5. B(C   5,C   4)                  1.3995         0.603374   
      6. B(C   5,C   1)                  1.3988         0.604965   
      7. B(H   6,C   0)                  1.0878         0.363081   
      8. B(H   7,C   1)                  1.0875         0.363424   
      9. B(H   8,C   2)                  1.0878         0.363081   
     10. B(H   9,C   3)                  1.0875         0.363424   
     11. B(Cl 10,C   4)                  1.7279         0.405177   
     12. B(Cl 11,C   5)                  1.7279         0.405177   
     13. A(C   1,C   0,C   2)          119.9893         0.432387   
     14. A(C   1,C   0,H   6)          119.9687         0.352506   
     15. A(C   2,C   0,H   6)          120.0420         0.353010   
     16. A(C   5,C   1,H   7)          120.3221         0.351993   
     17. A(C   0,C   1,C   5)          120.2156         0.430992   
     18. A(C   0,C   1,H   7)          119.4623         0.352563   
     19. A(C   3,C   2,H   8)          119.9687         0.352506   
     20. A(C   0,C   2,H   8)          120.0420         0.353010   
     21. A(C   0,C   2,C   3)          119.9893         0.432387   
     22. A(C   4,C   3,H   9)          120.3221         0.351993   
     23. A(C   2,C   3,H   9)          119.4623         0.352563   
     24. A(C   2,C   3,C   4)          120.2156         0.430992   
     25. A(C   3,C   4,Cl 10)          117.7313         0.418633   
     26. A(C   3,C   4,C   5)          119.7952         0.430049   
     27. A(C   5,C   4,Cl 10)          122.4736         0.418436   
     28. A(C   1,C   5,C   4)          119.7952         0.430049   
     29. A(C   4,C   5,Cl 11)          122.4736         0.418436   
     30. A(C   1,C   5,Cl 11)          117.7313         0.418633   
     31. D(H   7,C   1,C   0,C   2)    180.0000         0.025768   
     32. D(H   7,C   1,C   0,H   6)      0.0000         0.025768   
     33. D(C   5,C   1,C   0,H   6)    180.0000         0.025768   
     34. D(C   5,C   1,C   0,C   2)      0.0000         0.025768   
     35. D(H   8,C   2,C   0,C   1)    180.0000         0.026232   
     36. D(C   3,C   2,C   0,C   1)      0.0000         0.026232   
     37. D(C   3,C   2,C   0,H   6)    180.0000         0.026232   
     38. D(H   8,C   2,C   0,H   6)      0.0000         0.026232   
     39. D(H   9,C   3,C   2,H   8)      0.0000         0.025768   
     40. D(H   9,C   3,C   2,C   0)    180.0000         0.025768   
     41. D(C   4,C   3,C   2,H   8)    180.0000         0.025768   
     42. D(C   4,C   3,C   2,C   0)      0.0000         0.025768   
     43. D(Cl 10,C   4,C   3,C   2)    180.0000         0.025253   
     44. D(C   5,C   4,C   3,H   9)    180.0000         0.025253   
     45. D(C   5,C   4,C   3,C   2)      0.0000         0.025253   
     46. D(Cl 10,C   4,C   3,H   9)      0.0000         0.025253   
     47. D(Cl 11,C   5,C   4,Cl 10)      0.0000         0.025113   
     48. D(C   1,C   5,C   4,Cl 10)    180.0000         0.025113   
     49. D(C   1,C   5,C   4,C   3)      0.0000         0.025113   
     50. D(Cl 11,C   5,C   1,H   7)      0.0000         0.025253   
     51. D(Cl 11,C   5,C   1,C   0)    180.0000         0.025253   
     52. D(Cl 11,C   5,C   4,C   3)    180.0000         0.025113   
     53. D(C   4,C   5,C   1,H   7)    180.0000         0.025253   
     54. D(C   4,C   5,C   1,C   0)      0.0000         0.025253   
    -----------------------------------------------------------------

Number of atoms                         .... 12
Number of degrees of freedom            .... 54

         *************************************************************
         *                GEOMETRY OPTIMIZATION CYCLE   1            *
         *************************************************************
---------------------------------
CARTESIAN COORDINATES (ANGSTROEM)
---------------------------------
  C     -5.749300    1.262184    0.000000
  C     -4.447584    1.767009    0.000000
  C     -5.962358   -0.115320   -0.000000
  C     -4.873980   -0.989819   -0.000000
  C     -3.568132   -0.488473    0.000000
  C     -3.354216    0.894579    0.000000
  H     -6.596622    1.944282   -0.000000
  H     -4.291249    2.843212    0.000000
  H     -6.976156   -0.509560   -0.000000
  H     -5.050083   -2.062964   -0.000000
  Cl    -2.269345   -1.628111    0.000000
  Cl    -1.771821    1.588588    0.000000

----------------------------
CARTESIAN COORDINATES (A.U.)
----------------------------
  NO LB      ZA    FRAG     MASS         X           Y           Z
   0 C     6.0000    0    12.011  -10.864603    2.385182    0.000000
   1 C     6.0000    0    12.011   -8.404715    3.339164    0.000000
   2 C     6.0000    0    12.011  -11.267223   -0.217923   -0.000000
   3 C     6.0000    0    12.011   -9.210487   -1.870486   -0.000000
   4 C     6.0000    0    12.011   -6.742792   -0.923080    0.000000
   5 C     6.0000    0    12.011   -6.338551    1.690510    0.000000
   6 H     1.0000    0     1.008  -12.465810    3.674161   -0.000000
   7 H     1.0000    0     1.008   -8.109286    5.372892    0.000000
   8 H     1.0000    0     1.008  -13.183024   -0.962930   -0.000000
   9 H     1.0000    0     1.008   -9.543273   -3.898437   -0.000000
  10 Cl   17.0000    0    35.453   -4.288440   -3.076683    0.000000
  11 Cl   17.0000    0    35.453   -3.348257    3.001995    0.000000

--------------------------------
INTERNAL COORDINATES (ANGSTROEM)
--------------------------------
 C      0   0   0     0.000000000000     0.00000000     0.00000000
 C      1   0   0     1.396178652305     0.00000000     0.00000000
 C      1   2   0     1.393883197827   119.98925191     0.00000000
 C      3   1   2     1.396178652236   119.98925191     0.00000000
 C      4   3   1     1.398780302131   120.21555899     0.00000000
 C      2   1   3     1.398780302045   120.21555899     0.00000000
 H      1   2   3     1.087755701935   119.96872614   180.00000000
 H      2   1   3     1.087498478384   119.46229765   180.00000085
 H      3   1   2     1.087755701979   120.04202194   180.00000000
 H      4   3   1     1.087498478253   119.46229765   180.00000000
 Cl     5   4   3     1.727895175602   117.73125939   180.00000085
 Cl     6   2   1     1.727895175600   117.73125939   180.00000085

---------------------------
INTERNAL COORDINATES (A.U.)
---------------------------
 C      0   0   0     0.000000000000     0.00000000     0.00000000
 C      1   0   0     2.638395286883     0.00000000     0.00000000
 C      1   2   0     2.634057506567   119.98925191     0.00000000
 C      3   1   2     2.638395286754   119.98925191     0.00000000
 C      4   3   1     2.643311692551   120.21555899     0.00000000
 C      2   1   3     2.643311692388   120.21555899     0.00000000
 H      1   2   3     2.055560377269   119.96872614   180.00000000
 H      2   1   3     2.055074295202   119.46229765   180.00000085
 H      3   1   2     2.055560377352   120.04202194   180.00000000
 H      4   3   1     2.055074294955   119.46229765   180.00000000
 Cl     5   4   3     3.265248670011   117.73125939   180.00000085
 Cl     6   2   1     3.265248670008   117.73125939   180.00000085

---------------------
BASIS SET INFORMATION
---------------------
There are 3 groups of distinct atoms

 Group   1 Type C   : 11s6p1d contracted to 5s3p1d pattern {62111/411/1}
 Group   2 Type H   : 5s contracted to 3s pattern {311}
 Group   3 Type Cl  : 14s9p1d contracted to 5s4p1d pattern {73211/6111/1}

Atom   0C    basis set group =>   1
Atom   1C    basis set group =>   1
Atom   2C    basis set group =>   1
Atom   3C    basis set group =>   1
Atom   4C    basis set group =>   1
Atom   5C    basis set group =>   1
Atom   6H    basis set group =>   2
Atom   7H    basis set group =>   2
Atom   8H    basis set group =>   2
Atom   9H    basis set group =>   2
Atom  10Cl   basis set group =>   3
Atom  11Cl   basis set group =>   3
---------------------------------
AUXILIARY/J BASIS SET INFORMATION
---------------------------------
There are 3 groups of distinct atoms

 Group   1 Type C   : 8s3p3d contracted to 6s3p3d pattern {311111/111/111}
 Group   2 Type H   : 5s2p contracted to 3s1p pattern {311/2}
 Group   3 Type Cl  : 14s5p5d2f1g contracted to 8s4p3d1f1g pattern {71111111/2111/311/2/1}

Atom   0C    basis set group =>   1
Atom   1C    basis set group =>   1
Atom   2C    basis set group =>   1
Atom   3C    basis set group =>   1
Atom   4C    basis set group =>   1
Atom   5C    basis set group =>   1
Atom   6H    basis set group =>   2
Atom   7H    basis set group =>   2
Atom   8H    basis set group =>   2
Atom   9H    basis set group =>   2
Atom  10Cl   basis set group =>   3
Atom  11Cl   basis set group =>   3


           ************************************************************
           *        Program running with 4 parallel MPI-processes     *
           *              working on a common directory               *
           ************************************************************
------------------------------------------------------------------------------
                           ORCA GTO INTEGRAL CALCULATION
                           -- RI-GTO INTEGRALS CHOSEN --
------------------------------------------------------------------------------

                         BASIS SET STATISTICS AND STARTUP INFO

Gaussian basis set:
 # of primitive gaussian shells          ...  176
 # of primitive gaussian functions       ...  316
 # of contracted shells                  ...   86
 # of contracted basis functions         ...  170
 Highest angular momentum                ...    2
 Maximum contraction depth               ...    7
Auxiliary gaussian basis set:
 # of primitive gaussian shells          ...  166
 # of primitive gaussian functions       ...  390
 # of contracted shells                  ...  122
 # of contracted aux-basis functions     ...  306
 Highest angular momentum                ...    4
 Maximum contraction depth               ...    7
Ratio of auxiliary to basis functions    ...  1.80
Integral package used                  ... LIBINT
 One Electron integrals                  ... done
 Ordering auxiliary basis shells         ... done
 Integral threshhold             Thresh  ...  2.500e-11
 Primitive cut-off               TCut    ...  2.500e-12
 Pre-screening matrix                    ... done
 Shell pair data                         ... 
 Ordering of the shell pairs             ... done (   0.001 sec) 3409 of 3741 pairs
 Determination of significant pairs      ... done (   0.000 sec)
 Creation of shell pair data             ... done (   0.001 sec)
 Storage of shell pair data              ... done (   0.008 sec)
 Shell pair data done in (   0.009 sec)
 Computing two index integrals           ... done
 Cholesky decomposition of the V-matrix  ... done


Timings:
 Total evaluation time                   ...   0.150 sec (  0.003 min)
 One electron matrix time                ...   0.020 sec (  0.000 min) = 13.0%
 Schwartz matrix evaluation time         ...   0.096 sec (  0.002 min) = 64.1%
 Two index repulsion integral time       ...   0.002 sec (  0.000 min) =  1.4%
 Cholesky decomposition of V             ...   0.003 sec (  0.000 min) =  2.1%
 Three index repulsion integral time     ...   0.000 sec (  0.000 min) =  0.0%



           ************************************************************
           *        Program running with 4 parallel MPI-processes     *
           *              working on a common directory               *
           ************************************************************
-------------------------------------------------------------------------------
                                 ORCA SCF
-------------------------------------------------------------------------------

------------
SCF SETTINGS
------------
Hamiltonian:
 Density Functional     Method          .... DFT(GTOs)
 Exchange Functional    Exchange        .... B973C
 Correlation Functional Correlation     .... B973C
 Gradients option       PostSCFGGA      .... off
   Density functional embedding theory  .... OFF
 RI-approximation to the Coulomb term is turned on
   Number of auxiliary basis functions  .... 306


General Settings:
 Integral files         IntName         .... 1,2-dichlorobenzene
 Hartree-Fock type      HFTyp           .... RHF
 Total Charge           Charge          ....    0
 Multiplicity           Mult            ....    1
 Number of Electrons    NEL             ....   74
 Basis Dimension        Dim             ....  170
 Nuclear Repulsion      ENuc            ....    468.3630430372 Eh

Convergence Acceleration:
 DIIS                   CNVDIIS         .... on
   Start iteration      DIISMaxIt       ....    12
   Startup error        DIISStart       ....  0.200000
   # of expansion vecs  DIISMaxEq       ....     5
   Bias factor          DIISBfac        ....   1.050
   Max. coefficient     DIISMaxC        ....  10.000
 Newton-Raphson         CNVNR           .... off
 SOSCF                  CNVSOSCF        .... on
   Start iteration      SOSCFMaxIt      ....   150
   Startup grad/error   SOSCFStart      ....  0.003300
 Level Shifting         CNVShift        .... on
   Level shift para.    LevelShift      ....    0.2500
   Turn off err/grad.   ShiftErr        ....    0.0010
 Zerner damping         CNVZerner       .... off
 Static damping         CNVDamp         .... on
   Fraction old density DampFac         ....    0.7000
   Max. Damping (<1)    DampMax         ....    0.9800
   Min. Damping (>=0)   DampMin         ....    0.0000
   Turn off err/grad.   DampErr         ....    0.1000
 Fernandez-Rico         CNVRico         .... off

SCF Procedure:
 Maximum # iterations   MaxIter         ....   125
 SCF integral mode      SCFMode         .... Direct
   Integral package                     .... LIBINT
 Reset frequency        DirectResetFreq ....    20
 Integral Threshold     Thresh          ....  2.500e-11 Eh
 Primitive CutOff       TCut            ....  2.500e-12 Eh

Convergence Tolerance:
 Convergence Check Mode ConvCheckMode   .... Total+1el-Energy
 Convergence forced     ConvForced      .... 0
 Energy Change          TolE            ....  1.000e-08 Eh
 1-El. energy change                    ....  1.000e-05 Eh
 Orbital Gradient       TolG            ....  1.000e-05
 Orbital Rotation angle TolX            ....  1.000e-05
 DIIS Error             TolErr          ....  5.000e-07


Diagonalization of the overlap matrix:
Smallest eigenvalue                        ... 1.190e-05
Time for diagonalization                   ...    0.010 sec
Threshold for overlap eigenvalues          ... 1.000e-08
Number of eigenvalues below threshold      ... 0
Time for construction of square roots      ...    0.005 sec
Total time needed                          ...    0.015 sec

--------------------------------
INITIAL GUESS: MINIMAL BASIS EHT
--------------------------------
The minimal basis has 52 functions
EHT matrix was diagonalized
Basis set overlap was calculated now projecting the orbitals
Using GuessMode=FMatrix for the initial guess
C*T matrix was formed
Effective Fockian was calculated
Effective Fockian was diagonalized
Initial density was built
                      ------------------
                      INITIAL GUESS DONE
                      ------------------
-------------------
DFT GRID GENERATION
-------------------

General Integration Accuracy     IntAcc      ...  4.340
Radial Grid Type                 RadialGrid  ... Gauss-Chebyshev
Angular Grid (max. acc.)         AngularGrid ... Lebedev-194
Angular grid pruning method      GridPruning ... 3 (G Style)
Weight generation scheme         WeightScheme... Becke
Basis function cutoff            BFCut       ...    1.0000e-11
Integration weight cutoff        WCut        ...    1.0000e-14
Grids for H and He will be reduced by one unit

# of grid points (after initial pruning)     ...  33124 (   0.0 sec)
# of grid points (after weights+screening)   ...  30987 (   0.0 sec)
nearest neighbour list constructed           ...    0.0 sec
Grid point re-assignment to atoms done       ...    0.0 sec
Grid point division into batches done        ...    0.1 sec
Reduced shell lists constructed in    0.1 sec

Total number of grid points                  ...    30987
Total number of batches                      ...      489
Average number of points per batch           ...       63
Average number of grid points per atom       ...     2582
Average number of shells per batch           ...    65.06 (75.66%)
Average number of basis functions per batch  ...   138.52 (81.48%)
Average number of large shells per batch     ...    54.78 (84.20%)
Average number of large basis fcns per batch ...   114.60 (82.74%)
Maximum spatial batch extension              ...   3.68,  3.40, 22.17 au
Average spatial batch extension              ...   0.41,  0.40,  0.74 au

Time for grid setup =    0.173 sec

--------------
SCF ITERATIONS
--------------
ITER       Energy         Delta-E        Max-DP      RMS-DP      [F,P]     Damp
               ***  Starting incremental Fock matrix formation  ***
  0  -1149.8078058945   0.000000000000 0.32520361  0.01108545  1.0640498 0.7000
  1  -1150.2331355092  -0.425329614694 0.24273089  0.00794209  0.7274911 0.7000
  2  -1150.5047064777  -0.271570968537 0.20673412  0.00616080  0.4990272 0.7000
  3  -1150.6964771929  -0.191770715238 0.19862237  0.00481917  0.3458904 0.7000
  4  -1150.8316936003  -0.135216407401 0.15439529  0.00356422  0.2405880 0.7000
                               ***Turning on DIIS***
  5  -1150.9260551773  -0.094361577002 0.10779402  0.00252393  0.1674396 0.7000
  6  -1150.9920741518  -0.066018974472 0.06947607  0.00177240  0.1165936 0.7000
  7  -1151.0383076156  -0.046233463841 0.15886736  0.00418942  0.0815333 0.0000
                      *** Initiating the SOSCF procedure ***
                           *** Shutting down DIIS ***
                      *** Re-Reading the Fockian *** 
                      *** Removing any level shift *** 
ITER      Energy       Delta-E        Grad      Rot      Max-DP    RMS-DP
  8  -1151.14624575  -0.1079381295  0.000264  0.000264  0.005809  0.000104
               *** Restarting incremental Fock matrix formation ***
  9  -1151.14623992   0.0000058226  0.000672  0.004056  0.004139  0.000128
 10  -1151.14618781   0.0000521133  0.001917  0.003056  0.002967  0.000096
 11  -1151.14624770  -0.0000598936  0.000040  0.000126  0.000470  0.000011
 12  -1151.14624761   0.0000000890  0.000074  0.000086  0.000253  0.000006
 13  -1151.14624775  -0.0000001388  0.000007  0.000014  0.000109  0.000003
 14  -1151.14624775   0.0000000059  0.000008  0.000008  0.000042  0.000001
                  ***Gradient check signals convergence***
              ***Rediagonalizing the Fockian in SOSCF/NRSCF***

               *****************************************************
               *                     SUCCESS                       *
               *           SCF CONVERGED AFTER  15 CYCLES          *
               *****************************************************

Setting up the final grid:

General Integration Accuracy     IntAcc      ...  4.670
Radial Grid Type                 RadialGrid  ... Gauss-Chebyshev
Angular Grid (max. acc.)         AngularGrid ... Lebedev-302
Angular grid pruning method      GridPruning ... 3 (G Style)
Weight generation scheme         WeightScheme... Becke
Basis function cutoff            BFCut       ...    1.0000e-11
Integration weight cutoff        WCut        ...    1.0000e-14
Grids for H and He will be reduced by one unit

# of grid points (after initial pruning)     ...  64324 (   0.0 sec)
# of grid points (after weights+screening)   ...  59758 (   0.0 sec)
nearest neighbour list constructed           ...    0.0 sec
Grid point re-assignment to atoms done       ...    0.0 sec
Grid point division into batches done        ...    0.2 sec
Reduced shell lists constructed in    0.3 sec

Total number of grid points                  ...    59758
Total number of batches                      ...      939
Average number of points per batch           ...       63
Average number of grid points per atom       ...     4980
Average number of shells per batch           ...    63.58 (73.93%)
Average number of basis functions per batch  ...   135.13 (79.49%)
Average number of large shells per batch     ...    53.48 (84.12%)
Average number of large basis fcns per batch ...   111.50 (82.51%)
Maximum spatial batch extension              ...   3.65,  3.62, 23.20 au
Average spatial batch extension              ...   0.33,  0.33,  0.53 au

Final grid set up in    0.4 sec
Final integration                            ... done (   0.2 sec)
Change in XC energy                          ...    -0.000436747
Integrated number of electrons               ...    73.999920885
Previous integrated no of electrons          ...    73.999830770

----------------
TOTAL SCF ENERGY
----------------

Total Energy       :        -1151.14668450 Eh          -31324.29378 eV

Components:
Nuclear Repulsion  :          468.36304304 Eh           12744.80633 eV
Electronic Energy  :        -1619.50972753 Eh          -44069.10012 eV
One Electron Energy:        -2512.82115756 Eh          -68377.33993 eV
Two Electron Energy:          893.31143002 Eh           24308.23982 eV

Virial components:
Potential Energy   :        -2299.78921836 Eh          -62580.44616 eV
Kinetic Energy     :         1148.64253387 Eh           31256.15238 eV
Virial Ratio       :            2.00218010


DFT components:
N(Alpha)           :       36.999960442301 electrons
N(Beta)            :       36.999960442301 electrons
N(Total)           :       73.999920884602 electrons
E(XC)              :      -90.222604033956 Eh       
DFET-embed. en.    :        0.000000000000 Eh       

---------------
SCF CONVERGENCE
---------------

  Last Energy change         ...   -1.3640e-09  Tolerance :   1.0000e-08
  Last MAX-Density change    ...    6.9266e-05  Tolerance :   1.0000e-07
  Last RMS-Density change    ...    1.5963e-06  Tolerance :   5.0000e-09
  Last Orbital Gradient      ...    7.0341e-07  Tolerance :   1.0000e-05
  Last Orbital Rotation      ...    2.8441e-06  Tolerance :   1.0000e-05

             **** THE GBW FILE WAS UPDATED (1,2-dichlorobenzene.gbw) ****
             **** DENSITY FILE WAS UPDATED (1,2-dichlorobenzene.scfp) ****
             **** ENERGY FILE WAS UPDATED (1,2-dichlorobenzene.en.tmp) ****
             **** THE GBW FILE WAS UPDATED (1,2-dichlorobenzene.gbw) ****
             **** DENSITY FILE WAS UPDATED (1,2-dichlorobenzene.scfp) ****
----------------
ORBITAL ENERGIES
----------------

  NO   OCC          E(Eh)            E(eV) 
   0   2.0000    -100.649989     -2738.8254 
   1   2.0000    -100.649970     -2738.8249 
   2   2.0000      -9.975328      -271.4425 
   3   2.0000      -9.974975      -271.4329 
   4   2.0000      -9.921804      -269.9860 
   5   2.0000      -9.921770      -269.9851 
   6   2.0000      -9.916789      -269.8495 
   7   2.0000      -9.916413      -269.8393 
   8   2.0000      -9.236845      -251.3473 
   9   2.0000      -9.236820      -251.3466 
  10   2.0000      -7.073344      -192.4755 
  11   2.0000      -7.073323      -192.4749 
  12   2.0000      -7.060247      -192.1191 
  13   2.0000      -7.060223      -192.1184 
  14   2.0000      -7.059383      -192.0956 
  15   2.0000      -7.059361      -192.0950 
  16   2.0000      -0.848538       -23.0899 
  17   2.0000      -0.796690       -21.6790 
  18   2.0000      -0.774681       -21.0801 
  19   2.0000      -0.691505       -18.8168 
  20   2.0000      -0.674869       -18.3641 
  21   2.0000      -0.575279       -15.6541 
  22   2.0000      -0.554337       -15.0843 
  23   2.0000      -0.482956       -13.1419 
  24   2.0000      -0.445606       -12.1255 
  25   2.0000      -0.435024       -11.8376 
  26   2.0000      -0.406378       -11.0581 
  27   2.0000      -0.401944       -10.9375 
  28   2.0000      -0.380511       -10.3542 
  29   2.0000      -0.345705        -9.4071 
  30   2.0000      -0.339530        -9.2391 
  31   2.0000      -0.314835        -8.5671 
  32   2.0000      -0.304413        -8.2835 
  33   2.0000      -0.289251        -7.8709 
  34   2.0000      -0.273827        -7.4512 
  35   2.0000      -0.237477        -6.4621 
  36   2.0000      -0.224862        -6.1188 
  37   0.0000      -0.059204        -1.6110 
  38   0.0000      -0.055439        -1.5086 
  39   0.0000      -0.025529        -0.6947 
  40   0.0000       0.033387         0.9085 
  41   0.0000       0.044680         1.2158 
  42   0.0000       0.065042         1.7699 
  43   0.0000       0.081536         2.2187 
  44   0.0000       0.084480         2.2988 
  45   0.0000       0.096311         2.6208 
  46   0.0000       0.109543         2.9808 
  47   0.0000       0.154253         4.1974 
  48   0.0000       0.166836         4.5398 
  49   0.0000       0.178160         4.8480 
  50   0.0000       0.187007         5.0887 
  51   0.0000       0.195639         5.3236 
  52   0.0000       0.212881         5.7928 
  53   0.0000       0.218010         5.9324 
  54   0.0000       0.229138         6.2352 
  55   0.0000       0.237950         6.4749 
  56   0.0000       0.239843         6.5265 
  57   0.0000       0.246389         6.7046 
  58   0.0000       0.253341         6.8938 
  59   0.0000       0.296370         8.0646 
  60   0.0000       0.296836         8.0773 
  61   0.0000       0.311212         8.4685 
  62   0.0000       0.312023         8.4906 
  63   0.0000       0.322865         8.7856 
  64   0.0000       0.323888         8.8134 
  65   0.0000       0.338683         9.2160 
  66   0.0000       0.355944         9.6857 
  67   0.0000       0.357365         9.7244 
  68   0.0000       0.382191        10.3999 
  69   0.0000       0.384498        10.4627 
  70   0.0000       0.399921        10.8824 
  71   0.0000       0.406009        11.0481 
  72   0.0000       0.423046        11.5117 
  73   0.0000       0.429397        11.6845 
  74   0.0000       0.438624        11.9356 
  75   0.0000       0.442478        12.0404 
  76   0.0000       0.466217        12.6864 
  77   0.0000       0.473169        12.8756 
  78   0.0000       0.541578        14.7371 
  79   0.0000       0.554212        15.0809 
  80   0.0000       0.574733        15.6393 
  81   0.0000       0.606660        16.5081 
  82   0.0000       0.606991        16.5171 
  83   0.0000       0.629050        17.1173 
  84   0.0000       0.630507        17.1570 
  85   0.0000       0.640073        17.4173 
  86   0.0000       0.671895        18.2832 
  87   0.0000       0.691638        18.8204 
  88   0.0000       0.709719        19.3124 
  89   0.0000       0.726874        19.7792 
  90   0.0000       0.734003        19.9732 
  91   0.0000       0.824692        22.4410 
  92   0.0000       0.827508        22.5176 
  93   0.0000       0.894929        24.3523 
  94   0.0000       0.901557        24.5326 
  95   0.0000       0.947532        25.7836 
  96   0.0000       0.953615        25.9492 
  97   0.0000       1.142093        31.0779 
  98   0.0000       1.142378        31.0857 
  99   0.0000       1.151448        31.3325 
 100   0.0000       1.207121        32.8474 
 101   0.0000       1.245132        33.8818 
 102   0.0000       1.297845        35.3162 
 103   0.0000       1.303133        35.4600 
 104   0.0000       1.306032        35.5389 
 105   0.0000       1.322299        35.9816 
 106   0.0000       1.336541        36.3691 
 107   0.0000       1.337141        36.3855 
 108   0.0000       1.350997        36.7625 
 109   0.0000       1.364508        37.1302 
 110   0.0000       1.367799        37.2197 
 111   0.0000       1.384833        37.6832 
 112   0.0000       1.448836        39.4248 
 113   0.0000       1.452129        39.5144 
 114   0.0000       1.462392        39.7937 
 115   0.0000       1.475558        40.1520 
 116   0.0000       1.486921        40.4612 
 117   0.0000       1.492181        40.6043 
 118   0.0000       1.508568        41.0502 
 119   0.0000       1.537144        41.8278 
 120   0.0000       1.566162        42.6174 
 121   0.0000       1.581701        43.0403 
 122   0.0000       1.625192        44.2237 
 123   0.0000       1.657602        45.1056 
 124   0.0000       1.680551        45.7301 
 125   0.0000       1.703946        46.3667 
 126   0.0000       1.719882        46.8004 
 127   0.0000       1.729040        47.0496 
 128   0.0000       1.802176        49.0397 
 129   0.0000       1.828482        49.7555 
 130   0.0000       1.959703        53.3262 
 131   0.0000       2.017168        54.8899 
 132   0.0000       2.105601        57.2963 
 133   0.0000       2.106466        57.3199 
 134   0.0000       2.126424        57.8630 
 135   0.0000       2.128762        57.9265 
 136   0.0000       2.141892        58.2838 
 137   0.0000       2.194325        59.7106 
 138   0.0000       2.204537        59.9885 
 139   0.0000       2.213285        60.2265 
 140   0.0000       2.220904        60.4339 
 141   0.0000       2.234369        60.8003 
 142   0.0000       2.236276        60.8522 
 143   0.0000       2.243585        61.0510 
 144   0.0000       2.292578        62.3842 
 145   0.0000       2.314970        62.9935 
 146   0.0000       2.341449        63.7141 
 147   0.0000       2.375770        64.6480 
 148   0.0000       2.522215        68.6330 
 149   0.0000       2.530513        68.8588 
 150   0.0000       2.569675        69.9244 
 151   0.0000       2.623238        71.3819 
 152   0.0000       2.688410        73.1554 
 153   0.0000       2.784670        75.7747 
 154   0.0000       2.852673        77.6252 
 155   0.0000       2.959182        80.5234 
 156   0.0000       3.004307        81.7513 
 157   0.0000       3.030220        82.4565 
 158   0.0000       3.052389        83.0597 
 159   0.0000       3.093946        84.1905 
 160   0.0000       3.411251        92.8249 
 161   0.0000       3.426497        93.2397 
 162   0.0000      20.933114       569.6190 
 163   0.0000      21.470275       584.2359 
 164   0.0000      21.527014       585.7798 
 165   0.0000      21.817365       593.6807 
 166   0.0000      21.826589       593.9317 
 167   0.0000      22.010602       598.9389 
 168   0.0000      24.822719       675.4605 
 169   0.0000      25.151861       684.4169 

                    ********************************
                    * MULLIKEN POPULATION ANALYSIS *
                    ********************************

-----------------------
MULLIKEN ATOMIC CHARGES
-----------------------
   0 C :   -0.157623
   1 C :   -0.126834
   2 C :   -0.152243
   3 C :   -0.125983
   4 C :    0.024629
   5 C :    0.025473
   6 H :    0.170287
   7 H :    0.184892
   8 H :    0.167461
   9 H :    0.186300
  10 Cl:   -0.098216
  11 Cl:   -0.098143
Sum of atomic charges:   -0.0000000

--------------------------------
MULLIKEN REDUCED ORBITAL CHARGES
--------------------------------
  0 C s       :     3.135307  s :     3.135307
      pz      :     0.990822  p :     2.981509
      px      :     1.004424
      py      :     0.986263
      dz2     :     0.003933  d :     0.040807
      dxz     :     0.003840
      dyz     :     0.004769
      dx2y2   :     0.012281
      dxy     :     0.015985
  1 C s       :     3.091294  s :     3.091294
      pz      :     0.996054  p :     2.995478
      px      :     0.984338
      py      :     1.015086
      dz2     :     0.004017  d :     0.040062
      dxz     :     0.006585
      dyz     :     0.002223
      dx2y2   :     0.014201
      dxy     :     0.013036
  2 C s       :     3.132320  s :     3.132320
      pz      :     0.989621  p :     2.979068
      px      :     1.034092
      py      :     0.955355
      dz2     :     0.003941  d :     0.040855
      dxz     :     0.002650
      dyz     :     0.005965
      dx2y2   :     0.014174
      dxy     :     0.014125
  3 C s       :     3.087737  s :     3.087737
      pz      :     0.996451  p :     2.998196
      px      :     0.942383
      py      :     1.059363
      dz2     :     0.004016  d :     0.040050
      dxz     :     0.006633
      dyz     :     0.002170
      dx2y2   :     0.015499
      dxy     :     0.011731
  4 C s       :     3.219272  s :     3.219272
      pz      :     1.055305  p :     2.703268
      px      :     0.874279
      py      :     0.773684
      dz2     :     0.003743  d :     0.052831
      dxz     :     0.007447
      dyz     :     0.007739
      dx2y2   :     0.017575
      dxy     :     0.016326
  5 C s       :     3.217672  s :     3.217672
      pz      :     1.055428  p :     2.704023
      px      :     0.791894
      py      :     0.856701
      dz2     :     0.003746  d :     0.052832
      dxz     :     0.007811
      dyz     :     0.007375
      dx2y2   :     0.017656
      dxy     :     0.016244
  6 H s       :     0.829713  s :     0.829713
  7 H s       :     0.815108  s :     0.815108
  8 H s       :     0.832539  s :     0.832539
  9 H s       :     0.813700  s :     0.813700
 10 Cls       :     5.949175  s :     5.949175
      pz      :     3.912355  p :    11.101883
      px      :     3.561629
      py      :     3.627898
      dz2     :     0.006436  d :     0.047159
      dxz     :     0.007745
      dyz     :     0.005434
      dx2y2   :     0.007818
      dxy     :     0.019725
 11 Cls       :     5.949005  s :     5.949005
      pz      :     3.912394  p :    11.101974
      px      :     3.370400
      py      :     3.819181
      dz2     :     0.006435  d :     0.047164
      dxz     :     0.011175
      dyz     :     0.002010
      dx2y2   :     0.013206
      dxy     :     0.014339


                     *******************************
                     * LOEWDIN POPULATION ANALYSIS *
                     *******************************

----------------------
LOEWDIN ATOMIC CHARGES
----------------------
   0 C :   -0.157940
   1 C :   -0.175240
   2 C :   -0.157606
   3 C :   -0.175179
   4 C :   -0.233439
   5 C :   -0.233483
   6 H :    0.170485
   7 H :    0.177382
   8 H :    0.170342
   9 H :    0.177323
  10 Cl:    0.218690
  11 Cl:    0.218666

-------------------------------
LOEWDIN REDUCED ORBITAL CHARGES
-------------------------------
  0 C s       :     2.907605  s :     2.907605
      pz      :     0.984366  p :     3.170449
      px      :     1.088777
      py      :     1.097307
      dz2     :     0.006233  d :     0.079887
      dxz     :     0.006640
      dyz     :     0.008462
      dx2y2   :     0.027232
      dxy     :     0.031320
  1 C s       :     2.913553  s :     2.913553
      pz      :     0.995480  p :     3.182642
      px      :     1.097038
      py      :     1.090124
      dz2     :     0.006565  d :     0.079046
      dxz     :     0.012282
      dyz     :     0.003350
      dx2y2   :     0.028337
      dxy     :     0.028512
  2 C s       :     2.907606  s :     2.907606
      pz      :     0.984034  p :     3.170126
      px      :     1.088629
      py      :     1.097463
      dz2     :     0.006233  d :     0.079874
      dxz     :     0.004188
      dyz     :     0.010916
      dx2y2   :     0.029091
      dxy     :     0.029447
  3 C s       :     2.913555  s :     2.913555
      pz      :     0.995493  p :     3.182575
      px      :     1.085204
      py      :     1.101879
      dz2     :     0.006565  d :     0.079048
      dxz     :     0.012512
      dyz     :     0.003118
      dx2y2   :     0.031020
      dxy     :     0.025834
  4 C s       :     2.918093  s :     2.918093
      pz      :     1.055514  p :     3.202996
      px      :     1.071019
      py      :     1.076463
      dz2     :     0.008184  d :     0.112350
      dxz     :     0.012816
      dyz     :     0.013834
      dx2y2   :     0.039512
      dxy     :     0.038004
  5 C s       :     2.918063  s :     2.918063
      pz      :     1.055566  p :     3.203075
      px      :     1.035448
      py      :     1.112062
      dz2     :     0.008183  d :     0.112345
      dxz     :     0.013348
      dyz     :     0.013303
      dx2y2   :     0.039849
      dxy     :     0.037662
  6 H s       :     0.829515  s :     0.829515
  7 H s       :     0.822618  s :     0.822618
  8 H s       :     0.829658  s :     0.829658
  9 H s       :     0.822677  s :     0.822677
 10 Cls       :     5.651805  s :     5.651805
      pz      :     3.893302  p :    11.076041
      px      :     3.559990
      py      :     3.622749
      dz2     :     0.007679  d :     0.053464
      dxz     :     0.008283
      dyz     :     0.005794
      dx2y2   :     0.008103
      dxy     :     0.023605
 11 Cls       :     5.651782  s :     5.651782
      pz      :     3.893319  p :    11.076089
      px      :     3.380679
      py      :     3.802090
      dz2     :     0.007677  d :     0.053463
      dxz     :     0.011969
      dyz     :     0.002113
      dx2y2   :     0.015035
      dxy     :     0.016669


                      *****************************
                      * MAYER POPULATION ANALYSIS *
                      *****************************

  NA   - Mulliken gross atomic population
  ZA   - Total nuclear charge
  QA   - Mulliken gross atomic charge
  VA   - Mayer's total valence
  BVA  - Mayer's bonded valence
  FA   - Mayer's free valence

  ATOM       NA         ZA         QA         VA         BVA        FA
  0 C      6.1576     6.0000    -0.1576     4.0430     4.0430    -0.0000
  1 C      6.1268     6.0000    -0.1268     3.8960     3.8960     0.0000
  2 C      6.1522     6.0000    -0.1522     4.0430     4.0430     0.0000
  3 C      6.1260     6.0000    -0.1260     3.8956     3.8956     0.0000
  4 C      5.9754     6.0000     0.0246     3.5764     3.5764     0.0000
  5 C      5.9745     6.0000     0.0255     3.5758     3.5758     0.0000
  6 H      0.8297     1.0000     0.1703     0.9371     0.9371    -0.0000
  7 H      0.8151     1.0000     0.1849     0.9355     0.9355     0.0000
  8 H      0.8325     1.0000     0.1675     0.9389     0.9389    -0.0000
  9 H      0.8137     1.0000     0.1863     0.9352     0.9352    -0.0000
 10 Cl    17.0982    17.0000    -0.0982     1.1853     1.1853    -0.0000
 11 Cl    17.0981    17.0000    -0.0981     1.1857     1.1857    -0.0000

  Mayer bond orders larger than 0.100000
B(  0-C ,  1-C ) :   1.5278 B(  0-C ,  2-C ) :   1.5014 B(  0-C ,  6-H ) :   0.9119 
B(  1-C ,  5-C ) :   1.3723 B(  1-C ,  7-H ) :   0.8968 B(  2-C ,  3-C ) :   1.5283 
B(  2-C ,  8-H ) :   0.9113 B(  3-C ,  4-C ) :   1.3735 B(  3-C ,  9-H ) :   0.8956 
B(  4-C ,  5-C ) :   1.0846 B(  4-C , 10-Cl) :   1.1164 B(  5-C , 11-Cl) :   1.1176 


-------
TIMINGS
-------

Total SCF time: 0 days 0 hours 0 min 5 sec 

Total time                  ....       5.157 sec
Sum of individual times     ....       5.014 sec  ( 97.2%)

Fock matrix formation       ....       4.233 sec  ( 82.1%)
  Split-RI-J                ....       1.975 sec  ( 46.7% of F)
  XC integration            ....       2.219 sec  ( 52.4% of F)
    Basis function eval.    ....       0.453 sec  ( 20.4% of XC)
    Density eval.           ....       0.561 sec  ( 25.3% of XC)
    XC-Functional eval.     ....       0.327 sec  ( 14.8% of XC)
    XC-Potential eval.      ....       0.497 sec  ( 22.4% of XC)
Diagonalization             ....       0.080 sec  (  1.6%)
Density matrix formation    ....       0.043 sec  (  0.8%)
Population analysis         ....       0.008 sec  (  0.1%)
Initial guess               ....       0.023 sec  (  0.5%)
Orbital Transformation      ....       0.000 sec  (  0.0%)
Orbital Orthonormalization  ....       0.000 sec  (  0.0%)
DIIS solution               ....       0.028 sec  (  0.5%)
SOSCF solution              ....       0.049 sec  (  0.9%)
Grid generation             ....       0.551 sec  ( 10.7%)


-------------------------------------------------------------------------------
                          DFT DISPERSION CORRECTION                            
                                                                               
                              DFTD3 V3.1  Rev 1                                
                          USING Becke-Johnson damping                          
-------------------------------------------------------------------------------
The B97-3c composite method is recognized
Using three-body term ABC
Active option DFTDOPT                   ...         4   

molecular C6(AA) [au] = 3144.244214 


            DFT-D V3
 parameters
 s6 scaling factor         :     1.0000 
 a1 scaling factor         :     0.3700 
 s8 scaling factor         :     1.5000 
 a2 scaling factor         :     4.1000 
 Damping factor alpha9(ATM):    16.0000 
 ad hoc parameters k1-k3   :    16.0000     1.3333    -4.0000 

 Edisp/kcal,au: -22.531884005281  -0.035906838913 
 E6   /kcal   : -10.461587273 
 E8   /kcal   : -12.078891508 
 E6(ABC)      :   0.008594776 
 % E8         :  53.607996142 
 % E6(ABC)    :  -0.038144951 

-------------------------   ----------------
Dispersion correction           -0.035906839
-------------------------   ----------------

------------------   -----------------
SRB correction            -0.038324331
------------------   -----------------

-------------------------   --------------------
FINAL SINGLE POINT ENERGY     -1151.220915665446
-------------------------   --------------------



           ************************************************************
           *        Program running with 4 parallel MPI-processes     *
           *              working on a common directory               *
           ************************************************************
------------------------------------------------------------------------------
                         ORCA SCF GRADIENT CALCULATION
------------------------------------------------------------------------------

Gradient of the Kohn-Sham DFT energy:
Kohn-Sham wavefunction type      ... RKS
Hartree-Fock exchange scaling    ...    0.000
Number of operators              ...    1
Number of atoms                  ...   12
Basis set dimensions             ...  170
Integral neglect threshold       ... 2.5e-11
Integral primitive cutoff        ... 2.5e-12

Nuclear repulsion gradient       ... done
One Electron Gradient            ... done
Pre-screening matrix             ... done
RI-J gradient                    ... done
Exchange-correlation gradient    ... done
Dispersion correction            ... done
SRB correction                   ... done

------------------
CARTESIAN GRADIENT
------------------

   1   C   :   -0.005129986    0.001617950   -0.000000001
   2   C   :    0.007854820    0.004994790    0.000000002
   3   C   :   -0.005269775    0.000024513    0.000000002
   4   C   :    0.005983103   -0.007100243   -0.000000001
   5   C   :    0.012998963   -0.002164221    0.000000000
   6   C   :    0.013013565   -0.001881213   -0.000000001
   7   H   :   -0.004108558    0.002004267    0.000000000
   8   H   :   -0.002165450    0.005608153   -0.000000001
   9   H   :   -0.004592273   -0.000674103   -0.000000001
  10   H   :   -0.003771818   -0.004715245    0.000000000
  11   Cl  :   -0.007307460    0.001833994    0.000000000
  12   Cl  :   -0.007505130    0.000451358   -0.000000000

Difference to translation invariance:
           :   -0.0000000001   -0.0000000000   -0.0000000000

Norm of the cartesian gradient     ...    0.0283627593
RMS gradient                       ...    0.0047271266
MAX gradient                       ...    0.0130135654

-------
TIMINGS
-------

Total SCF gradient time            ...        1.725 sec

One electron gradient       ....       0.027 sec  (  1.6%)
Prescreening matrices       ....       0.040 sec  (  2.3%)
RI-J Coulomb gradient       ....       0.299 sec  ( 17.3%)
XC gradient                 ....       1.177 sec  ( 68.3%)
------------------------------------------------------------------------------
                         ORCA GEOMETRY RELAXATION STEP
------------------------------------------------------------------------------

Reading the OPT-File                    .... done
Getting information on internals        .... done
Copying old internal coords+grads       .... done
Making the new internal coordinates     .... (new redundants).... done
Validating the new internal coordinates .... (new redundants).... done
Calculating the B-matrix                .... done
Calculating the G,G- and P matrices     .... done
Transforming gradient to internals      .... done
Projecting the internal gradient        .... done
Number of atoms                         ....  12
Number of internal coordinates          ....  54
Current Energy                          .... -1151.220915665 Eh
Current gradient norm                   ....     0.028362759 Eh/bohr
Maximum allowed component of the step   ....  0.300
Current trust radius                    ....  0.300
Evaluating the initial hessian          ....  (Almloef) done
Projecting the Hessian                  .... done
Forming the augmented Hessian           .... done
Diagonalizing the augmented Hessian     .... done
Last element of RFO vector              ....  0.998253989
Lowest eigenvalues of augmented Hessian:
 -0.001629919  0.025164366  0.025201222  0.025224492  0.025508007
Length of the computed step             ....  0.059170849
The final length of the internal step   ....  0.059170849
Converting the step to cartesian space:
 Initial RMS(Int)=    0.0080521327
Transforming coordinates:
 Iter   0:  RMS(Cart)=    0.0135744469 RMS(Int)=    2.2622196382
 Iter   1:  RMS(Cart)=    0.0000867033 RMS(Int)=    0.0000602106
 Iter   2:  RMS(Cart)=    0.0000008587 RMS(Int)=    0.0000006228
 Iter   3:  RMS(Cart)=    0.0000000141 RMS(Int)=    0.0000000075
done
Storing new coordinates                 .... done

                                .--------------------.
          ----------------------|Geometry convergence|-------------------------
          Item                value                   Tolerance       Converged
          ---------------------------------------------------------------------
          RMS gradient        0.0038454691            0.0000300000      NO
          MAX gradient        0.0103594205            0.0001000000      NO
          RMS step            0.0080521327            0.0006000000      NO
          MAX step            0.0169410035            0.0010000000      NO
          ........................................................
          Max(Bonds)      0.0090      Max(Angles)    0.78
          Max(Dihed)        0.00      Max(Improp)    0.00
          ---------------------------------------------------------------------

The optimization has not yet converged - more geometry cycles are needed


    ---------------------------------------------------------------------------
                         Redundant Internal Coordinates
                            (Angstroem and degrees)

        Definition                    Value    dE/dq     Step     New-Value
    ----------------------------------------------------------------------------
     1. B(C   1,C   0)                1.3962  0.010359 -0.0090    1.3872   
     2. B(C   2,C   0)                1.3939  0.006136 -0.0053    1.3886   
     3. B(C   3,C   2)                1.3962  0.010359 -0.0090    1.3872   
     4. B(C   4,C   3)                1.3988  0.008573 -0.0075    1.3913   
     5. B(C   5,C   4)                1.3995  0.006809 -0.0059    1.3936   
     6. B(C   5,C   1)                1.3988  0.008586 -0.0075    1.3913   
     7. B(H   6,C   0)                1.0878  0.004457 -0.0065    1.0813   
     8. B(H   7,C   1)                1.0875  0.005238 -0.0076    1.0799   
     9. B(H   8,C   2)                1.0878  0.004524 -0.0066    1.0812   
    10. B(H   9,C   3)                1.0875  0.005264 -0.0076    1.0799   
    11. B(Cl 10,C   4)                1.7279 -0.006702  0.0087    1.7366   
    12. B(Cl 11,C   5)                1.7279 -0.006692  0.0087    1.7366   
    13. A(C   1,C   0,C   2)          119.99 -0.000001   -0.01    119.98   
    14. A(C   1,C   0,H   6)          119.97  0.001048   -0.17    119.80   
    15. A(C   2,C   0,H   6)          120.04 -0.001047    0.17    120.21   
    16. A(C   5,C   1,H   7)          120.32  0.003173   -0.51    119.81   
    17. A(C   0,C   1,C   5)          120.22 -0.000277    0.04    120.25   
    18. A(C   0,C   1,H   7)          119.46 -0.002896    0.47    119.93   
    19. A(C   3,C   2,H   8)          119.97  0.001048   -0.17    119.80   
    20. A(C   0,C   2,H   8)          120.04 -0.001073    0.18    120.22   
    21. A(C   0,C   2,C   3)          119.99  0.000025   -0.01    119.98   
    22. A(C   4,C   3,H   9)          120.32  0.003173   -0.51    119.81   
    23. A(C   2,C   3,H   9)          119.46 -0.002898    0.47    119.93   
    24. A(C   2,C   3,C   4)          120.22 -0.000275    0.04    120.25   
    25. A(C   3,C   4,Cl 10)          117.73 -0.005737    0.78    118.51   
    26. A(C   3,C   4,C   5)          119.80  0.000254   -0.03    119.77   
    27. A(C   5,C   4,Cl 10)          122.47  0.005483   -0.75    121.72   
    28. A(C   1,C   5,C   4)          119.80  0.000274   -0.03    119.76   
    29. A(C   4,C   5,Cl 11)          122.47  0.005467   -0.75    121.72   
    30. A(C   1,C   5,Cl 11)          117.73 -0.005741    0.78    118.51   
    31. D(H   7,C   1,C   0,C   2)    180.00 -0.000000    0.00    180.00   
    32. D(H   7,C   1,C   0,H   6)      0.00 -0.000000    0.00      0.00   
    33. D(C   5,C   1,C   0,H   6)    180.00  0.000000   -0.00    180.00   
    34. D(C   5,C   1,C   0,C   2)      0.00  0.000000   -0.00     -0.00   
    35. D(H   8,C   2,C   0,C   1)    180.00  0.000000   -0.00    180.00   
    36. D(C   3,C   2,C   0,C   1)      0.00 -0.000000    0.00      0.00   
    37. D(C   3,C   2,C   0,H   6)    180.00 -0.000000    0.00    180.00   
    38. D(H   8,C   2,C   0,H   6)      0.00  0.000000   -0.00     -0.00   
    39. D(H   9,C   3,C   2,H   8)      0.00 -0.000000    0.00      0.00   
    40. D(H   9,C   3,C   2,C   0)    180.00  0.000000   -0.00    180.00   
    41. D(C   4,C   3,C   2,H   8)    180.00 -0.000000    0.00    180.00   
    42. D(C   4,C   3,C   2,C   0)      0.00  0.000000   -0.00     -0.00   
    43. D(Cl 10,C   4,C   3,C   2)    180.00 -0.000000    0.00    180.00   
    44. D(C   5,C   4,C   3,H   9)    180.00 -0.000000    0.00    180.00   
    45. D(C   5,C   4,C   3,C   2)      0.00 -0.000000    0.00      0.00   
    46. D(Cl 10,C   4,C   3,H   9)      0.00  0.000000   -0.00     -0.00   
    47. D(Cl 11,C   5,C   4,Cl 10)      0.00 -0.000000    0.00      0.00   
    48. D(C   1,C   5,C   4,Cl 10)    180.00 -0.000000    0.00    180.00   
    49. D(C   1,C   5,C   4,C   3)      0.00  0.000000   -0.00     -0.00   
    50. D(Cl 11,C   5,C   1,H   7)      0.00  0.000000   -0.00     -0.00   
    51. D(Cl 11,C   5,C   1,C   0)    180.00 -0.000000    0.00    180.00   
    52. D(Cl 11,C   5,C   4,C   3)    180.00  0.000000   -0.00    180.00   
    53. D(C   4,C   5,C   1,H   7)    180.00  0.000000   -0.00    180.00   
    54. D(C   4,C   5,C   1,C   0)      0.00 -0.000000    0.00      0.00   
    ----------------------------------------------------------------------------

         *************************************************************
         *                GEOMETRY OPTIMIZATION CYCLE   2            *
         *************************************************************
---------------------------------
CARTESIAN COORDINATES (ANGSTROEM)
---------------------------------
  C     -5.748531    1.259379   -0.000000
  C     -4.455099    1.760774   -0.000000
  C     -5.960815   -0.112899   -0.000000
  C     -4.879288   -0.981614   -0.000000
  C     -3.580154   -0.483609   -0.000000
  C     -3.367121    0.893579   -0.000000
  H     -6.588749    1.939980    0.000000
  H     -4.290901    2.828123    0.000000
  H     -6.967291   -0.507841    0.000000
  H     -5.045197   -2.048660    0.000000
  Cl    -2.259937   -1.611817    0.000000
  Cl    -1.767764    1.570216    0.000000

----------------------------
CARTESIAN COORDINATES (A.U.)
----------------------------
  NO LB      ZA    FRAG     MASS         X           Y           Z
   0 C     6.0000    0    12.011  -10.863149    2.379881   -0.000000
   1 C     6.0000    0    12.011   -8.418917    3.327380   -0.000000
   2 C     6.0000    0    12.011  -11.264307   -0.213349   -0.000000
   3 C     6.0000    0    12.011   -9.220517   -1.854981   -0.000000
   4 C     6.0000    0    12.011   -6.765511   -0.913889   -0.000000
   5 C     6.0000    0    12.011   -6.362936    1.688620   -0.000000
   6 H     1.0000    0     1.008  -12.450931    3.666031    0.000000
   7 H     1.0000    0     1.008   -8.108628    5.344377    0.000000
   8 H     1.0000    0     1.008  -13.166272   -0.959681    0.000000
   9 H     1.0000    0     1.008   -9.534041   -3.871407    0.000000
  10 Cl   17.0000    0    35.453   -4.270662   -3.045893    0.000000
  11 Cl   17.0000    0    35.453   -3.340590    2.967277    0.000000

--------------------------------
INTERNAL COORDINATES (ANGSTROEM)
--------------------------------
 C      0   0   0     0.000000000000     0.00000000     0.00000000
 C      1   0   0     1.387213985058     0.00000000     0.00000000
 C      1   2   0     1.388600338806   119.98231027     0.00000000
 C      3   1   2     1.387214902241   119.97882778     0.00000000
 C      4   3   1     1.391314650692   120.25392102     0.00000000
 C      2   1   3     1.391302567510   120.25403902     0.00000000
 H      1   2   3     1.081288594471   119.80282800   180.00000085
 H      2   1   3     1.079904850155   119.93435074   180.00000000
 H      3   1   2     1.081190982038   120.21870520   180.00000000
 H      4   3   1     1.079867985298   119.93460728   180.00000000
 Cl     5   4   3     1.736613651983   118.51042428   180.00000085
 Cl     6   2   1     1.736599970743   118.51106967   180.00000000

---------------------------
INTERNAL COORDINATES (A.U.)
---------------------------
 C      0   0   0     0.000000000000     0.00000000     0.00000000
 C      1   0   0     2.621454520906     0.00000000     0.00000000
 C      1   2   0     2.624074349813   119.98231027     0.00000000
 C      3   1   2     2.621456254129   119.97882778     0.00000000
 C      4   3   1     2.629203655920   120.25392102     0.00000000
 C      2   1   3     2.629180822015   120.25403902     0.00000000
 H      1   2   3     2.043339315283   119.80282800   180.00000085
 H      2   1   3     2.040724417486   119.93435074   180.00000000
 H      3   1   2     2.043154854517   120.21870520   180.00000000
 H      4   3   1     2.040654753002   119.93460728   180.00000000
 Cl     5   4   3     3.281724202676   118.51042428   180.00000085
 Cl     6   2   1     3.281698348881   118.51106967   180.00000000



           ************************************************************
           *        Program running with 4 parallel MPI-processes     *
           *              working on a common directory               *
           ************************************************************
 One Electron integrals                  ... done
 Pre-screening matrix                    ... done


           ************************************************************
           *        Program running with 4 parallel MPI-processes     *
           *              working on a common directory               *
           ************************************************************

Diagonalization of the overlap matrix:
Smallest eigenvalue                        ... 1.125e-05
Time for diagonalization                   ...    0.009 sec
Threshold for overlap eigenvalues          ... 1.000e-08
Number of eigenvalues below threshold      ... 0
Time for construction of square roots      ...    0.006 sec
Total time needed                          ...    0.015 sec

-------------------
DFT GRID GENERATION
-------------------

General Integration Accuracy     IntAcc      ...  4.340
Radial Grid Type                 RadialGrid  ... Gauss-Chebyshev
Angular Grid (max. acc.)         AngularGrid ... Lebedev-194
Angular grid pruning method      GridPruning ... 3 (G Style)
Weight generation scheme         WeightScheme... Becke
Basis function cutoff            BFCut       ...    1.0000e-11
Integration weight cutoff        WCut        ...    1.0000e-14
Grids for H and He will be reduced by one unit

# of grid points (after initial pruning)     ...  33124 (   0.0 sec)
# of grid points (after weights+screening)   ...  30978 (   0.0 sec)
nearest neighbour list constructed           ...    0.0 sec
Grid point re-assignment to atoms done       ...    0.0 sec
Grid point division into batches done        ...    0.1 sec
Reduced shell lists constructed in    0.1 sec

Total number of grid points                  ...    30978
Total number of batches                      ...      489
Average number of points per batch           ...       63
Average number of grid points per atom       ...     2582
Average number of shells per batch           ...    65.13 (75.73%)
Average number of basis functions per batch  ...   138.53 (81.49%)
Average number of large shells per batch     ...    54.91 (84.31%)
Average number of large basis fcns per batch ...   114.62 (82.74%)
Maximum spatial batch extension              ...   3.68,  3.40, 22.17 au
Average spatial batch extension              ...   0.41,  0.40,  0.72 au

Time for grid setup =    0.175 sec

--------------
SCF ITERATIONS
--------------
ITER       Energy         Delta-E        Max-DP      RMS-DP      [F,P]     Damp
               ***  Starting incremental Fock matrix formation  ***
                      *** Initiating the SOSCF procedure ***
                      *** Re-Reading the Fockian *** 
                      *** Removing any level shift *** 
ITER      Energy       Delta-E        Grad      Rot      Max-DP    RMS-DP
  0  -1151.14608660 -1151.1460865964  0.001830  0.001830  0.022006  0.000660
               *** Restarting incremental Fock matrix formation ***
  1  -1151.14633369  -0.0002470966  0.000765  0.003567  0.004704  0.000169
  2  -1151.14629756   0.0000361339  0.001717  0.003562  0.008634  0.000179
  3  -1151.14636976  -0.0000721969  0.000404  0.001610  0.002228  0.000077
  4  -1151.14636140   0.0000083546  0.000652  0.000798  0.002179  0.000048
  5  -1151.14637249  -0.0000110892  0.000076  0.000202  0.003061  0.000057
  6  -1151.14637245   0.0000000362  0.000075  0.000123  0.001540  0.000028
  7  -1151.14637266  -0.0000002092  0.000017  0.000049  0.000169  0.000004
  8  -1151.14637265   0.0000000176  0.000026  0.000029  0.000155  0.000003
                  ***Gradient check signals convergence***
              ***Rediagonalizing the Fockian in SOSCF/NRSCF***

               *****************************************************
               *                     SUCCESS                       *
               *           SCF CONVERGED AFTER   9 CYCLES          *
               *****************************************************

Setting up the final grid:

General Integration Accuracy     IntAcc      ...  4.670
Radial Grid Type                 RadialGrid  ... Gauss-Chebyshev
Angular Grid (max. acc.)         AngularGrid ... Lebedev-302
Angular grid pruning method      GridPruning ... 3 (G Style)
Weight generation scheme         WeightScheme... Becke
Basis function cutoff            BFCut       ...    1.0000e-11
Integration weight cutoff        WCut        ...    1.0000e-14
Grids for H and He will be reduced by one unit

# of grid points (after initial pruning)     ...  64324 (   0.0 sec)
# of grid points (after weights+screening)   ...  59733 (   0.0 sec)
nearest neighbour list constructed           ...    0.0 sec
Grid point re-assignment to atoms done       ...    0.0 sec
Grid point division into batches done        ...    0.3 sec
Reduced shell lists constructed in    0.3 sec

Total number of grid points                  ...    59733
Total number of batches                      ...      940
Average number of points per batch           ...       63
Average number of grid points per atom       ...     4978
Average number of shells per batch           ...    63.60 (73.95%)
Average number of basis functions per batch  ...   135.10 (79.47%)
Average number of large shells per batch     ...    53.58 (84.25%)
Average number of large basis fcns per batch ...   111.61 (82.61%)
Maximum spatial batch extension              ...   3.64,  3.54, 23.20 au
Average spatial batch extension              ...   0.32,  0.33,  0.53 au

Final grid set up in    0.4 sec
Final integration                            ... done (   0.2 sec)
Change in XC energy                          ...    -0.000425909
Integrated number of electrons               ...    73.999916120
Previous integrated no of electrons          ...    73.999858782
Total Energy       :        -1151.14679856 Eh          -31324.29689 eV
  Last Energy change         ...   -5.8410e-09  Tolerance :   1.0000e-08
  Last MAX-Density change    ...    4.2306e-05  Tolerance :   1.0000e-07
             **** THE GBW FILE WAS UPDATED (1,2-dichlorobenzene.gbw) ****
             **** DENSITY FILE WAS UPDATED (1,2-dichlorobenzene.scfp) ****
             **** ENERGY FILE WAS UPDATED (1,2-dichlorobenzene.en.tmp) ****
             **** THE GBW FILE WAS UPDATED (1,2-dichlorobenzene.gbw) ****
             **** DENSITY FILE WAS UPDATED (1,2-dichlorobenzene.scfp) ****
Total SCF time: 0 days 0 hours 0 min 3 sec 


-------------------------------------------------------------------------------
                          DFT DISPERSION CORRECTION                            
                                                                               
                              DFTD3 V3.1  Rev 1                                
                          USING Becke-Johnson damping                          
-------------------------------------------------------------------------------
-------------------------   ----------------
Dispersion correction           -0.036025541
-------------------------   ----------------

------------------   -----------------
SRB correction            -0.039130535
------------------   -----------------

-------------------------   --------------------
FINAL SINGLE POINT ENERGY     -1151.221954637577
-------------------------   --------------------



           ************************************************************
           *        Program running with 4 parallel MPI-processes     *
           *              working on a common directory               *
           ************************************************************
------------------------------------------------------------------------------
                         ORCA SCF GRADIENT CALCULATION
------------------------------------------------------------------------------

Gradient of the Kohn-Sham DFT energy:
Kohn-Sham wavefunction type      ... RKS
Hartree-Fock exchange scaling    ...    0.000
Number of operators              ...    1
Number of atoms                  ...   12
Basis set dimensions             ...  170
Integral neglect threshold       ... 2.5e-11
Integral primitive cutoff        ... 2.5e-12

Nuclear repulsion gradient       ... done
One Electron Gradient            ... done
Pre-screening matrix             ... done
RI-J gradient                    ... done
Exchange-correlation gradient    ... done
Dispersion correction            ... done
SRB correction                   ... done

------------------
CARTESIAN GRADIENT
------------------

   1   C   :   -0.001930851    0.001406175    0.000000001
   2   C   :    0.003526666    0.002138781   -0.000000001
   3   C   :   -0.002226524   -0.000759738   -0.000000003
   4   C   :    0.002714233   -0.003099368    0.000000000
   5   C   :    0.004752064    0.000441748   -0.000000000
   6   C   :    0.004373530   -0.001872590    0.000000000
   7   H   :   -0.000524072   -0.000370404   -0.000000000
   8   H   :   -0.001900733    0.000369306   -0.000000000
   9   H   :   -0.000404286    0.000522907    0.000000001
  10   H   :   -0.001938951    0.000224870    0.000000000
  11   Cl  :   -0.003135352    0.001096368    0.000000001
  12   Cl  :   -0.003305725   -0.000098053    0.000000000

Difference to translation invariance:
           :   -0.0000000000    0.0000000000    0.0000000000

Norm of the cartesian gradient     ...    0.0110006603
RMS gradient                       ...    0.0018334434
MAX gradient                       ...    0.0047520644

-------
TIMINGS
-------

Total SCF gradient time            ...        1.711 sec

One electron gradient       ....       0.030 sec  (  1.8%)
Prescreening matrices       ....       0.044 sec  (  2.6%)
RI-J Coulomb gradient       ....       0.301 sec  ( 17.6%)
XC gradient                 ....       1.184 sec  ( 69.2%)
------------------------------------------------------------------------------
                         ORCA GEOMETRY RELAXATION STEP
------------------------------------------------------------------------------

Reading the OPT-File                    .... done
Getting information on internals        .... done
Copying old internal coords+grads       .... done
Making the new internal coordinates     .... (new redundants).... done
Validating the new internal coordinates .... (new redundants).... done
Calculating the B-matrix                .... done
Calculating the G,G- and P matrices     .... done
Transforming gradient to internals      .... done
Projecting the internal gradient        .... done
Number of atoms                         ....  12
Number of internal coordinates          ....  54
Current Energy                          .... -1151.221954638 Eh
Current gradient norm                   ....     0.011000660 Eh/bohr
Maximum allowed component of the step   ....  0.300
Current trust radius                    ....  0.300
Updating the Hessian (BFGS)             .... done
Forming the augmented Hessian           .... done
Diagonalizing the augmented Hessian     .... done
Last element of RFO vector              ....  0.999528353
Lowest eigenvalues of augmented Hessian:
 -0.000263820  0.025164366  0.025201222  0.025224492  0.025508007
Length of the computed step             ....  0.030723946
The final length of the internal step   ....  0.030723946
Converting the step to cartesian space:
 Initial RMS(Int)=    0.0041809995
Transforming coordinates:
 Iter   0:  RMS(Cart)=    0.0061843523 RMS(Int)=    2.7038556829
 Iter   1:  RMS(Cart)=    0.0000323763 RMS(Int)=    0.0000222070
 Iter   2:  RMS(Cart)=    0.0000001700 RMS(Int)=    0.0000001408
 Iter   3:  RMS(Cart)=    0.0000000018 RMS(Int)=    0.0000000011
done
Storing new coordinates                 .... done

                                .--------------------.
          ----------------------|Geometry convergence|-------------------------
          Item                value                   Tolerance       Converged
          ---------------------------------------------------------------------
          Energy change      -0.0010389721            0.0000010000      NO
          RMS gradient        0.0011866245            0.0000300000      NO
          MAX gradient        0.0030958296            0.0001000000      NO
          RMS step            0.0041809995            0.0006000000      NO
          MAX step            0.0114510555            0.0010000000      NO
          ........................................................
          Max(Bonds)      0.0061      Max(Angles)    0.48
          Max(Dihed)        0.00      Max(Improp)    0.00
          ---------------------------------------------------------------------

The optimization has not yet converged - more geometry cycles are needed


    ---------------------------------------------------------------------------
                         Redundant Internal Coordinates
                            (Angstroem and degrees)

        Definition                    Value    dE/dq     Step     New-Value
    ----------------------------------------------------------------------------
     1. B(C   1,C   0)                1.3872  0.002360 -0.0033    1.3839   
     2. B(C   2,C   0)                1.3886  0.000902 -0.0014    1.3872   
     3. B(C   3,C   2)                1.3872  0.002358 -0.0033    1.3839   
     4. B(C   4,C   3)                1.3913  0.002404 -0.0033    1.3880   
     5. B(C   5,C   4)                1.3936  0.000689 -0.0011    1.3924   
     6. B(C   5,C   1)                1.3913  0.002404 -0.0033    1.3880   
     7. B(H   6,C   0)                1.0813  0.000174 -0.0007    1.0806   
     8. B(H   7,C   1)                1.0799  0.000076 -0.0006    1.0794   
     9. B(H   8,C   2)                1.0812  0.000185 -0.0007    1.0805   
    10. B(H   9,C   3)                1.0799  0.000076 -0.0006    1.0793   
    11. B(Cl 10,C   4)                1.7366 -0.003096  0.0061    1.7427   
    12. B(Cl 11,C   5)                1.7366 -0.003083  0.0060    1.7426   
    13. A(C   1,C   0,C   2)          119.98 -0.000057    0.01    119.99   
    14. A(C   1,C   0,H   6)          119.80  0.000664   -0.16    119.65   
    15. A(C   2,C   0,H   6)          120.21 -0.000607    0.15    120.36   
    16. A(C   5,C   1,H   7)          119.81  0.001949   -0.47    119.34   
    17. A(C   0,C   1,C   5)          120.25  0.000058   -0.01    120.24   
[...]
     11       0.000000  -0.152978   0.225643   0.000000   0.053079  -0.000000
     12       0.071116   0.000000   0.000000  -0.228822   0.000000  -0.125468
     13       0.017879  -0.000000   0.000000  -0.048362  -0.000000   0.277175
     14      -0.000000  -0.236056  -0.463585  -0.000000  -0.048406   0.000000
     15       0.061817   0.000000   0.000000  -0.202734  -0.000000   0.203940
     16      -0.038303  -0.000000   0.000000   0.115997  -0.000000   0.225640
     17      -0.000000   0.237758   0.464212   0.000000  -0.047825  -0.000000
     18       0.295775   0.000000   0.000000  -0.084559  -0.000000   0.428036
     19      -0.149195  -0.000000   0.000000  -0.265438   0.000000  -0.037032
     20       0.000000  -0.559362   0.000131  -0.000000  -0.582706  -0.000000
     21       0.311648   0.000000  -0.000000  -0.073858   0.000000  -0.214802
     22       0.056223   0.000000  -0.000000   0.417665  -0.000000   0.112972
     23       0.000000   0.085006  -0.417422  -0.000000  -0.382086   0.000000
     24       0.327388   0.000000  -0.000000  -0.001997   0.000000  -0.419001
     25       0.053000  -0.000000   0.000000   0.279185  -0.000000   0.093071
     26      -0.000000   0.564835  -0.003723  -0.000000  -0.590205  -0.000000
     27       0.280250   0.000000   0.000000  -0.195762  -0.000000   0.239522
     28      -0.147345   0.000000   0.000000  -0.375798   0.000000   0.044272
     29       0.000000  -0.095812   0.423322   0.000000  -0.383981  -0.000001
     30      -0.230375  -0.000000   0.000000   0.052424  -0.000000   0.075711
     31       0.142622   0.000000  -0.000000  -0.053699   0.000000  -0.062024
     32      -0.000000   0.025534   0.018483   0.000000   0.003962   0.000000
     33      -0.263130  -0.000000   0.000000   0.065925   0.000000  -0.091214
     34      -0.066634  -0.000000  -0.000000   0.035248   0.000000  -0.036353
     35       0.000000  -0.025517  -0.018554  -0.000000   0.003971   0.000000
                 18         19         20         21         22         23    
      0       0.000000   0.000000   0.000000   0.176932  -0.132351   0.046593
      1      -0.000000  -0.000000  -0.000000  -0.178601   0.176620   0.010258
      2       0.055043   0.064737  -0.071994   0.000000  -0.000000  -0.000000
      3       0.000000   0.000000   0.000000   0.044735   0.099583   0.033788
      4       0.000000   0.000000   0.000000   0.316683   0.115276  -0.091344
      5       0.094717  -0.091336   0.027860  -0.000000   0.000000   0.000000
      6      -0.000000  -0.000000   0.000000  -0.224920  -0.178526   0.042636
      7      -0.000000  -0.000000   0.000000  -0.118191  -0.128031  -0.025195
      8      -0.055098   0.067556   0.069842  -0.000000   0.000000   0.000000
      9      -0.000000   0.000000  -0.000000   0.053383   0.059679   0.058555
     10       0.000000   0.000000   0.000000   0.313395  -0.141110   0.079486
     11      -0.093430  -0.093607  -0.025987   0.000000  -0.000000  -0.000000
     12      -0.000000   0.000000  -0.000000   0.239582   0.071559  -0.208278
     13       0.000000   0.000000   0.000000  -0.274707  -0.009595   0.157428
     14       0.029130   0.017508  -0.023262  -0.000000   0.000000   0.000000
     15       0.000000   0.000000   0.000000  -0.309609   0.072657  -0.243951
     16       0.000000   0.000000   0.000000  -0.189151  -0.011651  -0.088094
     17      -0.029625   0.017627   0.023053   0.000000  -0.000000  -0.000000
     18      -0.000000   0.000000  -0.000000   0.087141  -0.007970   0.162768
     19      -0.000000   0.000000  -0.000000  -0.287224   0.359224   0.142351
     20      -0.312397  -0.394077   0.620529   0.000000   0.000000   0.000000
     21      -0.000000   0.000000  -0.000000   0.139603   0.539295   0.580065
     22       0.000000  -0.000000   0.000000   0.301799   0.054984  -0.196383
     23      -0.628637   0.562566  -0.351024  -0.000000  -0.000000  -0.000000
     24      -0.000000   0.000000   0.000000  -0.171500  -0.114891   0.118490
     25      -0.000000  -0.000000  -0.000000  -0.251200  -0.340234  -0.198662
     26       0.310650  -0.409583  -0.604185  -0.000000  -0.000000  -0.000000
     27      -0.000000  -0.000000  -0.000000  -0.038478   0.496667   0.602696
     28       0.000000   0.000000   0.000000   0.327202  -0.216335   0.016062
     29       0.620654   0.577912   0.337787  -0.000000   0.000000   0.000000
     30       0.000000  -0.000000   0.000000  -0.026338  -0.011045   0.022650
     31      -0.000000  -0.000000  -0.000000   0.025430   0.005676  -0.019717
     32      -0.002864  -0.001851  -0.000637   0.000000  -0.000000   0.000000
     33      -0.000000  -0.000000  -0.000000   0.032602  -0.012410   0.027420
     34      -0.000000  -0.000000  -0.000000   0.016230  -0.002139   0.012033
     35       0.002890  -0.001791   0.000714  -0.000000  -0.000000  -0.000000
                 24         25         26         27         28         29    
      0      -0.073635  -0.036562   0.002953   0.198094   0.110345  -0.050923
      1      -0.023496  -0.041162  -0.032268   0.242154   0.083078   0.062700
      2       0.000000  -0.000000  -0.000000   0.000000  -0.000000   0.000000
      3       0.077327   0.019315  -0.002130  -0.327564   0.056586   0.174785
      4       0.066513  -0.000634  -0.050870   0.073122  -0.098970  -0.009087
      5      -0.000000  -0.000000   0.000000   0.000000   0.000000   0.000000
      6       0.062786  -0.022459  -0.012362   0.115622  -0.079941  -0.067650
      7      -0.044194   0.050207  -0.030112  -0.290388   0.112528  -0.044164
      8      -0.000000   0.000000   0.000000  -0.000000   0.000000  -0.000000
      9      -0.054568   0.018593  -0.013810  -0.334385  -0.084092   0.169080
     10       0.085783  -0.005284  -0.049065   0.029358  -0.077083  -0.044376
     11       0.000000  -0.000000  -0.000000  -0.000000  -0.000000   0.000000
     12      -0.100502   0.016436   0.111495   0.233406   0.114508  -0.030893
     13       0.007371   0.005800   0.069820   0.365563   0.032442   0.151547
     14      -0.000000  -0.000000   0.000000  -0.000000   0.000000  -0.000000
     15       0.101533   0.013742  -0.085027   0.112235  -0.099339  -0.075699
     16      -0.022044  -0.010286   0.100093  -0.419484   0.066001  -0.134917
     17       0.000000   0.000000  -0.000000   0.000000  -0.000000   0.000000
     18      -0.404138  -0.400972   0.097150  -0.200743  -0.366685  -0.229942
     19      -0.422416  -0.486682   0.077878  -0.243961  -0.514284  -0.129724
     20      -0.000000  -0.000000  -0.000000  -0.000000  -0.000000  -0.000000
     21       0.359395   0.311231   0.659783   0.038131  -0.221755  -0.596175
     22       0.028228  -0.048669  -0.167252   0.012266  -0.071001   0.117869
     23       0.000000   0.000000  -0.000000  -0.000000   0.000000   0.000000
     24       0.256230  -0.235231  -0.068358  -0.117268   0.194603  -0.179673
     25      -0.521696   0.584936   0.102047   0.292161  -0.601437   0.192008
     26       0.000000  -0.000000   0.000000  -0.000000   0.000000  -0.000000
     27      -0.344027   0.309819  -0.680180   0.036123   0.191164  -0.604261
     28       0.135560  -0.047448   0.039932  -0.023595  -0.134698   0.067421
     29      -0.000000   0.000000  -0.000000   0.000000  -0.000000  -0.000000
     30       0.008645  -0.001242  -0.003522   0.003606  -0.003364   0.002051
     31      -0.002021   0.000741  -0.001538  -0.002420  -0.000707  -0.005042
     32       0.000000  -0.000000  -0.000000  -0.000000  -0.000000  -0.000000
     33      -0.009261  -0.001399   0.002904   0.004203   0.003006   0.003512
     34       0.000515  -0.000342  -0.002532   0.001262  -0.001698   0.004202
     35      -0.000000  -0.000000   0.000000   0.000000   0.000000  -0.000000
                 30         31         32         33         34         35    
      0      -0.142672  -0.237399  -0.047884   0.035931   0.016291  -0.026786
      1      -0.333748  -0.062780   0.037850  -0.032424  -0.009513   0.021843
      2      -0.000000  -0.000000   0.000000  -0.000000   0.000000   0.000000
      3       0.003178   0.332567  -0.001474   0.003297  -0.010390   0.009198
      4       0.157499  -0.024942  -0.016767   0.031861  -0.061281   0.048624
      5       0.000000  -0.000000   0.000000   0.000000  -0.000000   0.000000
      6      -0.033911   0.207603   0.050962   0.049745  -0.016140  -0.035210
      7       0.360642  -0.133553   0.018934   0.022248  -0.003313  -0.013636
      8       0.000000   0.000000   0.000000  -0.000000  -0.000000  -0.000000
      9      -0.046620  -0.324365  -0.003086  -0.007010  -0.007913  -0.006590
     10      -0.150713   0.077587  -0.014215  -0.034124  -0.056220  -0.054140
     11      -0.000000  -0.000000  -0.000000   0.000000   0.000000   0.000000
     12       0.116604   0.164730   0.000210   0.000787   0.002483   0.002317
     13       0.226546   0.019651  -0.000186  -0.000345   0.000599  -0.000213
     14      -0.000000   0.000000   0.000000   0.000000  -0.000000  -0.000000
     15       0.041665  -0.151421  -0.000282   0.000781  -0.002400   0.002069
     16      -0.250794   0.069945  -0.000141   0.000101   0.001361  -0.000371
     17      -0.000000   0.000000  -0.000000  -0.000000   0.000000   0.000000
     18       0.388783   0.064474   0.554060  -0.421401  -0.160526   0.289329
     19       0.292704   0.334096  -0.450514   0.348459   0.126354  -0.236680
     20       0.000000   0.000000  -0.000000   0.000000   0.000000  -0.000000
     21       0.136113  -0.415833   0.032018  -0.059193   0.116405  -0.092890
     22       0.153105   0.104805   0.204133  -0.372410   0.697778  -0.547722
     23      -0.000000   0.000000   0.000000  -0.000000   0.000000  -0.000000
     24       0.283053   0.037949  -0.594484  -0.573745   0.167345   0.381161
     25      -0.395305   0.340262  -0.234002  -0.231280   0.062546   0.151260
     26      -0.000000  -0.000000   0.000000   0.000000  -0.000000  -0.000000
     27       0.086424   0.428313   0.026853   0.060980   0.091288   0.084887
     28      -0.187401  -0.024709   0.176902   0.406028   0.640190   0.606812
     29       0.000000   0.000000   0.000000  -0.000000  -0.000000  -0.000000
     30      -0.002555   0.001009   0.000026  -0.000022  -0.000070  -0.000097
     31      -0.001637  -0.001752  -0.000006   0.000036   0.000048   0.000068
     32      -0.000000   0.000000  -0.000000  -0.000000   0.000000   0.000000
     33      -0.001952  -0.001470  -0.000024  -0.000035   0.000093  -0.000105
     34       0.002334  -0.001372   0.000004  -0.000027   0.000029  -0.000033
     35       0.000000  -0.000000   0.000000  -0.000000  -0.000000   0.000000


-----------
IR SPECTRUM
-----------

 Mode    freq (cm**-1)   T**2         TX         TY         TZ
-------------------------------------------------------------------
   6:       131.28    0.000007  (  0.000000  -0.000003  -0.002611)
   7:       199.13    0.032282  (  0.177777  -0.026019   0.000000)
   8:       225.67    1.512808  ( -0.000004  -0.000000   1.229962)
   9:       337.13    0.508125  (  0.107943   0.704608  -0.000000)
  10:       424.91    0.985355  (  0.144866   0.982023  -0.000000)
  11:       433.11    5.631379  (  0.000001   0.000001   2.373053)
  12:       473.90    9.589169  (  3.059919  -0.475465   0.000000)
  13:       500.15    0.000201  (  0.000002   0.000008  -0.014167)
  14:       633.44    0.000019  ( -0.000013  -0.000029   0.004339)
  15:       671.39   16.465427  ( -4.008604   0.629696  -0.000001)
  16:       737.44   65.000545  (  0.000005  -0.000001  -8.062292)
  17:       746.47   23.400540  (  0.743640   4.779910  -0.000002)
  18:       830.10    0.001478  (  0.000001   0.000007  -0.038443)
  19:       890.93    1.141179  (  0.000002   0.000001   1.068260)
  20:       909.79    0.000908  ( -0.000001   0.000004   0.030140)
  21:      1045.02   39.551232  ( -0.939717  -6.218373   0.000000)
  22:      1051.97   13.001621  (  3.565893  -0.534815  -0.000000)
  23:      1130.07   53.709400  ( -7.242915   1.117845  -0.000000)
  24:      1143.53    0.970057  (  0.218068   0.960471   0.000000)
  25:      1183.07    0.206199  (  0.448822  -0.068982   0.000000)
  26:      1272.44    3.763128  ( -0.293568  -1.917536   0.000000)
  27:      1327.75    1.238015  ( -1.100860   0.161625  -0.000000)
  28:      1456.40   17.316119  ( -0.637894  -4.112081   0.000001)
  29:      1482.09   63.492790  ( -7.876901   1.203005  -0.000000)
  30:      1596.23    3.297732  ( -1.796009   0.268486  -0.000000)
  31:      1603.47    8.767001  ( -0.442212  -2.927704   0.000000)
  32:      3138.17    2.445686  (  0.001855   1.563868   0.000000)
  33:      3148.59   13.128854  (  3.588721  -0.499933  -0.000000)
  34:      3159.63    8.989790  ( -0.376757  -2.974533  -0.000000)
  35:      3163.40    6.608444  ( -2.560382   0.229977  -0.000000)

The first frequency considered to be a vibration is 6
The total number of vibrations considered is 30


--------------------------
THERMOCHEMISTRY AT 298.15K
--------------------------

Temperature         ... 298.15 K
Pressure            ... 1.00 atm
Total Mass          ... 147.00 AMU

Throughout the following assumptions are being made:
  (1) The electronic state is orbitally nondegenerate
  (2) There are no thermally accessible electronically excited states
  (3) Hindered rotations indicated by low frequency modes are not
      treated as such but are treated as vibrations and this may
      cause some error
  (4) All equations used are the standard statistical mechanics
      equations for an ideal gas
  (5) All vibrations are strictly harmonic

freq.     131.28  E(vib)   ...       0.42 
freq.     199.13  E(vib)   ...       0.35 
freq.     225.67  E(vib)   ...       0.33 
freq.     337.13  E(vib)   ...       0.24 
freq.     424.91  E(vib)   ...       0.18 
freq.     433.11  E(vib)   ...       0.17 
freq.     473.90  E(vib)   ...       0.15 
freq.     500.15  E(vib)   ...       0.14 
freq.     633.44  E(vib)   ...       0.09 
freq.     671.39  E(vib)   ...       0.08 
freq.     737.44  E(vib)   ...       0.06 
freq.     746.47  E(vib)   ...       0.06 
freq.     830.10  E(vib)   ...       0.04 
freq.     890.93  E(vib)   ...       0.04 
freq.     909.79  E(vib)   ...       0.03 
freq.    1045.02  E(vib)   ...       0.02 
freq.    1051.97  E(vib)   ...       0.02 
freq.    1130.07  E(vib)   ...       0.01 
freq.    1143.53  E(vib)   ...       0.01 
freq.    1183.07  E(vib)   ...       0.01 
freq.    1272.44  E(vib)   ...       0.01 
freq.    1327.75  E(vib)   ...       0.01 
freq.    1456.40  E(vib)   ...       0.00 
freq.    1482.09  E(vib)   ...       0.00 
freq.    1596.23  E(vib)   ...       0.00 
freq.    1603.47  E(vib)   ...       0.00 
freq.    3138.17  E(vib)   ...       0.00 
freq.    3148.59  E(vib)   ...       0.00 
freq.    3159.63  E(vib)   ...       0.00 
freq.    3163.40  E(vib)   ...       0.00 

------------
INNER ENERGY
------------

The inner energy is: U= E(el) + E(ZPE) + E(vib) + E(rot) + E(trans)
    E(el)   - is the total energy from the electronic structure calculation
              = E(kin-el) + E(nuc-el) + E(el-el) + E(nuc-nuc)
    E(ZPE)  - the the zero temperature vibrational energy from the frequency calculation
    E(vib)  - the the finite temperature correction to E(ZPE) due to population
              of excited vibrational states
    E(rot)  - is the rotational thermal energy
    E(trans)- is the translational thermal energy

Summary of contributions to the inner energy U:
Electronic energy                ...  -1151.22212207 Eh
Zero point energy                ...      0.07984215 Eh      50.10 kcal/mol
Thermal vibrational correction   ...      0.00397002 Eh       2.49 kcal/mol
Thermal rotational correction    ...      0.00141627 Eh       0.89 kcal/mol
Thermal translational correction ...      0.00141627 Eh       0.89 kcal/mol
-----------------------------------------------------------------------
Total thermal energy                  -1151.13547735 Eh


Summary of corrections to the electronic energy:
(perhaps to be used in another calculation)
Total thermal correction                  0.00680256 Eh       4.27 kcal/mol
Non-thermal (ZPE) correction              0.07984215 Eh      50.10 kcal/mol
-----------------------------------------------------------------------
Total correction                          0.08664472 Eh      54.37 kcal/mol


--------
ENTHALPY
--------

The enthalpy is H = U + kB*T
                kB is Boltzmann's constant
Total free energy                 ...  -1151.13547735 Eh 
Thermal Enthalpy correction       ...      0.00094421 Eh       0.59 kcal/mol
-----------------------------------------------------------------------
Total Enthalpy                    ...  -1151.13453314 Eh


Note: Rotational entropy computed according to Herzberg 
Infrared and Raman Spectra, Chapter V,1, Van Nostrand Reinhold, 1945 
Point Group:  Cs, Symmetry Number:   1  
Rotational constants in cm-1:     0.063189     0.047380     0.027077 

Vibrational entropy computed according to the QRRHO of S. Grimme
Chem.Eur.J. 2012 18 9955


-------
ENTROPY
-------

The entropy contributions are T*S = T*(S(el)+S(vib)+S(rot)+S(trans))
     S(el)   - electronic entropy
     S(vib)  - vibrational entropy
     S(rot)  - rotational entropy
     S(trans)- translational entropy
The entropies will be listed as mutliplied by the temperature to get
units of energy

Electronic entropy                ...      0.00000000 Eh      0.00 kcal/mol
Vibrational entropy               ...      0.00635259 Eh      3.99 kcal/mol
Rotational entropy                ...      0.01395803 Eh      8.76 kcal/mol
Translational entropy             ...      0.01941692 Eh     12.18 kcal/mol
-----------------------------------------------------------------------
Final entropy term                ...      0.03972753 Eh     24.93 kcal/mol

In case the symmetry of your molecule has not been determined correctly
or in case you have a reason to use a different symmetry number we print 
out the resulting rotational entropy values for sn=1,12 :
 --------------------------------------------------------
|  sn= 1 | S(rot)=       0.01395803 Eh      8.76 kcal/mol|
|  sn= 2 | S(rot)=       0.01330357 Eh      8.35 kcal/mol|
|  sn= 3 | S(rot)=       0.01292074 Eh      8.11 kcal/mol|
|  sn= 4 | S(rot)=       0.01264912 Eh      7.94 kcal/mol|
|  sn= 5 | S(rot)=       0.01243843 Eh      7.81 kcal/mol|
|  sn= 6 | S(rot)=       0.01226629 Eh      7.70 kcal/mol|
|  sn= 7 | S(rot)=       0.01212074 Eh      7.61 kcal/mol|
|  sn= 8 | S(rot)=       0.01199466 Eh      7.53 kcal/mol|
|  sn= 9 | S(rot)=       0.01188345 Eh      7.46 kcal/mol|
|  sn=10 | S(rot)=       0.01178397 Eh      7.39 kcal/mol|
|  sn=11 | S(rot)=       0.01169398 Eh      7.34 kcal/mol|
|  sn=12 | S(rot)=       0.01161183 Eh      7.29 kcal/mol|
 --------------------------------------------------------


-------------------
GIBBS FREE ENERGY
-------------------

The Gibbs free energy is G = H - T*S

Total enthalpy                    ...  -1151.13453314 Eh 
Total entropy correction          ...     -0.03972753 Eh    -24.93 kcal/mol
-----------------------------------------------------------------------
Final Gibbs free energy         ...  -1151.17426068 Eh

For completeness - the Gibbs free energy minus the electronic energy
G-E(el)                           ...      0.04786139 Eh     30.03 kcal/mol


Timings for individual modules:

Sum of individual times         ...      111.409 sec (=   1.857 min)
GTO integral calculation        ...        3.064 sec (=   0.051 min)   2.8 %
SCF iterations                  ...       27.518 sec (=   0.459 min)  24.7 %
SCF Gradient evaluation         ...       13.817 sec (=   0.230 min)  12.4 %
Geometry relaxation             ...        0.344 sec (=   0.006 min)   0.3 %
Analytical frequency calculation...       66.667 sec (=   1.111 min)  59.8 %
                             ****ORCA TERMINATED NORMALLY****
TOTAL RUN TIME: 0 days 0 hours 1 minutes 52 seconds 622 msec
