
                                 *****************
                                 * O   R   C   A *
                                 *****************

           --- An Ab Initio, DFT and Semiempirical electronic structure package ---

                  #######################################################
                  #                        -***-                        #
                  #          Department of theory and spectroscopy      #
                  #               Directorship: Frank Neese             #
                  #        Max Planck Institute fuer Kohlenforschung    #
                  #                Kaiser Wilhelm Platz 1               #
                  #                 D-45470 Muelheim/Ruhr               #
                  #                      Germany                        #
                  #                                                     #
                  #                  All rights reserved                #
                  #                        -***-                        #
                  #######################################################


                         Program Version 4.2.1 -  RELEASE  -


 With contributions from (in alphabetic order):
   Daniel Aravena         : Magnetic Suceptibility
   Michael Atanasov       : Ab Initio Ligand Field Theory (pilot matlab implementation)
   Alexander A. Auer      : GIAO ZORA, VPT2
   Ute Becker             : Parallelization
   Giovanni Bistoni       : ED, misc. LED, open-shell LED, HFLD
   Martin Brehm           : Molecular dynamics
   Dmytro Bykov           : SCF Hessian
   Vijay G. Chilkuri      : MRCI spin determinant printing, contributions to CSF-ICE
   Dipayan Datta          : RHF DLPNO-CCSD density
   Achintya Kumar Dutta   : EOM-CC, STEOM-CC
   Dmitry Ganyushin       : Spin-Orbit,Spin-Spin,Magnetic field MRCI
   Miquel Garcia          : C-PCM Hessian, Gaussian charge scheme
   Yang Guo               : DLPNO-NEVPT2, CIM, IAO-localization
   Andreas Hansen         : Spin unrestricted coupled pair/coupled cluster methods
   Benjamin Helmich-Paris : CASSCF linear response (MC-RPA)
   Lee Huntington         : MR-EOM, pCC
   Robert Izsak           : Overlap fitted RIJCOSX, COSX-SCS-MP3, EOM
   Christian Kollmar      : KDIIS, OOCD, Brueckner-CCSD(T), CCSD density
   Simone Kossmann        : Meta GGA functionals, TD-DFT gradient, OOMP2, MP2 Hessian
   Martin Krupicka        : AUTO-CI
   Lucas Lang             : DCDCAS
   Dagmar Lenk            : GEPOL surface, SMD
   Dimitrios Liakos       : Extrapolation schemes; Compound Job, initial MDCI parallelization
   Dimitrios Manganas     : Further ROCIS development; embedding schemes
   Dimitrios Pantazis     : SARC Basis sets
   Taras Petrenko         : DFT Hessian,TD-DFT gradient, ASA, ECA, R-Raman, ABS, FL, XAS/XES, NRVS
   Peter Pinski           : DLPNO-MP2, DLPNO-MP2 Gradient
   Christoph Reimann      : Effective Core Potentials
   Marius Retegan         : Local ZFS, SOC
   Christoph Riplinger    : Optimizer, TS searches, QM/MM, DLPNO-CCSD(T), (RO)-DLPNO pert. Triples
   Tobias Risthaus        : Range-separated hybrids, TD-DFT gradient, RPA, STAB
   Michael Roemelt        : Original ROCIS implementation
   Masaaki Saitow         : Open-shell DLPNO-CCSD energy and density
   Barbara Sandhoefer     : DKH picture change effects
   Avijit Sen             : IP-ROCIS
   Kantharuban Sivalingam : CASSCF convergence, NEVPT2, FIC-MRCI
   Bernardo de Souza      : ESD, SOC TD-DFT
   Georgi Stoychev        : AutoAux, RI-MP2 NMR
   Willem Van den Heuvel  : Paramagnetic NMR
   Boris Wezisla          : Elementary symmetry handling
   Frank Wennmohs         : Technical directorship


 We gratefully acknowledge several colleagues who have allowed us to
 interface, adapt or use parts of their codes:
   Stefan Grimme, W. Hujo, H. Kruse,             : VdW corrections, initial TS optimization,
                  C. Bannwarth                     DFT functionals, gCP, sTDA/sTD-DF
   Ed Valeev, F. Pavosevic, A. Kumar             : LibInt (2-el integral package), F12 methods
   Garnet Chan, S. Sharma, J. Yang, R. Olivares  : DMRG
   Ulf Ekstrom                                   : XCFun DFT Library
   Mihaly Kallay                                 : mrcc  (arbitrary order and MRCC methods)
   Andreas Klamt, Michael Diedenhofen            : otool_cosmo (COSMO solvation model)
   Jiri Pittner, Ondrej Demel                    : Mk-CCSD
   Frank Weinhold                                : gennbo (NPA and NBO analysis)
   Christopher J. Cramer and Donald G. Truhlar   : smd solvation model
   Lars Goerigk                                  : TD-DFT with DH, B97 family of functionals
   V. Asgeirsson, H. Jonsson                     : NEB implementation
   FAccTs GmbH                                   : IRC, NEB, NEB-TS, Multilevel, MM, QM/MM, CI optimization
   S Lehtola, MJT Oliveira, MAL Marques          : LibXC Library


 Your calculation uses the libint2 library for the computation of 2-el integrals
 For citations please refer to: http://libint.valeyev.net

 Your ORCA version has been built with support for libXC version: 4.2.3
 For citations please refer to: https://tddft.org/programs/libxc/

 This ORCA versions uses:
   CBLAS   interface :  Fast vector & matrix operations
   LAPACKE interface :  Fast linear algebra routines
   SCALAPACK package :  Parallel linear algebra routines


Your calculation utilizes the atom-pairwise dispersion correction
with the Becke-Johnson damping scheme (D3BJ)
Cite in your paper:
S.Grimme, S.Ehrlich, L.Goerigk, J Comput Chem, (2011), 32, 1456–1465 
S.Grimme, J.Antony, S.Ehrlich and H.Krieg, J.Chem.Phys., 132, (2010), 154104 
   

Your calculation employs the composite approach B97-3c by Grimme and coworkers.
For the correct reference, please check the publication list of the Grimme group:
http://www.thch.uni-bonn.de/tc/index.php?section=publikationen&subsection=grimme#2017
   

XCFun DFT library Copyright 2009-2010 Ulf Ekstrom and contributors.
See http://admol.org/xcfun for more information. This is free soft-
ware; see the source code for copying conditions. There is ABSOLUTELY
NO WARRANTY; not even for MERCHANTABILITY or FITNESS FOR A PARTICULAR
PURPOSE. For details see the documentation. Scientific users of this 
library should cite U. Ekstrom, L. Visscher, R. Bast, A. J. Thorvald-
sen and K. Ruud; J.Chem.Theor.Comp. 2010, DOI: 10.1021/ct100117s
XCFun Version 0.99 
----- Orbital basis set information -----
Your calculation utilizes the basis: def2-mTZVP
----- AuxJ basis set information -----
Your calculation utilizes the basis: def2-mTZVP/J
================================================================================
                                        WARNINGS
                       Please study these warnings very carefully!
================================================================================


WARNING: Geometry Optimization
  ===> : Switching off AutoStart
         For restart on a previous wavefunction, please use MOREAD

INFO   : the flag for use of LIBINT has been found!

================================================================================
                                       INPUT FILE
================================================================================
NAME = 1,4-dichlorobenzene.inp
|  1> ! B97-3c Opt Freq TightOpt TightSCF
|  2> 
|  3> %pal
|  4>  nprocs 4
|  5> end
|  6> 
|  7> *xyz 0 1
|  8> C        1.856873000      1.370646000     -0.904202000
|  9> C        2.290175000      2.521100000     -0.213196000
| 10> C        3.645716000      2.655661000      0.151729000
| 11> C        4.567894000      1.639866000     -0.174369000
| 12> C        2.779087000      0.354801000     -1.230293000
| 13> C        4.134617000      0.489470000     -0.865366000
| 14> H        1.567714000      3.317125000      0.042257000
| 15> H        5.629970000      1.745301000      0.111580000
| 16> H        4.857115000     -0.306505000     -1.120919000
| 17> H        0.794845000      1.265216000     -1.190139000
| 18> Cl       2.235423588     -1.089259933     -2.097482781
| 19> Cl       4.189360067      4.099631954      1.019080723
| 20> *
| 21> 
| 22>                          ****END OF INPUT****
================================================================================

                       *****************************
                       * Geometry Optimization Run *
                       *****************************

Geometry optimization settings:
Update method            Update   .... BFGS
Choice of coordinates    CoordSys .... Z-matrix Internals
Initial Hessian          InHess   .... Almoef's Model

Convergence Tolerances:
Energy Change            TolE     ....  1.0000e-06 Eh
Max. Gradient            TolMAXG  ....  1.0000e-04 Eh/bohr
RMS Gradient             TolRMSG  ....  3.0000e-05 Eh/bohr
Max. Displacement        TolMAXD  ....  1.0000e-03 bohr
RMS Displacement         TolRMSD  ....  6.0000e-04 bohr
Strict Convergence                ....  False
------------------------------------------------------------------------------
                        ORCA OPTIMIZATION COORDINATE SETUP
------------------------------------------------------------------------------

The optimization will be done in new redundant internal coordinates
Making redundant internal coordinates   ...  (new redundants) done
Evaluating the initial hessian          ...  (Almloef) done
Evaluating the coordinates              ...  done
Calculating the B-matrix                .... done
Calculating the G-matrix                .... done
Diagonalizing the G-matrix              .... done
The first mode is                       ....   24
The number of degrees of freedom        ....   30

    -----------------------------------------------------------------
                    Redundant Internal Coordinates


    -----------------------------------------------------------------
         Definition                    Initial Value    Approx d2E/dq
    -----------------------------------------------------------------
      1. B(C   1,C   0)                  1.4102         0.580020   
      2. B(C   2,C   1)                  1.4102         0.580032   
      3. B(C   3,C   2)                  1.4102         0.580165   
      4. B(C   4,C   0)                  1.4102         0.580042   
      5. B(C   5,C   4)                  1.4102         0.580031   
      6. B(C   5,C   3)                  1.4102         0.580146   
      7. B(H   6,C   1)                  1.1049         0.340886   
      8. B(H   7,C   3)                  1.1049         0.340871   
      9. B(H   8,C   5)                  1.1049         0.340872   
     10. B(H   9,C   0)                  1.1049         0.340933   
     11. B(Cl 10,C   4)                  1.7700         0.347111   
     12. B(Cl 11,C   2)                  1.7700         0.347111   
     13. A(C   4,C   0,H   9)          120.0000         0.345761   
     14. A(C   1,C   0,H   9)          119.9989         0.345759   
     15. A(C   1,C   0,C   4)          120.0011         0.423812   
     16. A(C   0,C   1,C   2)          119.9981         0.423811   
     17. A(C   2,C   1,H   6)          119.9952         0.345752   
     18. A(C   0,C   1,H   6)          120.0067         0.345751   
     19. A(C   3,C   2,Cl 11)          120.0074         0.404291   
     20. A(C   1,C   2,C   3)          120.0007         0.423830   
     21. A(C   1,C   2,Cl 11)          119.9919         0.404275   
     22. A(C   5,C   3,H   7)          119.9988         0.345761   
     23. A(C   2,C   3,H   7)          119.9999         0.345763   
     24. A(C   2,C   3,C   5)          120.0013         0.423845   
     25. A(C   0,C   4,Cl 10)          120.0078         0.404276   
     26. A(C   0,C   4,C   5)          119.9969         0.423814   
     27. A(C   5,C   4,Cl 10)          119.9953         0.404275   
     28. A(C   4,C   5,H   8)          119.9917         0.345750   
     29. A(C   3,C   5,C   4)          120.0020         0.423827   
     30. A(C   3,C   5,H   8)          120.0063         0.345761   
     31. D(H   6,C   1,C   0,C   4)    179.9939         0.023114   
     32. D(H   6,C   1,C   0,H   9)     -0.0036         0.023114   
     33. D(C   2,C   1,C   0,H   9)   -179.9987         0.023114   
     34. D(C   2,C   1,C   0,C   4)     -0.0012         0.023114   
     35. D(Cl 11,C   2,C   1,C   0)   -179.9970         0.023115   
     36. D(C   3,C   2,C   1,C   0)      0.0022         0.023115   
     37. D(C   3,C   2,C   1,H   6)   -179.9929         0.023115   
     38. D(Cl 11,C   2,C   1,H   6)      0.0079         0.023115   
     39. D(H   7,C   3,C   2,Cl 11)      0.0005         0.023126   
     40. D(H   7,C   3,C   2,C   1)   -179.9987         0.023126   
     41. D(C   5,C   3,C   2,Cl 11)    179.9980         0.023126   
     42. D(C   5,C   3,C   2,C   1)     -0.0011         0.023126   
     43. D(Cl 10,C   4,C   0,C   1)    179.9961         0.023115   
     44. D(C   5,C   4,C   0,H   9)    179.9965         0.023115   
     45. D(C   5,C   4,C   0,C   1)     -0.0009         0.023115   
     46. D(Cl 10,C   4,C   0,H   9)     -0.0064         0.023115   
     47. D(H   8,C   5,C   4,Cl 10)      0.0039         0.023115   
     48. D(C   3,C   5,C   4,Cl 10)   -179.9950         0.023115   
     49. D(C   3,C   5,C   4,C   0)      0.0020         0.023115   
     50. D(H   8,C   5,C   3,H   7)     -0.0023         0.023124   
     51. D(H   8,C   5,C   3,C   2)   -179.9999         0.023124   
     52. D(H   8,C   5,C   4,C   0)   -179.9991         0.023115   
     53. D(C   4,C   5,C   3,H   7)    179.9966         0.023124   
     54. D(C   4,C   5,C   3,C   2)     -0.0010         0.023124   
    -----------------------------------------------------------------

Number of atoms                         .... 12
Number of degrees of freedom            .... 54

         *************************************************************
         *                GEOMETRY OPTIMIZATION CYCLE   1            *
         *************************************************************
---------------------------------
CARTESIAN COORDINATES (ANGSTROEM)
---------------------------------
  C      1.856873    1.370646   -0.904202
  C      2.290175    2.521100   -0.213196
  C      3.645716    2.655661    0.151729
  C      4.567894    1.639866   -0.174369
  C      2.779087    0.354801   -1.230293
  C      4.134617    0.489470   -0.865366
  H      1.567714    3.317125    0.042257
  H      5.629970    1.745301    0.111580
  H      4.857115   -0.306505   -1.120919
  H      0.794845    1.265216   -1.190139
  Cl     2.235424   -1.089260   -2.097483
  Cl     4.189360    4.099632    1.019081

----------------------------
CARTESIAN COORDINATES (A.U.)
----------------------------
  NO LB      ZA    FRAG     MASS         X           Y           Z
   0 C     6.0000    0    12.011    3.508981    2.590146   -1.708694
   1 C     6.0000    0    12.011    4.327804    4.764189   -0.402882
   2 C     6.0000    0    12.011    6.889405    5.018472    0.286726
   3 C     6.0000    0    12.011    8.632069    3.098898   -0.329510
   4 C     6.0000    0    12.011    5.251713    0.670477   -2.324917
   5 C     6.0000    0    12.011    7.813294    0.924964   -1.635305
   6 H     1.0000    0     1.008    2.962550    6.268458    0.079854
   7 H     1.0000    0     1.008   10.639101    3.298141    0.210856
   8 H     1.0000    0     1.008    9.178617   -0.579211   -2.118230
   9 H     1.0000    0     1.008    1.502039    2.390912   -2.249037
  10 Cl   17.0000    0    35.453    4.224338   -2.058403   -3.963668
  11 Cl   17.0000    0    35.453    7.916743    7.747182    1.925783

--------------------------------
INTERNAL COORDINATES (ANGSTROEM)
--------------------------------
 C      0   0   0     0.000000000000     0.00000000     0.00000000
 C      1   0   0     1.410242646269     0.00000000     0.00000000
 C      2   1   0     1.410236973358   119.99807293     0.00000000
 C      3   2   1     1.410174333660   120.00074496     0.00000000
 C      1   2   3     1.410232273812   120.00105667     0.00000000
 C      4   3   2     1.410183239708   120.00128494     0.00000000
 H      2   1   3     1.104926211272   120.00674573   179.99509942
 H      4   3   2     1.104938369142   119.99989446   180.00129514
 H      6   4   3     1.104937507933   120.00632117   180.00013819
 H      1   2   3     1.104888648531   119.99893250   180.00134971
 Cl     5   1   2     1.770000000010   120.00782695   179.99611003
 Cl     3   2   1     1.769999999709   119.99185283   180.00304354

---------------------------
INTERNAL COORDINATES (A.U.)
---------------------------
 C      0   0   0     0.000000000000     0.00000000     0.00000000
 C      1   0   0     2.664972383825     0.00000000     0.00000000
 C      2   1   0     2.664961663577   119.99807293     0.00000000
 C      3   2   1     2.664843291702   120.00074496     0.00000000
 C      1   2   3     2.664952782722   120.00105667     0.00000000
 C      4   3   2     2.664860121694   120.00128494     0.00000000
 H      2   1   3     2.088007937495   120.00674573   179.99509942
 H      4   3   2     2.088030912540   119.99989446   180.00129514
 H      6   4   3     2.088029285092   120.00632117   180.00013819
 H      1   2   3     2.087936954202   119.99893250   180.00134971
 Cl     5   1   2     3.344815257059   120.00782695   179.99611003
 Cl     3   2   1     3.344815256491   119.99185283   180.00304354

---------------------
BASIS SET INFORMATION
---------------------
There are 3 groups of distinct atoms

 Group   1 Type C   : 11s6p1d contracted to 5s3p1d pattern {62111/411/1}
 Group   2 Type H   : 5s contracted to 3s pattern {311}
 Group   3 Type Cl  : 14s9p1d contracted to 5s4p1d pattern {73211/6111/1}

Atom   0C    basis set group =>   1
Atom   1C    basis set group =>   1
Atom   2C    basis set group =>   1
Atom   3C    basis set group =>   1
Atom   4C    basis set group =>   1
Atom   5C    basis set group =>   1
Atom   6H    basis set group =>   2
Atom   7H    basis set group =>   2
Atom   8H    basis set group =>   2
Atom   9H    basis set group =>   2
Atom  10Cl   basis set group =>   3
Atom  11Cl   basis set group =>   3
---------------------------------
AUXILIARY/J BASIS SET INFORMATION
---------------------------------
There are 3 groups of distinct atoms

 Group   1 Type C   : 8s3p3d contracted to 6s3p3d pattern {311111/111/111}
 Group   2 Type H   : 5s2p contracted to 3s1p pattern {311/2}
 Group   3 Type Cl  : 14s5p5d2f1g contracted to 8s4p3d1f1g pattern {71111111/2111/311/2/1}

Atom   0C    basis set group =>   1
Atom   1C    basis set group =>   1
Atom   2C    basis set group =>   1
Atom   3C    basis set group =>   1
Atom   4C    basis set group =>   1
Atom   5C    basis set group =>   1
Atom   6H    basis set group =>   2
Atom   7H    basis set group =>   2
Atom   8H    basis set group =>   2
Atom   9H    basis set group =>   2
Atom  10Cl   basis set group =>   3
Atom  11Cl   basis set group =>   3


           ************************************************************
           *        Program running with 4 parallel MPI-processes     *
           *              working on a common directory               *
           ************************************************************
------------------------------------------------------------------------------
                           ORCA GTO INTEGRAL CALCULATION
                           -- RI-GTO INTEGRALS CHOSEN --
------------------------------------------------------------------------------

                         BASIS SET STATISTICS AND STARTUP INFO

Gaussian basis set:
 # of primitive gaussian shells          ...  176
 # of primitive gaussian functions       ...  316
 # of contracted shells                  ...   86
 # of contracted basis functions         ...  170
 Highest angular momentum                ...    2
 Maximum contraction depth               ...    7
Auxiliary gaussian basis set:
 # of primitive gaussian shells          ...  166
 # of primitive gaussian functions       ...  390
 # of contracted shells                  ...  122
 # of contracted aux-basis functions     ...  306
 Highest angular momentum                ...    4
 Maximum contraction depth               ...    7
Ratio of auxiliary to basis functions    ...  1.80
Integral package used                  ... LIBINT
 One Electron integrals                  ... done
 Ordering auxiliary basis shells         ... done
 Integral threshhold             Thresh  ...  2.500e-11
 Primitive cut-off               TCut    ...  2.500e-12
 Pre-screening matrix                    ... done
 Shell pair data                         ... 
 Ordering of the shell pairs             ... done (   0.001 sec) 3376 of 3741 pairs
 Determination of significant pairs      ... done (   0.000 sec)
 Creation of shell pair data             ... done (   0.001 sec)
 Storage of shell pair data              ... done (   0.014 sec)
 Shell pair data done in (   0.015 sec)
 Computing two index integrals           ... done
 Cholesky decomposition of the V-matrix  ... done


Timings:
 Total evaluation time                   ...   0.164 sec (  0.003 min)
 One electron matrix time                ...   0.021 sec (  0.000 min) = 13.1%
 Schwartz matrix evaluation time         ...   0.104 sec (  0.002 min) = 63.3%
 Two index repulsion integral time       ...   0.003 sec (  0.000 min) =  1.7%
 Cholesky decomposition of V             ...   0.004 sec (  0.000 min) =  2.3%
 Three index repulsion integral time     ...   0.000 sec (  0.000 min) =  0.0%



           ************************************************************
           *        Program running with 4 parallel MPI-processes     *
           *              working on a common directory               *
           ************************************************************
-------------------------------------------------------------------------------
                                 ORCA SCF
-------------------------------------------------------------------------------

------------
SCF SETTINGS
------------
Hamiltonian:
 Density Functional     Method          .... DFT(GTOs)
 Exchange Functional    Exchange        .... B973C
 Correlation Functional Correlation     .... B973C
 Gradients option       PostSCFGGA      .... off
   Density functional embedding theory  .... OFF
 RI-approximation to the Coulomb term is turned on
   Number of auxiliary basis functions  .... 306


General Settings:
 Integral files         IntName         .... 1,4-dichlorobenzene
 Hartree-Fock type      HFTyp           .... RHF
 Total Charge           Charge          ....    0
 Multiplicity           Mult            ....    1
 Number of Electrons    NEL             ....   74
 Basis Dimension        Dim             ....  170
 Nuclear Repulsion      ENuc            ....    442.1765517809 Eh

Convergence Acceleration:
 DIIS                   CNVDIIS         .... on
   Start iteration      DIISMaxIt       ....    12
   Startup error        DIISStart       ....  0.200000
   # of expansion vecs  DIISMaxEq       ....     5
   Bias factor          DIISBfac        ....   1.050
   Max. coefficient     DIISMaxC        ....  10.000
 Newton-Raphson         CNVNR           .... off
 SOSCF                  CNVSOSCF        .... on
   Start iteration      SOSCFMaxIt      ....   150
   Startup grad/error   SOSCFStart      ....  0.003300
 Level Shifting         CNVShift        .... on
   Level shift para.    LevelShift      ....    0.2500
   Turn off err/grad.   ShiftErr        ....    0.0010
 Zerner damping         CNVZerner       .... off
 Static damping         CNVDamp         .... on
   Fraction old density DampFac         ....    0.7000
   Max. Damping (<1)    DampMax         ....    0.9800
   Min. Damping (>=0)   DampMin         ....    0.0000
   Turn off err/grad.   DampErr         ....    0.1000
 Fernandez-Rico         CNVRico         .... off

SCF Procedure:
 Maximum # iterations   MaxIter         ....   125
 SCF integral mode      SCFMode         .... Direct
   Integral package                     .... LIBINT
 Reset frequency        DirectResetFreq ....    20
 Integral Threshold     Thresh          ....  2.500e-11 Eh
 Primitive CutOff       TCut            ....  2.500e-12 Eh

Convergence Tolerance:
 Convergence Check Mode ConvCheckMode   .... Total+1el-Energy
 Convergence forced     ConvForced      .... 0
 Energy Change          TolE            ....  1.000e-08 Eh
 1-El. energy change                    ....  1.000e-05 Eh
 Orbital Gradient       TolG            ....  1.000e-05
 Orbital Rotation angle TolX            ....  1.000e-05
 DIIS Error             TolErr          ....  5.000e-07


Diagonalization of the overlap matrix:
Smallest eigenvalue                        ... 1.402e-05
Time for diagonalization                   ...    0.009 sec
Threshold for overlap eigenvalues          ... 1.000e-08
Number of eigenvalues below threshold      ... 0
Time for construction of square roots      ...    0.005 sec
Total time needed                          ...    0.014 sec

--------------------------------
INITIAL GUESS: MINIMAL BASIS EHT
--------------------------------
The minimal basis has 52 functions
EHT matrix was diagonalized
Basis set overlap was calculated now projecting the orbitals
Using GuessMode=FMatrix for the initial guess
C*T matrix was formed
Effective Fockian was calculated
Effective Fockian was diagonalized
Initial density was built
                      ------------------
                      INITIAL GUESS DONE
                      ------------------
-------------------
DFT GRID GENERATION
-------------------

General Integration Accuracy     IntAcc      ...  4.340
Radial Grid Type                 RadialGrid  ... Gauss-Chebyshev
Angular Grid (max. acc.)         AngularGrid ... Lebedev-194
Angular grid pruning method      GridPruning ... 3 (G Style)
Weight generation scheme         WeightScheme... Becke
Basis function cutoff            BFCut       ...    1.0000e-11
Integration weight cutoff        WCut        ...    1.0000e-14
Grids for H and He will be reduced by one unit

# of grid points (after initial pruning)     ...  33124 (   0.0 sec)
# of grid points (after weights+screening)   ...  31054 (   0.0 sec)
nearest neighbour list constructed           ...    0.0 sec
Grid point re-assignment to atoms done       ...    0.0 sec
Grid point division into batches done        ...    0.1 sec
Reduced shell lists constructed in    0.1 sec

Total number of grid points                  ...    31054
Total number of batches                      ...      490
Average number of points per batch           ...       63
Average number of grid points per atom       ...     2588
Average number of shells per batch           ...    65.31 (75.94%)
Average number of basis functions per batch  ...   140.34 (82.55%)
Average number of large shells per batch     ...    55.36 (84.77%)
Average number of large basis fcns per batch ...   117.56 (83.77%)
Maximum spatial batch extension              ...   6.08, 15.31, 21.34 au
Average spatial batch extension              ...   0.44,  0.55,  0.69 au

Time for grid setup =    0.181 sec

--------------
SCF ITERATIONS
--------------
ITER       Energy         Delta-E        Max-DP      RMS-DP      [F,P]     Damp
               ***  Starting incremental Fock matrix formation  ***
  0  -1149.8783983839   0.000000000000 0.32140753  0.01039057  1.0638787 0.7000
  1  -1150.2786067522  -0.400208368248 0.23044400  0.00740078  0.7273333 0.7000
  2  -1150.5391380639  -0.260531311677 0.16661090  0.00563755  0.4990305 0.7000
  3  -1150.7214885287  -0.182350464833 0.11879417  0.00446808  0.3468348 0.7000
  4  -1150.8499096664  -0.128421137685 0.09308609  0.00338064  0.2412523 0.7000
                               ***Turning on DIIS***
  5  -1150.9397001981  -0.089790531668 0.06721894  0.00242764  0.1678943 0.7000
  6  -1151.0025100997  -0.062809901620 0.04382117  0.00169055  0.1169037 0.7000
  7  -1151.0464857274  -0.043975627740 0.10137021  0.00398816  0.0817543 0.0000
                      *** Initiating the SOSCF procedure ***
                           *** Shutting down DIIS ***
                      *** Re-Reading the Fockian *** 
                      *** Removing any level shift *** 
ITER      Energy       Delta-E        Grad      Rot      Max-DP    RMS-DP
  8  -1151.14916154  -0.1026758151  0.000257  0.000257  0.001212  0.000057
               *** Restarting incremental Fock matrix formation ***
  9  -1151.14916126   0.0000002791  0.000288  0.001167  0.002996  0.000098
 10  -1151.14915737   0.0000038979  0.000545  0.000725  0.001761  0.000059
 11  -1151.14916287  -0.0000054999  0.000019  0.000061  0.000073  0.000003
 12  -1151.14916286   0.0000000071  0.000037  0.000042  0.000025  0.000001
 13  -1151.14916289  -0.0000000343  0.000004  0.000008  0.000043  0.000001
 14  -1151.14916288   0.0000000095  0.000004  0.000004  0.000037  0.000001
                  ***Gradient check signals convergence***
              ***Rediagonalizing the Fockian in SOSCF/NRSCF***

               *****************************************************
               *                     SUCCESS                       *
               *           SCF CONVERGED AFTER  15 CYCLES          *
               *****************************************************

Setting up the final grid:

General Integration Accuracy     IntAcc      ...  4.670
Radial Grid Type                 RadialGrid  ... Gauss-Chebyshev
Angular Grid (max. acc.)         AngularGrid ... Lebedev-302
Angular grid pruning method      GridPruning ... 3 (G Style)
Weight generation scheme         WeightScheme... Becke
Basis function cutoff            BFCut       ...    1.0000e-11
Integration weight cutoff        WCut        ...    1.0000e-14
Grids for H and He will be reduced by one unit

# of grid points (after initial pruning)     ...  64324 (   0.0 sec)
# of grid points (after weights+screening)   ...  59992 (   0.0 sec)
nearest neighbour list constructed           ...    0.0 sec
Grid point re-assignment to atoms done       ...    0.0 sec
Grid point division into batches done        ...    0.3 sec
Reduced shell lists constructed in    0.4 sec

Total number of grid points                  ...    59992
Total number of batches                      ...      942
Average number of points per batch           ...       63
Average number of grid points per atom       ...     4999
Average number of shells per batch           ...    63.99 (74.40%)
Average number of basis functions per batch  ...   137.18 (80.69%)
Average number of large shells per batch     ...    53.97 (84.35%)
Average number of large basis fcns per batch ...   114.29 (83.31%)
Maximum spatial batch extension              ...   6.29, 10.59, 19.64 au
Average spatial batch extension              ...   0.37,  0.42,  0.49 au

Final grid set up in    0.5 sec
Final integration                            ... done (   0.4 sec)
Change in XC energy                          ...    -0.000384474
Integrated number of electrons               ...    73.999946302
Previous integrated no of electrons          ...    73.999914828

----------------
TOTAL SCF ENERGY
----------------

Total Energy       :        -1151.14954736 Eh          -31324.37168 eV

Components:
Nuclear Repulsion  :          442.17655178 Eh           12032.23568 eV
Electronic Energy  :        -1593.32609914 Eh          -43356.60736 eV
One Electron Energy:        -2460.39898685 Eh          -66950.86015 eV
Two Electron Energy:          867.07288771 Eh           23594.25278 eV

Virial components:
Potential Energy   :        -2299.36502258 Eh          -62568.90321 eV
Kinetic Energy     :         1148.21547522 Eh           31244.53152 eV
Virial Ratio       :            2.00255533


DFT components:
N(Alpha)           :       36.999973150921 electrons
N(Beta)            :       36.999973150921 electrons
N(Total)           :       73.999946301842 electrons
E(XC)              :      -90.117456314541 Eh       
DFET-embed. en.    :        0.000000000000 Eh       

---------------
SCF CONVERGENCE
---------------

  Last Energy change         ...   -9.7975e-10  Tolerance :   1.0000e-08
  Last MAX-Density change    ...    2.5870e-05  Tolerance :   1.0000e-07
  Last RMS-Density change    ...    8.3648e-07  Tolerance :   5.0000e-09
  Last Orbital Gradient      ...    1.6150e-07  Tolerance :   1.0000e-05
  Last Orbital Rotation      ...    1.7926e-07  Tolerance :   1.0000e-05

             **** THE GBW FILE WAS UPDATED (1,4-dichlorobenzene.gbw) ****
             **** DENSITY FILE WAS UPDATED (1,4-dichlorobenzene.scfp) ****
             **** ENERGY FILE WAS UPDATED (1,4-dichlorobenzene.en.tmp) ****
             **** THE GBW FILE WAS UPDATED (1,4-dichlorobenzene.gbw) ****
             **** DENSITY FILE WAS UPDATED (1,4-dichlorobenzene.scfp) ****
----------------
ORBITAL ENERGIES
----------------

  NO   OCC          E(Eh)            E(eV) 
   0   2.0000    -100.651290     -2738.8608 
   1   2.0000    -100.651285     -2738.8607 
   2   2.0000      -9.978791      -271.5367 
   3   2.0000      -9.978781      -271.5364 
   4   2.0000      -9.932798      -270.2852 
   5   2.0000      -9.932778      -270.2846 
   6   2.0000      -9.932468      -270.2762 
   7   2.0000      -9.932462      -270.2760 
   8   2.0000      -9.237335      -251.3607 
   9   2.0000      -9.237330      -251.3605 
  10   2.0000      -7.073866      -192.4897 
  11   2.0000      -7.073861      -192.4896 
  12   2.0000      -7.060723      -192.1320 
  13   2.0000      -7.060718      -192.1319 
  14   2.0000      -7.060171      -192.1170 
  15   2.0000      -7.060167      -192.1169 
  16   2.0000      -0.832560       -22.6551 
  17   2.0000      -0.805920       -21.9302 
  18   2.0000      -0.757153       -20.6032 
  19   2.0000      -0.706093       -19.2138 
  20   2.0000      -0.666191       -18.1280 
  21   2.0000      -0.580163       -15.7870 
  22   2.0000      -0.552335       -15.0298 
  23   2.0000      -0.478904       -13.0317 
  24   2.0000      -0.443832       -12.0773 
  25   2.0000      -0.435410       -11.8481 
  26   2.0000      -0.404931       -11.0187 
  27   2.0000      -0.402036       -10.9400 
  28   2.0000      -0.371585       -10.1113 
  29   2.0000      -0.351982        -9.5779 
  30   2.0000      -0.342586        -9.3223 
  31   2.0000      -0.331154        -9.0111 
  32   2.0000      -0.285746        -7.7755 
  33   2.0000      -0.284650        -7.7457 
  34   2.0000      -0.281622        -7.6633 
  35   2.0000      -0.251895        -6.8544 
  36   2.0000      -0.223373        -6.0783 
  37   0.0000      -0.065321        -1.7775 
  38   0.0000      -0.062445        -1.6992 
  39   0.0000      -0.026925        -0.7327 
  40   0.0000      -0.008707        -0.2369 
  41   0.0000       0.056847         1.5469 
  42   0.0000       0.057337         1.5602 
  43   0.0000       0.071648         1.9496 
  44   0.0000       0.072069         1.9611 
  45   0.0000       0.098819         2.6890 
  46   0.0000       0.105981         2.8839 
  47   0.0000       0.143309         3.8996 
  48   0.0000       0.153147         4.1673 
  49   0.0000       0.179747         4.8912 
  50   0.0000       0.186350         5.0708 
  51   0.0000       0.194854         5.3023 
  52   0.0000       0.200456         5.4547 
  53   0.0000       0.204100         5.5539 
  54   0.0000       0.223086         6.0705 
  55   0.0000       0.239368         6.5135 
  56   0.0000       0.240735         6.5507 
  57   0.0000       0.250382         6.8132 
  58   0.0000       0.262682         7.1479 
  59   0.0000       0.278574         7.5804 
  60   0.0000       0.286645         7.8000 
  61   0.0000       0.287832         7.8323 
  62   0.0000       0.314803         8.5662 
  63   0.0000       0.320188         8.7128 
  64   0.0000       0.327110         8.9011 
  65   0.0000       0.327840         8.9210 
  66   0.0000       0.337586         9.1862 
  67   0.0000       0.355876         9.6839 
  68   0.0000       0.371342        10.1047 
  69   0.0000       0.393375        10.7043 
  70   0.0000       0.394684        10.7399 
  71   0.0000       0.397180        10.8078 
  72   0.0000       0.402098        10.9416 
  73   0.0000       0.410481        11.1698 
  74   0.0000       0.425769        11.5858 
  75   0.0000       0.446877        12.1602 
  76   0.0000       0.463331        12.6079 
  77   0.0000       0.506592        13.7851 
  78   0.0000       0.515460        14.0264 
  79   0.0000       0.531548        14.4642 
  80   0.0000       0.592090        16.1116 
  81   0.0000       0.593086        16.1387 
  82   0.0000       0.609929        16.5970 
  83   0.0000       0.626617        17.0511 
  84   0.0000       0.626818        17.0566 
  85   0.0000       0.638900        17.3854 
  86   0.0000       0.640267        17.4225 
  87   0.0000       0.663462        18.0537 
  88   0.0000       0.680397        18.5146 
  89   0.0000       0.718610        19.5544 
  90   0.0000       0.728581        19.8257 
  91   0.0000       0.769932        20.9509 
  92   0.0000       0.847215        23.0539 
  93   0.0000       0.851624        23.1739 
  94   0.0000       0.888583        24.1796 
  95   0.0000       0.913096        24.8466 
  96   0.0000       0.972922        26.4746 
  97   0.0000       1.083175        29.4747 
  98   0.0000       1.148308        31.2470 
  99   0.0000       1.149698        31.2849 
 100   0.0000       1.208870        32.8950 
 101   0.0000       1.253039        34.0969 
 102   0.0000       1.301627        35.4191 
 103   0.0000       1.307479        35.5783 
 104   0.0000       1.315667        35.8011 
 105   0.0000       1.317053        35.8388 
 106   0.0000       1.320254        35.9259 
 107   0.0000       1.326372        36.0924 
 108   0.0000       1.343977        36.5715 
 109   0.0000       1.345466        36.6120 
 110   0.0000       1.365090        37.1460 
 111   0.0000       1.382234        37.6125 
 112   0.0000       1.442842        39.2617 
 113   0.0000       1.444578        39.3090 
 114   0.0000       1.444615        39.3100 
 115   0.0000       1.466500        39.9055 
 116   0.0000       1.478057        40.2200 
 117   0.0000       1.493019        40.6271 
 118   0.0000       1.498591        40.7787 
 119   0.0000       1.551276        42.2124 
 120   0.0000       1.552804        42.2540 
 121   0.0000       1.563143        42.5353 
 122   0.0000       1.643401        44.7192 
 123   0.0000       1.669171        45.4204 
 124   0.0000       1.671081        45.4724 
 125   0.0000       1.706734        46.4426 
 126   0.0000       1.716291        46.7027 
 127   0.0000       1.718915        46.7741 
 128   0.0000       1.756880        47.8071 
 129   0.0000       1.775407        48.3113 
 130   0.0000       1.943257        52.8787 
 131   0.0000       1.951740        53.1095 
 132   0.0000       2.076047        56.4921 
 133   0.0000       2.084607        56.7250 
 134   0.0000       2.098003        57.0896 
 135   0.0000       2.115272        57.5595 
 136   0.0000       2.146708        58.4149 
 137   0.0000       2.181134        59.3517 
 138   0.0000       2.183876        59.4263 
 139   0.0000       2.185239        59.4634 
 140   0.0000       2.199779        59.8590 
 141   0.0000       2.214997        60.2731 
 142   0.0000       2.220384        60.4197 
 143   0.0000       2.230964        60.7076 
 144   0.0000       2.265190        61.6390 
 145   0.0000       2.290131        62.3176 
 146   0.0000       2.318644        63.0935 
 147   0.0000       2.339138        63.6512 
 148   0.0000       2.500730        68.0483 
 149   0.0000       2.536035        69.0090 
 150   0.0000       2.566620        69.8413 
 151   0.0000       2.596500        70.6544 
 152   0.0000       2.708943        73.7141 
 153   0.0000       2.724171        74.1285 
 154   0.0000       2.762489        75.1712 
 155   0.0000       2.926487        79.6337 
 156   0.0000       3.016723        82.0892 
 157   0.0000       3.027650        82.3865 
 158   0.0000       3.041837        82.7726 
 159   0.0000       3.065316        83.4115 
 160   0.0000       3.363186        91.5169 
 161   0.0000       3.398383        92.4747 
 162   0.0000      20.928979       569.5065 
 163   0.0000      21.435624       583.2930 
 164   0.0000      21.493107       584.8572 
 165   0.0000      21.784064       592.7745 
 166   0.0000      21.788051       592.8830 
 167   0.0000      21.967462       597.7650 
 168   0.0000      24.886832       677.2051 
 169   0.0000      24.971492       679.5088 

                    ********************************
                    * MULLIKEN POPULATION ANALYSIS *
                    ********************************

-----------------------
MULLIKEN ATOMIC CHARGES
-----------------------
   0 C :   -0.115489
   1 C :   -0.115036
   2 C :   -0.007567
   3 C :   -0.115373
   4 C :   -0.007511
   5 C :   -0.115089
   6 H :    0.183322
   7 H :    0.184592
   8 H :    0.183302
   9 H :    0.184602
  10 Cl:   -0.129870
  11 Cl:   -0.129883
Sum of atomic charges:   -0.0000000

--------------------------------
MULLIKEN REDUCED ORBITAL CHARGES
--------------------------------
  0 C s       :     3.100037  s :     3.100037
      pz      :     1.003468  p :     2.976596
      px      :     1.006237
      py      :     0.966890
      dz2     :     0.004986  d :     0.038855
      dxz     :     0.005303
      dyz     :     0.006374
      dx2y2   :     0.011875
      dxy     :     0.010317
  1 C s       :     3.100976  s :     3.100976
      pz      :     1.000298  p :     2.975203
      px      :     0.927900
      py      :     1.047005
      dz2     :     0.005132  d :     0.038858
      dxz     :     0.006522
      dyz     :     0.005028
      dx2y2   :     0.010068
      dxy     :     0.012109
  2 C s       :     3.283880  s :     3.283880
      pz      :     0.957750  p :     2.673379
      px      :     0.917568
      py      :     0.798062
      dz2     :     0.006026  d :     0.050308
      dxz     :     0.008686
      dyz     :     0.007302
      dx2y2   :     0.014144
      dxy     :     0.014150
  3 C s       :     3.099920  s :     3.099920
      pz      :     1.003467  p :     2.976593
      px      :     1.006225
      py      :     0.966902
      dz2     :     0.004987  d :     0.038859
      dxz     :     0.005304
      dyz     :     0.006375
      dx2y2   :     0.011875
      dxy     :     0.010318
  4 C s       :     3.283847  s :     3.283847
      pz      :     0.957799  p :     2.673359
      px      :     0.917567
      py      :     0.797994
      dz2     :     0.006025  d :     0.050305
      dxz     :     0.008685
      dyz     :     0.007301
      dx2y2   :     0.014144
      dxy     :     0.014150
  5 C s       :     3.101003  s :     3.101003
      pz      :     1.000275  p :     2.975226
      px      :     0.927882
      py      :     1.047069
      dz2     :     0.005132  d :     0.038860
      dxz     :     0.006523
      dyz     :     0.005029
      dx2y2   :     0.010068
      dxy     :     0.012109
  6 H s       :     0.816678  s :     0.816678
  7 H s       :     0.815408  s :     0.815408
  8 H s       :     0.816698  s :     0.816698
  9 H s       :     0.815398  s :     0.815398
 10 Cls       :     5.950523  s :     5.950523
      pz      :     3.766001  p :    11.138026
      px      :     3.884960
      py      :     3.487066
      dz2     :     0.006604  d :     0.041321
      dxz     :     0.003408
      dyz     :     0.013933
      dx2y2   :     0.009127
      dxy     :     0.008250
 11 Cls       :     5.950524  s :     5.950524
      pz      :     3.765936  p :    11.138038
      px      :     3.884968
      py      :     3.487134
      dz2     :     0.006605  d :     0.041321
      dxz     :     0.003409
      dyz     :     0.013934
      dx2y2   :     0.009125
      dxy     :     0.008249


                     *******************************
                     * LOEWDIN POPULATION ANALYSIS *
                     *******************************

----------------------
LOEWDIN ATOMIC CHARGES
----------------------
   0 C :   -0.170618
   1 C :   -0.170537
   2 C :   -0.197557
   3 C :   -0.170626
   4 C :   -0.197562
   5 C :   -0.170534
   6 H :    0.179483
   7 H :    0.179536
   8 H :    0.179480
   9 H :    0.179533
  10 Cl:    0.179705
  11 Cl:    0.179697

-------------------------------
LOEWDIN REDUCED ORBITAL CHARGES
-------------------------------
  0 C s       :     2.922755  s :     2.922755
      pz      :     1.019039  p :     3.171919
      px      :     1.086642
      py      :     1.066238
      dz2     :     0.008575  d :     0.075945
      dxz     :     0.009396
      dyz     :     0.013056
      dx2y2   :     0.022763
      dxy     :     0.022154
  1 C s       :     2.922780  s :     2.922780
      pz      :     1.018662  p :     3.171807
      px      :     1.075323
      py      :     1.077822
      dz2     :     0.008780  d :     0.075950
      dxz     :     0.012878
      dyz     :     0.009509
      dx2y2   :     0.021725
      dxy     :     0.023058
  2 C s       :     2.928117  s :     2.928117
      pz      :     1.025902  p :     3.165115
      px      :     1.121391
      py      :     1.017823
      dz2     :     0.010664  d :     0.104325
      dxz     :     0.017253
      dyz     :     0.015433
      dx2y2   :     0.030469
      dxy     :     0.030506
  3 C s       :     2.922729  s :     2.922729
      pz      :     1.019047  p :     3.171941
      px      :     1.086640
      py      :     1.066254
      dz2     :     0.008577  d :     0.075955
      dxz     :     0.009398
      dyz     :     0.013058
      dx2y2   :     0.022765
      dxy     :     0.022157
  4 C s       :     2.928130  s :     2.928130
      pz      :     1.025907  p :     3.165112
      px      :     1.121389
      py      :     1.017816
      dz2     :     0.010662  d :     0.104319
      dxz     :     0.017251
      dyz     :     0.015431
      dx2y2   :     0.030468
      dxy     :     0.030507
  5 C s       :     2.922765  s :     2.922765
      pz      :     1.018660  p :     3.171813
      px      :     1.075326
      py      :     1.077827
      dz2     :     0.008781  d :     0.075956
      dxz     :     0.012880
      dyz     :     0.009510
      dx2y2   :     0.021725
      dxy     :     0.023059
  6 H s       :     0.820517  s :     0.820517
  7 H s       :     0.820464  s :     0.820464
  8 H s       :     0.820520  s :     0.820520
  9 H s       :     0.820467  s :     0.820467
 10 Cls       :     5.675926  s :     5.675926
      pz      :     3.754255  p :    11.097943
      px      :     3.857508
      py      :     3.486180
      dz2     :     0.007010  d :     0.046427
      dxz     :     0.003743
      dyz     :     0.016189
      dx2y2   :     0.010301
      dxy     :     0.009183
 11 Cls       :     5.675923  s :     5.675923
      pz      :     3.754193  p :    11.097953
      px      :     3.857516
      py      :     3.486244
      dz2     :     0.007010  d :     0.046426
      dxz     :     0.003744
      dyz     :     0.016191
      dx2y2   :     0.010299
      dxy     :     0.009182


                      *****************************
                      * MAYER POPULATION ANALYSIS *
                      *****************************

  NA   - Mulliken gross atomic population
  ZA   - Total nuclear charge
  QA   - Mulliken gross atomic charge
  VA   - Mayer's total valence
  BVA  - Mayer's bonded valence
  FA   - Mayer's free valence

  ATOM       NA         ZA         QA         VA         BVA        FA
  0 C      6.1155     6.0000    -0.1155     3.8277     3.8277    -0.0000
  1 C      6.1150     6.0000    -0.1150     3.8272     3.8272    -0.0000
  2 C      6.0076     6.0000    -0.0076     3.7738     3.7738    -0.0000
  3 C      6.1154     6.0000    -0.1154     3.8277     3.8277     0.0000
  4 C      6.0075     6.0000    -0.0075     3.7737     3.7737    -0.0000
  5 C      6.1151     6.0000    -0.1151     3.8272     3.8272    -0.0000
  6 H      0.8167     1.0000     0.1833     0.9335     0.9335     0.0000
  7 H      0.8154     1.0000     0.1846     0.9329     0.9329     0.0000
  8 H      0.8167     1.0000     0.1833     0.9335     0.9335     0.0000
  9 H      0.8154     1.0000     0.1846     0.9328     0.9328    -0.0000
 10 Cl    17.1299    17.0000    -0.1299     1.1398     1.1398    -0.0000
 11 Cl    17.1299    17.0000    -0.1299     1.1397     1.1397     0.0000

  Mayer bond orders larger than 0.100000
B(  0-C ,  1-C ) :   1.4764 B(  0-C ,  4-C ) :   1.3283 B(  0-C ,  9-H ) :   0.9105 
B(  1-C ,  2-C ) :   1.3280 B(  1-C ,  6-H ) :   0.9104 B(  2-C ,  3-C ) :   1.3283 
B(  2-C , 11-Cl) :   1.0173 B(  3-C ,  5-C ) :   1.4764 B(  3-C ,  7-H ) :   0.9105 
B(  4-C ,  5-C ) :   1.3279 B(  4-C , 10-Cl) :   1.0174 B(  5-C ,  8-H ) :   0.9104 


-------
TIMINGS
-------

Total SCF time: 0 days 0 hours 0 min 6 sec 

Total time                  ....       6.457 sec
Sum of individual times     ....       6.296 sec  ( 97.5%)

Fock matrix formation       ....       5.344 sec  ( 82.8%)
  Split-RI-J                ....       2.261 sec  ( 42.3% of F)
  XC integration            ....       3.040 sec  ( 56.9% of F)
    Basis function eval.    ....       0.625 sec  ( 20.6% of XC)
    Density eval.           ....       0.791 sec  ( 26.0% of XC)
    XC-Functional eval.     ....       0.374 sec  ( 12.3% of XC)
    XC-Potential eval.      ....       0.817 sec  ( 26.9% of XC)
Diagonalization             ....       0.105 sec  (  1.6%)
Density matrix formation    ....       0.015 sec  (  0.2%)
Population analysis         ....       0.011 sec  (  0.2%)
Initial guess               ....       0.024 sec  (  0.4%)
Orbital Transformation      ....       0.000 sec  (  0.0%)
Orbital Orthonormalization  ....       0.000 sec  (  0.0%)
DIIS solution               ....       0.036 sec  (  0.6%)
SOSCF solution              ....       0.104 sec  (  1.6%)
Grid generation             ....       0.658 sec  ( 10.2%)


-------------------------------------------------------------------------------
                          DFT DISPERSION CORRECTION                            
                                                                               
                              DFTD3 V3.1  Rev 1                                
                          USING Becke-Johnson damping                          
-------------------------------------------------------------------------------
The B97-3c composite method is recognized
Using three-body term ABC
Active option DFTDOPT                   ...         4   

molecular C6(AA) [au] = 3154.773404 


            DFT-D V3
 parameters
 s6 scaling factor         :     1.0000 
 a1 scaling factor         :     0.3700 
 s8 scaling factor         :     1.5000 
 a2 scaling factor         :     4.1000 
 Damping factor alpha9(ATM):    16.0000 
 ad hoc parameters k1-k3   :    16.0000     1.3333    -4.0000 

 Edisp/kcal,au: -21.681854567351  -0.034552230924 
 E6   /kcal   : -10.153365268 
 E8   /kcal   : -11.535468856 
 E6(ABC)      :   0.006979557 
 % E8         :  53.203331018 
 % E6(ABC)    :  -0.032190775 

-------------------------   ----------------
Dispersion correction           -0.034552231
-------------------------   ----------------

------------------   -----------------
SRB correction            -0.035945760
------------------   -----------------

-------------------------   --------------------
FINAL SINGLE POINT ENERGY     -1151.220045349011
-------------------------   --------------------



           ************************************************************
           *        Program running with 4 parallel MPI-processes     *
           *              working on a common directory               *
           ************************************************************
------------------------------------------------------------------------------
                         ORCA SCF GRADIENT CALCULATION
------------------------------------------------------------------------------

Gradient of the Kohn-Sham DFT energy:
Kohn-Sham wavefunction type      ... RKS
Hartree-Fock exchange scaling    ...    0.000
Number of operators              ...    1
Number of atoms                  ...   12
Basis set dimensions             ...  170
Integral neglect threshold       ... 2.5e-11
Integral primitive cutoff        ... 2.5e-12

Nuclear repulsion gradient       ... done
One Electron Gradient            ... done
Pre-screening matrix             ... done
RI-J gradient                    ... done
Exchange-correlation gradient    ... done
Dispersion correction            ... done
SRB correction                   ... done

------------------
CARTESIAN GRADIENT
------------------

   1   C   :   -0.003617773    0.000453382   -0.000553881
   2   C   :   -0.002966352    0.002070296    0.000448841
   3   C   :    0.005452221    0.014370868    0.008653634
   4   C   :    0.003561376   -0.000460399    0.000539287
   5   C   :   -0.005422011   -0.014413272   -0.008673356
   6   C   :    0.002966913   -0.002015611   -0.000415030
   7   H   :   -0.010242101    0.011504112    0.003733582
   8   H   :    0.015181580    0.001652367    0.004150702
   9   H   :    0.010245062   -0.011505117   -0.003740705
  10   H   :   -0.015154370   -0.001649764   -0.004143420
  11   Cl  :   -0.003091065   -0.008226508   -0.004933894
  12   Cl  :    0.003086520    0.008219646    0.004934241

Difference to translation invariance:
           :    0.0000000001    0.0000000000   -0.0000000000

Norm of the cartesian gradient     ...    0.0433833207
RMS gradient                       ...    0.0072305534
MAX gradient                       ...    0.0151815797

-------
TIMINGS
-------

Total SCF gradient time            ...        2.420 sec

One electron gradient       ....       0.041 sec  (  1.7%)
Prescreening matrices       ....       0.056 sec  (  2.3%)
RI-J Coulomb gradient       ....       0.313 sec  ( 12.9%)
XC gradient                 ....       1.347 sec  ( 55.6%)
------------------------------------------------------------------------------
                         ORCA GEOMETRY RELAXATION STEP
------------------------------------------------------------------------------

Reading the OPT-File                    .... done
Getting information on internals        .... done
Copying old internal coords+grads       .... done
Making the new internal coordinates     .... (new redundants).... done
Validating the new internal coordinates .... (new redundants).... done
Calculating the B-matrix                .... done
Calculating the G,G- and P matrices     .... done
Transforming gradient to internals      .... done
Projecting the internal gradient        .... done
Number of atoms                         ....  12
Number of internal coordinates          ....  54
Current Energy                          .... -1151.220045349 Eh
Current gradient norm                   ....     0.043383321 Eh/bohr
Maximum allowed component of the step   ....  0.300
Current trust radius                    ....  0.300
Evaluating the initial hessian          ....  (Almloef) done
Projecting the Hessian                  .... done
Forming the augmented Hessian           .... done
Diagonalizing the augmented Hessian     .... done
Last element of RFO vector              ....  0.990768902
Lowest eigenvalues of augmented Hessian:
 -0.008614554  0.023114003  0.023114435  0.023114478  0.023114976
Length of the computed step             ....  0.136824773
The final length of the internal step   ....  0.136824773
Converting the step to cartesian space:
 Initial RMS(Int)=    0.0186194932
Transforming coordinates:
 Iter   0:  RMS(Cart)=    0.0352614399 RMS(Int)=    1.9119556647
 Iter   1:  RMS(Cart)=    0.0000704808 RMS(Int)=    0.0000403599
 Iter   2:  RMS(Cart)=    0.0000010898 RMS(Int)=    0.0000006052
 Iter   3:  RMS(Cart)=    0.0000000168 RMS(Int)=    0.0000000094
done
Storing new coordinates                 .... done

                                .--------------------.
          ----------------------|Geometry convergence|-------------------------
          Item                value                   Tolerance       Converged
          ---------------------------------------------------------------------
          RMS gradient        0.0088434497            0.0000300000      NO
          MAX gradient        0.0229215042            0.0001000000      NO
          RMS step            0.0186194932            0.0006000000      NO
          MAX step            0.0453587545            0.0010000000      NO
          ........................................................
          Max(Bonds)      0.0240      Max(Angles)    0.55
          Max(Dihed)        0.01      Max(Improp)    0.00
          ---------------------------------------------------------------------

The optimization has not yet converged - more geometry cycles are needed


    ---------------------------------------------------------------------------
                         Redundant Internal Coordinates
                            (Angstroem and degrees)

        Definition                    Value    dE/dq     Step     New-Value
    ----------------------------------------------------------------------------
     1. B(C   1,C   0)                1.4102  0.022922 -0.0206    1.3896   
     2. B(C   2,C   1)                1.4102  0.021778 -0.0196    1.3907   
     3. B(C   3,C   2)                1.4102  0.021752 -0.0195    1.3906   
     4. B(C   4,C   0)                1.4102  0.021790 -0.0196    1.3906   
     5. B(C   5,C   4)                1.4102  0.021779 -0.0196    1.3907   
     6. B(C   5,C   3)                1.4102  0.022883 -0.0206    1.3896   
     7. B(H   6,C   1)                1.1049  0.015848 -0.0240    1.0809   
     8. B(H   7,C   3)                1.1049  0.015825 -0.0240    1.0810   
     9. B(H   8,C   5)                1.1049  0.015852 -0.0240    1.0809   
    10. B(H   9,C   0)                1.1049  0.015796 -0.0239    1.0810   
    11. B(Cl 10,C   4)                1.7700  0.010078 -0.0150    1.7550   
    12. B(Cl 11,C   2)                1.7700  0.010072 -0.0150    1.7550   
    13. A(C   4,C   0,H   9)          120.00 -0.001158    0.16    120.16   
    14. A(C   1,C   0,H   9)          120.00 -0.000833    0.11    120.11   
    15. A(C   1,C   0,C   4)          120.00  0.001992   -0.27    119.73   
    16. A(C   0,C   1,C   2)          120.00  0.001995   -0.27    119.73   
    17. A(C   2,C   1,H   6)          120.00 -0.001168    0.16    120.16   
    18. A(C   0,C   1,H   6)          120.01 -0.000827    0.11    120.12   
    19. A(C   3,C   2,Cl 11)          120.01  0.002009   -0.27    119.73   
    20. A(C   1,C   2,C   3)          120.00 -0.003991    0.55    120.55   
    21. A(C   1,C   2,Cl 11)          119.99  0.001982   -0.27    119.72   
    22. A(C   5,C   3,H   7)          120.00 -0.000837    0.11    120.11   
    23. A(C   2,C   3,H   7)          120.00 -0.001162    0.16    120.16   
    24. A(C   2,C   3,C   5)          120.00  0.001999   -0.27    119.73   
    25. A(C   0,C   4,Cl 10)          120.01  0.002014   -0.28    119.73   
    26. A(C   0,C   4,C   5)          120.00 -0.004007    0.55    120.54   
    27. A(C   5,C   4,Cl 10)          120.00  0.001993   -0.27    119.72   
    28. A(C   4,C   5,H   8)          119.99 -0.001178    0.17    120.16   
    29. A(C   3,C   5,C   4)          120.00  0.002012   -0.27    119.73   
    30. A(C   3,C   5,H   8)          120.01 -0.000834    0.11    120.12   
    31. D(H   6,C   1,C   0,C   4)    179.99 -0.000005    0.01    180.00   
    32. D(H   6,C   1,C   0,H   9)     -0.00 -0.000007    0.01      0.01   
    33. D(C   2,C   1,C   0,H   9)   -180.00 -0.000003    0.00   -179.99   
    34. D(C   2,C   1,C   0,C   4)     -0.00 -0.000001    0.00      0.00   
    35. D(Cl 11,C   2,C   1,C   0)   -180.00 -0.000004    0.01   -179.99   
    36. D(C   3,C   2,C   1,C   0)      0.00  0.000001   -0.00      0.00   
    37. D(C   3,C   2,C   1,H   6)   -179.99  0.000005   -0.01   -180.00   
    38. D(Cl 11,C   2,C   1,H   6)      0.01  0.000000   -0.00      0.01   
    39. D(H   7,C   3,C   2,Cl 11)      0.00  0.000002   -0.00     -0.00   
    40. D(H   7,C   3,C   2,C   1)   -180.00 -0.000002    0.00   -179.99   
    41. D(C   5,C   3,C   2,Cl 11)    180.00  0.000004   -0.01    179.99   
    42. D(C   5,C   3,C   2,C   1)     -0.00 -0.000000    0.00     -0.00   
    43. D(Cl 10,C   4,C   0,C   1)    180.00 -0.000006    0.01    180.01   
    44. D(C   5,C   4,C   0,H   9)    180.00  0.000002   -0.00    179.99   
    45. D(C   5,C   4,C   0,C   1)     -0.00  0.000000   -0.00     -0.00   
    46. D(Cl 10,C   4,C   0,H   9)     -0.01 -0.000004    0.01      0.00   
    47. D(H   8,C   5,C   4,Cl 10)      0.00  0.000003   -0.01     -0.00   
    48. D(C   3,C   5,C   4,Cl 10)   -180.00  0.000006   -0.01   -180.01   
    49. D(C   3,C   5,C   4,C   0)      0.00  0.000000   -0.00      0.00   
    50. D(H   8,C   5,C   3,H   7)     -0.00  0.000005   -0.01     -0.01   
    51. D(H   8,C   5,C   3,C   2)   -180.00  0.000003   -0.01   -180.01   
    52. D(H   8,C   5,C   4,C   0)   -180.00 -0.000003    0.01   -179.99   
    53. D(C   4,C   5,C   3,H   7)    180.00  0.000002   -0.00    179.99   
    54. D(C   4,C   5,C   3,C   2)     -0.00 -0.000000    0.00     -0.00   
    ----------------------------------------------------------------------------

         *************************************************************
         *                GEOMETRY OPTIMIZATION CYCLE   2            *
         *************************************************************
---------------------------------
CARTESIAN COORDINATES (ANGSTROEM)
---------------------------------
  C      1.872781    1.374104   -0.898908
  C      2.299750    2.507786   -0.218063
  C      3.637786    2.634644    0.139005
  C      4.552017    1.636408   -0.179653
  C      2.787017    0.375842   -1.217555
  C      4.125051    0.502744   -0.860492
  H      1.594453    3.287551    0.032808
  H      5.590635    1.741390    0.100996
  H      4.830353   -0.277001   -1.111422
  H      0.834167    1.269125   -1.179562
  Cl     2.247932   -1.055882   -2.077558
  Cl     4.176847    4.066344    0.999085

----------------------------
CARTESIAN COORDINATES (A.U.)
----------------------------
  NO LB      ZA    FRAG     MASS         X           Y           Z
   0 C     6.0000    0    12.011    3.539044    2.596679   -1.698690
   1 C     6.0000    0    12.011    4.345897    4.739029   -0.412079
   2 C     6.0000    0    12.011    6.874419    4.978756    0.262681
   3 C     6.0000    0    12.011    8.602065    3.092362   -0.339495
   4 C     6.0000    0    12.011    5.266699    0.710238   -2.300845
   5 C     6.0000    0    12.011    7.795217    0.950049   -1.626095
   6 H     1.0000    0     1.008    3.013080    6.212570    0.061997
   7 H     1.0000    0     1.008   10.564769    3.290750    0.190854
   8 H     1.0000    0     1.008    9.128045   -0.523456   -2.100284
   9 H     1.0000    0     1.008    1.576348    2.398298   -2.229049
  10 Cl   17.0000    0    35.453    4.247976   -1.995328   -3.926016
  11 Cl   17.0000    0    35.453    7.893096    7.684276    1.887997

--------------------------------
INTERNAL COORDINATES (ANGSTROEM)
--------------------------------
 C      0   0   0     0.000000000000     0.00000000     0.00000000
 C      1   0   0     1.389635778936     0.00000000     0.00000000
 C      2   1   0     1.390658942881   119.72544131     0.00000000
 C      3   2   1     1.390624714130   120.54595857     0.00000000
 C      1   2   3     1.390643699806   119.72880028     0.00000000
 C      4   3   2     1.389616615778   119.72840366     0.00000000
 H      2   1   3     1.080930883008   120.11548375   180.00237316
 H      4   3   2     1.080977527987   120.16258456   180.00569116
 H      6   4   3     1.080934688799   120.11586749   179.99473619
 H      1   2   3     1.080974899931   120.10879470   180.00611425
 Cl     5   1   2     1.755007445630   119.73271750   180.00637214
 Cl     3   2   1     1.755017597371   119.72110824   180.00949564

---------------------------
INTERNAL COORDINATES (A.U.)
---------------------------
 C      0   0   0     0.000000000000     0.00000000     0.00000000
 C      1   0   0     2.626031048088     0.00000000     0.00000000
 C      2   1   0     2.627964547734   119.72544131     0.00000000
 C      3   2   1     2.627899864769   120.54595857     0.00000000
 C      1   2   3     2.627935742496   119.72880028     0.00000000
 C      4   3   2     2.625994834967   119.72840366     0.00000000
 H      2   1   3     2.042663338582   120.11548375   180.00237316
 H      4   3   2     2.042751484818   120.16258456   180.00569116
 H      6   4   3     2.042670530486   120.11586749   179.99473619
 H      1   2   3     2.042746518512   120.10879470   180.00611425
 Cl     5   1   2     3.316483435233   119.73271750   180.00637214
 Cl     3   2   1     3.316502619243   119.72110824   180.00949564



           ************************************************************
           *        Program running with 4 parallel MPI-processes     *
           *              working on a common directory               *
           ************************************************************
 One Electron integrals                  ... done
 Pre-screening matrix                    ... done


           ************************************************************
           *        Program running with 4 parallel MPI-processes     *
           *              working on a common directory               *
           ************************************************************

Diagonalization of the overlap matrix:
Smallest eigenvalue                        ... 1.193e-05
Time for diagonalization                   ...    0.006 sec
Threshold for overlap eigenvalues          ... 1.000e-08
Number of eigenvalues below threshold      ... 0
Time for construction of square roots      ...    0.005 sec
Total time needed                          ...    0.011 sec

-------------------
DFT GRID GENERATION
-------------------

General Integration Accuracy     IntAcc      ...  4.340
Radial Grid Type                 RadialGrid  ... Gauss-Chebyshev
Angular Grid (max. acc.)         AngularGrid ... Lebedev-194
Angular grid pruning method      GridPruning ... 3 (G Style)
Weight generation scheme         WeightScheme... Becke
Basis function cutoff            BFCut       ...    1.0000e-11
Integration weight cutoff        WCut        ...    1.0000e-14
Grids for H and He will be reduced by one unit

# of grid points (after initial pruning)     ...  33124 (   0.0 sec)
# of grid points (after weights+screening)   ...  31010 (   0.0 sec)
nearest neighbour list constructed           ...    0.0 sec
Grid point re-assignment to atoms done       ...    0.0 sec
Grid point division into batches done        ...    0.1 sec
Reduced shell lists constructed in    0.1 sec

Total number of grid points                  ...    31010
Total number of batches                      ...      490
Average number of points per batch           ...       63
Average number of grid points per atom       ...     2584
Average number of shells per batch           ...    65.75 (76.45%)
Average number of basis functions per batch  ...   140.94 (82.91%)
Average number of large shells per batch     ...    56.09 (85.31%)
Average number of large basis fcns per batch ...   119.25 (84.61%)
Maximum spatial batch extension              ...   6.08, 11.32, 18.45 au
Average spatial batch extension              ...   0.45,  0.55,  0.67 au

Time for grid setup =    0.199 sec

--------------
SCF ITERATIONS
--------------
ITER       Energy         Delta-E        Max-DP      RMS-DP      [F,P]     Damp
               ***  Starting incremental Fock matrix formation  ***
  0  -1151.1498320936   0.000000000000 0.00409669  0.00025517  0.0100546 0.7000
                      *** Initiating the SOSCF procedure ***
                      *** Re-Reading the Fockian *** 
                      *** Removing any level shift *** 
ITER      Energy       Delta-E        Grad      Rot      Max-DP    RMS-DP
  1  -1151.15017622  -0.0003441309  0.000821  0.000821  0.016012  0.000776
               *** Restarting incremental Fock matrix formation ***
  2  -1151.15066324  -0.0004870116  0.002625  0.006458  0.010817  0.000431
  3  -1151.15042224   0.0002409964  0.005246  0.004912  0.014776  0.000488
  4  -1151.15078981  -0.0003675733  0.000285  0.000721  0.004232  0.000143
  5  -1151.15078829   0.0000015188  0.000469  0.000613  0.001597  0.000053
  6  -1151.15079255  -0.0000042587  0.000113  0.000238  0.000793  0.000031
  7  -1151.15079246   0.0000000946  0.000102  0.000135  0.000447  0.000018
  8  -1151.15079282  -0.0000003617  0.000007  0.000011  0.000054  0.000002
  9  -1151.15079281   0.0000000119  0.000006  0.000015  0.000016  0.000001
 10  -1151.15079281  -0.0000000062  0.000005  0.000011  0.000017  0.000001
 11  -1151.15079283  -0.0000000205  0.000003  0.000003  0.000023  0.000001
                  ***Gradient check signals convergence***
              ***Rediagonalizing the Fockian in SOSCF/NRSCF***

               *****************************************************
               *                     SUCCESS                       *
               *           SCF CONVERGED AFTER  12 CYCLES          *
               *****************************************************

Setting up the final grid:

General Integration Accuracy     IntAcc      ...  4.670
Radial Grid Type                 RadialGrid  ... Gauss-Chebyshev
Angular Grid (max. acc.)         AngularGrid ... Lebedev-302
Angular grid pruning method      GridPruning ... 3 (G Style)
Weight generation scheme         WeightScheme... Becke
Basis function cutoff            BFCut       ...    1.0000e-11
Integration weight cutoff        WCut        ...    1.0000e-14
Grids for H and He will be reduced by one unit

# of grid points (after initial pruning)     ...  64324 (   0.0 sec)
# of grid points (after weights+screening)   ...  59932 (   0.0 sec)
nearest neighbour list constructed           ...    0.0 sec
Grid point re-assignment to atoms done       ...    0.0 sec
Grid point division into batches done        ...    0.3 sec
Reduced shell lists constructed in    0.4 sec

Total number of grid points                  ...    59932
Total number of batches                      ...      942
Average number of points per batch           ...       63
Average number of grid points per atom       ...     4994
Average number of shells per batch           ...    64.29 (74.75%)
Average number of basis functions per batch  ...   137.77 (81.04%)
Average number of large shells per batch     ...    54.54 (84.83%)
Average number of large basis fcns per batch ...   115.51 (83.84%)
Maximum spatial batch extension              ...   6.37, 10.40, 19.56 au
Average spatial batch extension              ...   0.37,  0.41,  0.49 au

Final grid set up in    0.4 sec
Final integration                            ... done (   0.4 sec)
Change in XC energy                          ...    -0.000430642
Integrated number of electrons               ...    73.999927166
Previous integrated no of electrons          ...    73.999827504
Total Energy       :        -1151.15122346 Eh          -31324.41729 eV
  Last Energy change         ...    1.3518e-08  Tolerance :   1.0000e-08
  Last MAX-Density change    ...    4.1955e-05  Tolerance :   1.0000e-07
             **** THE GBW FILE WAS UPDATED (1,4-dichlorobenzene.gbw) ****
             **** DENSITY FILE WAS UPDATED (1,4-dichlorobenzene.scfp) ****
             **** ENERGY FILE WAS UPDATED (1,4-dichlorobenzene.en.tmp) ****
             **** THE GBW FILE WAS UPDATED (1,4-dichlorobenzene.gbw) ****
             **** DENSITY FILE WAS UPDATED (1,4-dichlorobenzene.scfp) ****
Total SCF time: 0 days 0 hours 0 min 5 sec 


-------------------------------------------------------------------------------
                          DFT DISPERSION CORRECTION                            
                                                                               
                              DFTD3 V3.1  Rev 1                                
                          USING Becke-Johnson damping                          
-------------------------------------------------------------------------------
-------------------------   ----------------
Dispersion correction           -0.035012856
-------------------------   ----------------

------------------   -----------------
SRB correction            -0.038780870
------------------   -----------------

-------------------------   --------------------
FINAL SINGLE POINT ENERGY     -1151.225017188820
-------------------------   --------------------



           ************************************************************
           *        Program running with 4 parallel MPI-processes     *
           *              working on a common directory               *
           ************************************************************
------------------------------------------------------------------------------
                         ORCA SCF GRADIENT CALCULATION
------------------------------------------------------------------------------

Gradient of the Kohn-Sham DFT energy:
Kohn-Sham wavefunction type      ... RKS
Hartree-Fock exchange scaling    ...    0.000
Number of operators              ...    1
Number of atoms                  ...   12
Basis set dimensions             ...  170
Integral neglect threshold       ... 2.5e-11
Integral primitive cutoff        ... 2.5e-12

Nuclear repulsion gradient       ... done
One Electron Gradient            ... done
Pre-screening matrix             ... done
RI-J gradient                    ... done
Exchange-correlation gradient    ... done
Dispersion correction            ... done
SRB correction                   ... done

------------------
CARTESIAN GRADIENT
------------------

   1   C   :   -0.002229482    0.000753487   -0.000097654
   2   C   :   -0.002157867    0.000936842    0.000034517
   3   C   :    0.001440345    0.003766483    0.002267741
   4   C   :    0.002218483   -0.000755413    0.000093847
   5   C   :   -0.001429499   -0.003786506   -0.002276961
   6   C   :    0.002157600   -0.000914868   -0.000020269
   7   H   :   -0.000516435    0.000575449    0.000190817
   8   H   :    0.000763988    0.000078634    0.000198490
   9   H   :    0.000516467   -0.000576603   -0.000194415
  10   H   :   -0.000761929   -0.000078402   -0.000197978
  11   Cl  :   -0.000546127   -0.001465929   -0.000879343
  12   Cl  :    0.000544456    0.001466827    0.000881208

Difference to translation invariance:
           :    0.0000000000    0.0000000000   -0.0000000000

Norm of the cartesian gradient     ...    0.0086033451
RMS gradient                       ...    0.0014338909
MAX gradient                       ...    0.0037865065

-------
TIMINGS
-------

Total SCF gradient time            ...        2.431 sec

One electron gradient       ....       0.034 sec  (  1.4%)
Prescreening matrices       ....       0.050 sec  (  2.1%)
RI-J Coulomb gradient       ....       0.321 sec  ( 13.2%)
XC gradient                 ....       1.167 sec  ( 48.0%)
------------------------------------------------------------------------------
                         ORCA GEOMETRY RELAXATION STEP
------------------------------------------------------------------------------

Reading the OPT-File                    .... done
Getting information on internals        .... done
Copying old internal coords+grads       .... done
Making the new internal coordinates     .... (new redundants).... done
Validating the new internal coordinates .... (new redundants).... done
Calculating the B-matrix                .... done
Calculating the G,G- and P matrices     .... done
Transforming gradient to internals      .... done
Projecting the internal gradient        .... done
Number of atoms                         ....  12
Number of internal coordinates          ....  54
Current Energy                          .... -1151.225017189 Eh
Current gradient norm                   ....     0.008603345 Eh/bohr
Maximum allowed component of the step   ....  0.300
Current trust radius                    ....  0.300
Updating the Hessian (BFGS)             .... done
Forming the augmented Hessian           .... done
Diagonalizing the augmented Hessian     .... done
Last element of RFO vector              ....  0.999695236
Lowest eigenvalues of augmented Hessian:
 -0.000264074  0.023113999  0.023114437  0.023114477  0.023114972
Length of the computed step             ....  0.024694285
The final length of the internal step   ....  0.024694285
Converting the step to cartesian space:
 Initial RMS(Int)=    0.0033604666
Transforming coordinates:
 Iter   0:  RMS(Cart)=    0.0065508011 RMS(Int)=    0.0033607506
 Iter   1:  RMS(Cart)=    0.0000081296 RMS(Int)=    0.0000045305
 Iter   2:  RMS(Cart)=    0.0000000292 RMS(Int)=    0.0000000157
done
Storing new coordinates                 .... done

                                .--------------------.
          ----------------------|Geometry convergence|-------------------------
          Item                value                   Tolerance       Converged
          ---------------------------------------------------------------------
          Energy change      -0.0049718398            0.0000010000      NO
          RMS gradient        0.0014808450            0.0000300000      NO
          MAX gradient        0.0042325080            0.0001000000      NO
          RMS step            0.0033604666            0.0006000000      NO
          MAX step            0.0086852191            0.0010000000      NO
          ........................................................
          Max(Bonds)      0.0046      Max(Angles)    0.25
          Max(Dihed)        0.01      Max(Improp)    0.00
          ---------------------------------------------------------------------

The optimization has not yet converged - more geometry cycles are needed


    ---------------------------------------------------------------------------
                         Redundant Internal Coordinates
                            (Angstroem and degrees)

        Definition                    Value    dE/dq     Step     New-Value
    ----------------------------------------------------------------------------
     1. B(C   1,C   0)                1.3896  0.003733 -0.0041    1.3856   
     2. B(C   2,C   1)                1.3907  0.004230 -0.0046    1.3861   
     3. B(C   3,C   2)                1.3906  0.004220 -0.0046    1.3860   
     4. B(C   4,C   0)                1.3906  0.004233 -0.0046    1.3860   
     5. B(C   5,C   4)                1.3907  0.004230 -0.0046    1.3861   
     6. B(C   5,C   3)                1.3896  0.003719 -0.0041    1.3856   
     7. B(H   6,C   1)                1.0809  0.000796 -0.0015    1.0794   
     8. B(H   7,C   3)                1.0810  0.000793 -0.0015    1.0795   
     9. B(H   8,C   5)                1.0809  0.000798 -0.0015    1.0794   
    10. B(H   9,C   0)                1.0810  0.000791 -0.0015    1.0795   
    11. B(Cl 10,C   4)                1.7550  0.001795 -0.0032    1.7518   
    12. B(Cl 11,C   2)                1.7550  0.001796 -0.0032    1.7518   
    13. A(C   4,C   0,H   9)          120.16 -0.000372    0.06    120.22   
    14. A(C   1,C   0,H   9)          120.11 -0.000375    0.06    120.17   
    15. A(C   1,C   0,C   4)          119.73  0.000746   -0.12    119.61   
    16. A(C   0,C   1,C   2)          119.73  0.000753   -0.12    119.60   
    17. A(C   2,C   1,H   6)          120.16 -0.000381    0.06    120.22   
    18. A(C   0,C   1,H   6)          120.12 -0.000371    0.06    120.18   
[...]
     17      -0.066755   0.137548  -0.235677  -0.140696   0.002724   0.066799
     18       0.085743   0.136167  -0.057029  -0.200411   0.024574   0.093108
     19       0.204384   0.277111  -0.139118   0.251488  -0.303910   0.222479
     20      -0.395234   0.170509   0.267517   0.087660  -0.152868  -0.429987
     21       0.086013   0.080453  -0.056418  -0.315094  -0.218785   0.092301
     22       0.204543   0.297327  -0.138457  -0.052790  -0.211390   0.220685
     23      -0.394842   0.171086   0.268730  -0.095158  -0.153860  -0.424009
     24       0.085739   0.136168   0.057089   0.200408  -0.024577   0.092507
     25       0.204370   0.277108   0.139263  -0.251488   0.303906   0.221039
     26      -0.395207   0.170508  -0.267798  -0.087662   0.152864  -0.427211
     27       0.086010   0.080454   0.056428   0.315096   0.218784   0.092882
     28       0.204537   0.297326   0.138482   0.052785   0.211394   0.222074
     29      -0.394830   0.171086  -0.268777   0.095156   0.153862  -0.426683
     30       0.003155  -0.080672   0.002188   0.024967   0.026394  -0.001223
     31       0.007910  -0.214206   0.005669  -0.009596   0.070057  -0.002953
     32      -0.014547  -0.128825  -0.011202   0.000348   0.042110   0.005670
     33       0.003156  -0.080672  -0.002187  -0.024967  -0.026395  -0.001223
     34       0.007911  -0.214206  -0.005668   0.009597  -0.070058  -0.002953
     35      -0.014547  -0.128825   0.011201  -0.000348  -0.042111   0.005671
                 18         19         20         21         22         23    
      0      -0.014126   0.009922  -0.016880  -0.252308   0.007429   0.234272
      1      -0.033076   0.023633  -0.035680   0.036838  -0.042705   0.045936
      2       0.063963  -0.045568   0.068607  -0.038373  -0.020514   0.074769
      3      -0.014111  -0.009747   0.016317   0.211530  -0.033530   0.144552
      4      -0.033114  -0.023620   0.034838  -0.144531  -0.027936  -0.192543
      5       0.063989   0.045485  -0.068713  -0.026516  -0.021798  -0.068286
      6      -0.000110  -0.001117   0.000560   0.043904   0.066119  -0.130077
      7      -0.000278  -0.003053   0.000804   0.116132   0.176542  -0.345324
      8       0.000150   0.005857   0.000284   0.069939   0.106001  -0.207631
      9       0.014206  -0.009882  -0.016906  -0.252306   0.007445  -0.234287
     10       0.033267  -0.023549  -0.035743   0.036837  -0.042705  -0.045951
     11      -0.064331   0.045407   0.068729  -0.038372  -0.020511  -0.074780
     12       0.000018   0.001115   0.000560   0.043904   0.066112   0.130104
     13       0.000056   0.003049   0.000805   0.116127   0.176523   0.345358
     14       0.000277  -0.005854   0.000282   0.069937   0.105990   0.207655
     15       0.014189   0.009710   0.016346   0.211534  -0.033522  -0.144559
     16       0.033300   0.023542   0.034907  -0.144534  -0.027947   0.192546
     17      -0.064347  -0.045331  -0.068847  -0.026516  -0.021802   0.068286
     18       0.093243   0.094134  -0.089782   0.410210  -0.351876   0.279277
     19       0.223124   0.224606  -0.221602  -0.002206  -0.248935  -0.135411
     20      -0.430370  -0.433755   0.429793   0.075879  -0.205206  -0.009355
     21      -0.093843   0.094323   0.091910  -0.311015   0.098293  -0.297183
     22      -0.224271   0.224893   0.225616   0.263154  -0.415578   0.087203
     23       0.431738  -0.433073  -0.431541   0.081800  -0.194594  -0.019123
     24      -0.093740  -0.093936  -0.090033   0.410213  -0.351855  -0.279293
     25      -0.224309  -0.224112  -0.222200  -0.002211  -0.248938   0.135411
     26       0.432661   0.432798   0.430949   0.075876  -0.205203   0.009351
     27       0.093331  -0.094539   0.091676  -0.311018   0.098275   0.297199
     28       0.223046  -0.225423   0.225057   0.263158  -0.415574  -0.087352
     29      -0.429384   0.434086  -0.430464   0.081802  -0.194596   0.019049
     30      -0.000005   0.000472  -0.000053  -0.003880  -0.006350  -0.016106
     31      -0.000026   0.001066  -0.000084  -0.010276  -0.016978  -0.042784
     32      -0.000037  -0.002046  -0.000043  -0.006194  -0.010207  -0.025721
     33       0.000012  -0.000472  -0.000054  -0.003880  -0.006351   0.016104
     34       0.000042  -0.001066  -0.000087  -0.010277  -0.016980   0.042781
     35       0.000007   0.002046  -0.000037  -0.006194  -0.010209   0.025719
                 24         25         26         27         28         29    
      0       0.055316   0.007669   0.000572   0.142843   0.079513   0.070107
      1       0.045351  -0.049854  -0.029185  -0.271247   0.138613  -0.109580
      2       0.035687  -0.024066  -0.015020  -0.109450   0.089333  -0.041614
      3       0.012172   0.038386  -0.019723   0.284858  -0.031922  -0.124329
      4      -0.071028   0.031856  -0.021484   0.105748  -0.157134  -0.034353
      5      -0.034486   0.024901  -0.015431   0.116680  -0.088572  -0.044824
      6      -0.048227   0.003934  -0.090749  -0.456479  -0.116037   0.035433
      7       0.017688   0.010907   0.035110   0.176770   0.044956   0.094038
      8      -0.001251   0.006562  -0.001514  -0.007717  -0.001933   0.056492
      9       0.055310  -0.007667  -0.000571   0.142841   0.079512   0.070107
     10       0.045348   0.049857   0.029187  -0.271247   0.138612  -0.109584
     11       0.035684   0.024068   0.015021  -0.109450   0.089332  -0.041615
     12      -0.048224  -0.003934   0.090752  -0.456472  -0.116039   0.035432
     13       0.017699  -0.010906  -0.035110   0.176770   0.044958   0.094037
     14      -0.001244  -0.006561   0.001515  -0.007716  -0.001932   0.056492
     15       0.012169  -0.038387   0.019718   0.284859  -0.031922  -0.124329
     16      -0.071023  -0.031860   0.021481   0.105752  -0.157133  -0.034352
     17      -0.034484  -0.024904   0.015428   0.116683  -0.088572  -0.044823
     18      -0.307399   0.361890   0.365618   0.152240   0.406422   0.306900
     19      -0.307882   0.264670   0.255093  -0.005623   0.135273   0.289108
     20      -0.224758   0.215509   0.211269   0.030674   0.158998   0.216133
     21      -0.028436  -0.095693   0.105390   0.117313   0.214162  -0.039051
     22       0.441151   0.440181  -0.438083  -0.099124  -0.375004   0.422807
     23       0.222158   0.207869  -0.204825  -0.026264  -0.148807   0.211226
     24      -0.307393  -0.361895  -0.365615   0.152190   0.406438   0.306909
     25      -0.307869  -0.264678  -0.255089  -0.005653   0.135284   0.289115
     26      -0.224750  -0.215514  -0.211266   0.030647   0.159008   0.216138
     27      -0.028431   0.095694  -0.105388   0.117313   0.214164  -0.039049
     28       0.441163  -0.440172   0.438085  -0.099114  -0.375002   0.422795
     29       0.222166  -0.207864   0.204827  -0.026257  -0.148806   0.211220
     30       0.003024   0.000708  -0.001918   0.002085   0.005544  -0.001250
     31      -0.001086   0.001919   0.000744  -0.000841  -0.002140  -0.003337
     32       0.000089   0.001149  -0.000039   0.000039   0.000107  -0.002005
     33       0.003024  -0.000708   0.001918   0.002085   0.005544  -0.001250
     34      -0.001084  -0.001919  -0.000745  -0.000840  -0.002140  -0.003337
     35       0.000090  -0.001149   0.000039   0.000039   0.000107  -0.002005
                 30         31         32         33         34         35    
      0      -0.185163   0.018268  -0.042036   0.042933   0.041087   0.041906
      1       0.174411   0.267089  -0.003119   0.002628   0.005471   0.004820
      2       0.049994   0.142373  -0.010780   0.010726   0.011794   0.011624
      3       0.254232  -0.160104   0.028086  -0.028744   0.028654   0.029317
      4       0.006898  -0.211479  -0.029357   0.029164  -0.033473  -0.033191
      5       0.059049  -0.144351  -0.009114   0.008865  -0.011134  -0.010831
      6      -0.346139   0.047264  -0.001654   0.000637  -0.003040  -0.000989
      7       0.133327   0.129468   0.000721   0.001906   0.001125  -0.002495
      8      -0.006352   0.077344   0.000012   0.001124  -0.000076  -0.001512
      9       0.185163  -0.018268   0.042651   0.042305   0.041283  -0.041731
     10      -0.174409  -0.267085   0.003156   0.002581   0.005493  -0.004796
     11      -0.049993  -0.142370   0.010933   0.010565   0.011848  -0.011573
     12       0.346137  -0.047263   0.001664   0.000613  -0.003044   0.000975
     13      -0.133330  -0.129471  -0.000693   0.001917   0.001114   0.002500
     14       0.006350  -0.077345   0.000005   0.001124  -0.000083   0.001512
     15      -0.254230   0.160104  -0.028511  -0.028335   0.028778  -0.029184
     16      -0.006897   0.211478   0.029789   0.028737  -0.033613   0.033036
     17      -0.059048   0.144350   0.009245   0.008733  -0.011180   0.010779
     18      -0.107234   0.328441  -0.317216   0.320239  -0.332278  -0.332238
     19      -0.274748   0.132950   0.348019  -0.350586   0.368728   0.367848
     20      -0.165586   0.140196   0.111508  -0.112165   0.118990   0.118516
     21       0.102113  -0.156756  -0.492539  -0.488355  -0.466033   0.467116
     22       0.274060   0.322927  -0.048008  -0.047134  -0.048218   0.047703
     23       0.164446   0.133500  -0.132195  -0.130861  -0.126568   0.126513
     24       0.107238  -0.328452   0.321949   0.315623  -0.333677   0.330694
     25       0.274749  -0.132957  -0.353203  -0.345524   0.370278  -0.366137
     26       0.165588  -0.140203  -0.113166  -0.110542   0.119489  -0.117963
     27      -0.102112   0.156758   0.485444  -0.495604  -0.463836  -0.469090
     28      -0.274061  -0.322931   0.047324  -0.047841  -0.047994  -0.047908
     29      -0.164447  -0.133503   0.130294  -0.132807  -0.125973  -0.127050
     30      -0.003791  -0.000325   0.000003  -0.000033   0.000036  -0.000057
     31       0.001474  -0.000797   0.000001  -0.000092  -0.000010  -0.000151
     32      -0.000058  -0.000480   0.000002  -0.000054   0.000002  -0.000090
     33       0.003791   0.000325  -0.000003  -0.000033   0.000035   0.000057
     34      -0.001474   0.000797  -0.000003  -0.000092  -0.000011   0.000151
     35       0.000058   0.000480  -0.000003  -0.000054   0.000002   0.000090


-----------
IR SPECTRUM
-----------

 Mode    freq (cm**-1)   T**2         TX         TY         TZ
-------------------------------------------------------------------
   6:        96.46    0.360165  ( -0.116197  -0.273389   0.521461)
   7:       218.19    0.869535  ( -0.869022   0.337444  -0.021620)
   8:       284.03    0.000000  (  0.000013   0.000022  -0.000047)
   9:       325.84    0.000000  (  0.000001   0.000012   0.000009)
  10:       355.20    0.000000  (  0.000073  -0.000015   0.000007)
  11:       405.23    0.000183  (  0.003833  -0.007290  -0.010737)
  12:       476.37   19.394744  (  0.828830   1.986044  -3.842319)
  13:       533.20   42.882672  (  2.014029   5.345350   3.202123)
  14:       612.95    0.000000  (  0.000106   0.000287  -0.000550)
  15:       641.63    0.000000  ( -0.000022  -0.000016  -0.000016)
  16:       753.66    0.000000  (  0.000018   0.000100   0.000045)
  17:       796.90   52.609660  (  1.377102   3.283384  -6.319228)
  18:       799.19    0.000455  ( -0.004061  -0.009650   0.018592)
  19:       891.47    0.000000  ( -0.000134  -0.000224   0.000209)
  20:       898.62    0.009700  (  0.049576   0.080970   0.026197)
  21:      1030.13   51.836172  (  2.215715   5.870805   3.529934)
  22:      1091.89  119.538354  (  3.346538   8.924034   5.357299)
  23:      1092.77    0.000000  (  0.000302   0.000421   0.000294)
  24:      1122.55    7.263710  ( -2.531203   0.922740  -0.072623)
  25:      1194.97    0.000000  ( -0.000037   0.000016  -0.000003)
  26:      1313.58    0.000000  (  0.000121   0.000077   0.000066)
  27:      1325.76    0.116603  ( -0.313926   0.134356  -0.001431)
  28:      1415.01    4.774116  (  2.035542  -0.793467   0.033068)
  29:      1500.41  108.117169  (  3.192962   8.483272   5.094728)
  30:      1597.24    0.000000  ( -0.000106  -0.000021  -0.000035)
  31:      1603.10    0.000000  ( -0.000087  -0.000015  -0.000040)
  32:      3155.20    0.000214  (  0.004674   0.011866   0.007166)
  33:      3155.85    3.971484  (  0.687363   1.595615   0.976231)
  34:      3165.62    7.896028  (  2.602750  -1.058934   0.019475)
  35:      3167.83    0.000038  (  0.005668  -0.002464  -0.000040)

The first frequency considered to be a vibration is 6
The total number of vibrations considered is 30


--------------------------
THERMOCHEMISTRY AT 298.15K
--------------------------

Temperature         ... 298.15 K
Pressure            ... 1.00 atm
Total Mass          ... 147.00 AMU

Throughout the following assumptions are being made:
  (1) The electronic state is orbitally nondegenerate
  (2) There are no thermally accessible electronically excited states
  (3) Hindered rotations indicated by low frequency modes are not
      treated as such but are treated as vibrations and this may
      cause some error
  (4) All equations used are the standard statistical mechanics
      equations for an ideal gas
  (5) All vibrations are strictly harmonic

freq.      96.46  E(vib)   ...       0.47 
freq.     218.19  E(vib)   ...       0.33 
freq.     284.03  E(vib)   ...       0.28 
freq.     325.84  E(vib)   ...       0.24 
freq.     355.20  E(vib)   ...       0.22 
freq.     405.23  E(vib)   ...       0.19 
freq.     476.37  E(vib)   ...       0.15 
freq.     533.20  E(vib)   ...       0.13 
freq.     612.95  E(vib)   ...       0.10 
freq.     641.63  E(vib)   ...       0.09 
freq.     753.66  E(vib)   ...       0.06 
freq.     796.90  E(vib)   ...       0.05 
freq.     799.19  E(vib)   ...       0.05 
freq.     891.47  E(vib)   ...       0.03 
freq.     898.62  E(vib)   ...       0.03 
freq.    1030.13  E(vib)   ...       0.02 
freq.    1091.89  E(vib)   ...       0.02 
freq.    1092.77  E(vib)   ...       0.02 
freq.    1122.55  E(vib)   ...       0.01 
freq.    1194.97  E(vib)   ...       0.01 
freq.    1313.58  E(vib)   ...       0.01 
freq.    1325.76  E(vib)   ...       0.01 
freq.    1415.01  E(vib)   ...       0.00 
freq.    1500.41  E(vib)   ...       0.00 
freq.    1597.24  E(vib)   ...       0.00 
freq.    1603.10  E(vib)   ...       0.00 
freq.    3155.20  E(vib)   ...       0.00 
freq.    3155.85  E(vib)   ...       0.00 
freq.    3165.62  E(vib)   ...       0.00 
freq.    3167.83  E(vib)   ...       0.00 

------------
INNER ENERGY
------------

The inner energy is: U= E(el) + E(ZPE) + E(vib) + E(rot) + E(trans)
    E(el)   - is the total energy from the electronic structure calculation
              = E(kin-el) + E(nuc-el) + E(el-el) + E(nuc-nuc)
    E(ZPE)  - the the zero temperature vibrational energy from the frequency calculation
    E(vib)  - the the finite temperature correction to E(ZPE) due to population
              of excited vibrational states
    E(rot)  - is the rotational thermal energy
    E(trans)- is the translational thermal energy

Summary of contributions to the inner energy U:
Electronic energy                ...  -1151.22514684 Eh
Zero point energy                ...      0.07978340 Eh      50.06 kcal/mol
Thermal vibrational correction   ...      0.00402188 Eh       2.52 kcal/mol
Thermal rotational correction    ...      0.00141627 Eh       0.89 kcal/mol
Thermal translational correction ...      0.00141627 Eh       0.89 kcal/mol
-----------------------------------------------------------------------
Total thermal energy                  -1151.13850901 Eh


Summary of corrections to the electronic energy:
(perhaps to be used in another calculation)
Total thermal correction                  0.00685442 Eh       4.30 kcal/mol
Non-thermal (ZPE) correction              0.07978340 Eh      50.06 kcal/mol
-----------------------------------------------------------------------
Total correction                          0.08663782 Eh      54.37 kcal/mol


--------
ENTHALPY
--------

The enthalpy is H = U + kB*T
                kB is Boltzmann's constant
Total free energy                 ...  -1151.13850901 Eh 
Thermal Enthalpy correction       ...      0.00094421 Eh       0.59 kcal/mol
-----------------------------------------------------------------------
Total Enthalpy                    ...  -1151.13756480 Eh

Error (ORCA_SYM): TSymmetryOperation::SetReflection called with NULL axis!
If your molecule is not C1 symmetric, check warnings below carefully ...
Error (ORCA_SYM): TSymmetryOperation::SetReflection called with NULL axis!
If your molecule is not C1 symmetric, check warnings below carefully ...

Note: Only C1 symmetry has been detected, increase convergence thresholds 
      if your molecule has a higher symmetry. Symmetry factor of 1.0 is   
      used for the rotational entropy correction. 
 

Note: Rotational entropy computed according to Herzberg 
Infrared and Raman Spectra, Chapter V,1, Van Nostrand Reinhold, 1945 
Point Group:  C1, Symmetry Number:   1  
Rotational constants in cm-1:     0.190877     0.021921     0.019663 

Vibrational entropy computed according to the QRRHO of S. Grimme
Chem.Eur.J. 2012 18 9955


-------
ENTROPY
-------

The entropy contributions are T*S = T*(S(el)+S(vib)+S(rot)+S(trans))
     S(el)   - electronic entropy
     S(vib)  - vibrational entropy
     S(rot)  - rotational entropy
     S(trans)- translational entropy
The entropies will be listed as mutliplied by the temperature to get
units of energy

Electronic entropy                ...      0.00000000 Eh      0.00 kcal/mol
Vibrational entropy               ...      0.00642580 Eh      4.03 kcal/mol
Rotational entropy                ...      0.01395104 Eh      8.75 kcal/mol
Translational entropy             ...      0.01941692 Eh     12.18 kcal/mol
-----------------------------------------------------------------------
Final entropy term                ...      0.03979376 Eh     24.97 kcal/mol

In case the symmetry of your molecule has not been determined correctly
or in case you have a reason to use a different symmetry number we print 
out the resulting rotational entropy values for sn=1,12 :
 --------------------------------------------------------
|  sn= 1 | S(rot)=       0.01395104 Eh      8.75 kcal/mol|
|  sn= 2 | S(rot)=       0.01329658 Eh      8.34 kcal/mol|
|  sn= 3 | S(rot)=       0.01291375 Eh      8.10 kcal/mol|
|  sn= 4 | S(rot)=       0.01264213 Eh      7.93 kcal/mol|
|  sn= 5 | S(rot)=       0.01243144 Eh      7.80 kcal/mol|
|  sn= 6 | S(rot)=       0.01225929 Eh      7.69 kcal/mol|
|  sn= 7 | S(rot)=       0.01211375 Eh      7.60 kcal/mol|
|  sn= 8 | S(rot)=       0.01198767 Eh      7.52 kcal/mol|
|  sn= 9 | S(rot)=       0.01187646 Eh      7.45 kcal/mol|
|  sn=10 | S(rot)=       0.01177698 Eh      7.39 kcal/mol|
|  sn=11 | S(rot)=       0.01168699 Eh      7.33 kcal/mol|
|  sn=12 | S(rot)=       0.01160484 Eh      7.28 kcal/mol|
 --------------------------------------------------------


-------------------
GIBBS FREE ENERGY
-------------------

The Gibbs free energy is G = H - T*S

Total enthalpy                    ...  -1151.13756480 Eh 
Total entropy correction          ...     -0.03979376 Eh    -24.97 kcal/mol
-----------------------------------------------------------------------
Final Gibbs free energy         ...  -1151.17735856 Eh

For completeness - the Gibbs free energy minus the electronic energy
G-E(el)                           ...      0.04778827 Eh     29.99 kcal/mol


Timings for individual modules:

Sum of individual times         ...      110.159 sec (=   1.836 min)
GTO integral calculation        ...        2.365 sec (=   0.039 min)   2.1 %
SCF iterations                  ...       25.605 sec (=   0.427 min)  23.2 %
SCF Gradient evaluation         ...       13.525 sec (=   0.225 min)  12.3 %
Geometry relaxation             ...        0.239 sec (=   0.004 min)   0.2 %
Analytical frequency calculation...       68.425 sec (=   1.140 min)  62.1 %
                             ****ORCA TERMINATED NORMALLY****
TOTAL RUN TIME: 0 days 0 hours 1 minutes 51 seconds 61 msec
