
                                 *****************
                                 * O   R   C   A *
                                 *****************

           --- An Ab Initio, DFT and Semiempirical electronic structure package ---

                  #######################################################
                  #                        -***-                        #
                  #          Department of theory and spectroscopy      #
                  #               Directorship: Frank Neese             #
                  #        Max Planck Institute fuer Kohlenforschung    #
                  #                Kaiser Wilhelm Platz 1               #
                  #                 D-45470 Muelheim/Ruhr               #
                  #                      Germany                        #
                  #                                                     #
                  #                  All rights reserved                #
                  #                        -***-                        #
                  #######################################################


                         Program Version 4.2.1 -  RELEASE  -


 With contributions from (in alphabetic order):
   Daniel Aravena         : Magnetic Suceptibility
   Michael Atanasov       : Ab Initio Ligand Field Theory (pilot matlab implementation)
   Alexander A. Auer      : GIAO ZORA, VPT2
   Ute Becker             : Parallelization
   Giovanni Bistoni       : ED, misc. LED, open-shell LED, HFLD
   Martin Brehm           : Molecular dynamics
   Dmytro Bykov           : SCF Hessian
   Vijay G. Chilkuri      : MRCI spin determinant printing, contributions to CSF-ICE
   Dipayan Datta          : RHF DLPNO-CCSD density
   Achintya Kumar Dutta   : EOM-CC, STEOM-CC
   Dmitry Ganyushin       : Spin-Orbit,Spin-Spin,Magnetic field MRCI
   Miquel Garcia          : C-PCM Hessian, Gaussian charge scheme
   Yang Guo               : DLPNO-NEVPT2, CIM, IAO-localization
   Andreas Hansen         : Spin unrestricted coupled pair/coupled cluster methods
   Benjamin Helmich-Paris : CASSCF linear response (MC-RPA)
   Lee Huntington         : MR-EOM, pCC
   Robert Izsak           : Overlap fitted RIJCOSX, COSX-SCS-MP3, EOM
   Christian Kollmar      : KDIIS, OOCD, Brueckner-CCSD(T), CCSD density
   Simone Kossmann        : Meta GGA functionals, TD-DFT gradient, OOMP2, MP2 Hessian
   Martin Krupicka        : AUTO-CI
   Lucas Lang             : DCDCAS
   Dagmar Lenk            : GEPOL surface, SMD
   Dimitrios Liakos       : Extrapolation schemes; Compound Job, initial MDCI parallelization
   Dimitrios Manganas     : Further ROCIS development; embedding schemes
   Dimitrios Pantazis     : SARC Basis sets
   Taras Petrenko         : DFT Hessian,TD-DFT gradient, ASA, ECA, R-Raman, ABS, FL, XAS/XES, NRVS
   Peter Pinski           : DLPNO-MP2, DLPNO-MP2 Gradient
   Christoph Reimann      : Effective Core Potentials
   Marius Retegan         : Local ZFS, SOC
   Christoph Riplinger    : Optimizer, TS searches, QM/MM, DLPNO-CCSD(T), (RO)-DLPNO pert. Triples
   Tobias Risthaus        : Range-separated hybrids, TD-DFT gradient, RPA, STAB
   Michael Roemelt        : Original ROCIS implementation
   Masaaki Saitow         : Open-shell DLPNO-CCSD energy and density
   Barbara Sandhoefer     : DKH picture change effects
   Avijit Sen             : IP-ROCIS
   Kantharuban Sivalingam : CASSCF convergence, NEVPT2, FIC-MRCI
   Bernardo de Souza      : ESD, SOC TD-DFT
   Georgi Stoychev        : AutoAux, RI-MP2 NMR
   Willem Van den Heuvel  : Paramagnetic NMR
   Boris Wezisla          : Elementary symmetry handling
   Frank Wennmohs         : Technical directorship


 We gratefully acknowledge several colleagues who have allowed us to
 interface, adapt or use parts of their codes:
   Stefan Grimme, W. Hujo, H. Kruse,             : VdW corrections, initial TS optimization,
                  C. Bannwarth                     DFT functionals, gCP, sTDA/sTD-DF
   Ed Valeev, F. Pavosevic, A. Kumar             : LibInt (2-el integral package), F12 methods
   Garnet Chan, S. Sharma, J. Yang, R. Olivares  : DMRG
   Ulf Ekstrom                                   : XCFun DFT Library
   Mihaly Kallay                                 : mrcc  (arbitrary order and MRCC methods)
   Andreas Klamt, Michael Diedenhofen            : otool_cosmo (COSMO solvation model)
   Jiri Pittner, Ondrej Demel                    : Mk-CCSD
   Frank Weinhold                                : gennbo (NPA and NBO analysis)
   Christopher J. Cramer and Donald G. Truhlar   : smd solvation model
   Lars Goerigk                                  : TD-DFT with DH, B97 family of functionals
   V. Asgeirsson, H. Jonsson                     : NEB implementation
   FAccTs GmbH                                   : IRC, NEB, NEB-TS, Multilevel, MM, QM/MM, CI optimization
   S Lehtola, MJT Oliveira, MAL Marques          : LibXC Library


 Your calculation uses the libint2 library for the computation of 2-el integrals
 For citations please refer to: http://libint.valeyev.net

 Your ORCA version has been built with support for libXC version: 4.2.3
 For citations please refer to: https://tddft.org/programs/libxc/

 This ORCA versions uses:
   CBLAS   interface :  Fast vector & matrix operations
   LAPACKE interface :  Fast linear algebra routines
   SCALAPACK package :  Parallel linear algebra routines




***************************************
The coordinates will be read from file: init.xyz
***************************************


Your calculation utilizes the geometrical counterpoise correction gCP
Please cite in your paper:
H.Kruse, S. Grimme J.Chem.Phys., 136, (2012), 154101 
   

Your calculation utilizes the atom-pairwise dispersion correction
based on tight binding partial charges (D4)
Cite in your paper:
E.Caldeweyher, C.Bannwarth, S.Grimme, J.Chem.Phys., (2017), 147, 034112.
E.Caldeweyher, S.Ehlert, A.Hansen, H.Neugebauer, S.Grimme, J.Chem.Phys., (2018), in progress.
   

----- Orbital basis set information -----
Your calculation utilizes the basis: def2-SVP
   F. Weigend and R. Ahlrichs, Phys. Chem. Chem. Phys. 7, 3297 (2005).

----- AuxJ basis set information -----
Your calculation utilizes the auxiliary basis: def2/J
   F. Weigend, Phys. Chem. Chem. Phys. 8, 1057 (2006).

================================================================================
                                        WARNINGS
                       Please study these warnings very carefully!
================================================================================


WARNING: Geometry Optimization
  ===> : Switching off AutoStart
         For restart on a previous wavefunction, please use MOREAD

INFO   : the flag for use of LIBINT has been found!

================================================================================
                                       INPUT FILE
================================================================================
NAME = opt.inp
|  1> ! revPBE D4 gCP(DFT/TZ) def2-SVP Opt Freq TightOpt TightSCF Grid4 FinalGrid5 LargePrint
|  2> 
|  3> %pal
|  4>  nprocs 8
|  5> end
|  6> 
|  7> *xyzfile 0 1 init.xyz
|  8> 
|  9>                          ****END OF INPUT****
================================================================================

                       *****************************
                       * Geometry Optimization Run *
                       *****************************

Geometry optimization settings:
Update method            Update   .... BFGS
Choice of coordinates    CoordSys .... Z-matrix Internals
Initial Hessian          InHess   .... Almoef's Model

Convergence Tolerances:
Energy Change            TolE     ....  1.0000e-06 Eh
Max. Gradient            TolMAXG  ....  1.0000e-04 Eh/bohr
RMS Gradient             TolRMSG  ....  3.0000e-05 Eh/bohr
Max. Displacement        TolMAXD  ....  1.0000e-03 bohr
RMS Displacement         TolRMSD  ....  6.0000e-04 bohr
Strict Convergence                ....  False
------------------------------------------------------------------------------
                        ORCA OPTIMIZATION COORDINATE SETUP
------------------------------------------------------------------------------

The optimization will be done in new redundant internal coordinates
Making redundant internal coordinates   ...  (new redundants) done
Evaluating the initial hessian          ...  (Almloef) done
Evaluating the coordinates              ...  done
Calculating the B-matrix                .... done
Calculating the G-matrix                .... done
Diagonalizing the G-matrix              .... done
The first mode is                       ....   30
The number of degrees of freedom        ....   39

    -----------------------------------------------------------------
                    Redundant Internal Coordinates


    -----------------------------------------------------------------
         Definition                    Initial Value    Approx d2E/dq
    -----------------------------------------------------------------
      1. B(C   1,C   0)                  1.5259         0.379224   
      2. B(H   2,C   0)                  1.1104         0.334110   
      3. B(H   3,C   0)                  1.1109         0.333481   
      4. B(H   4,C   0)                  1.1109         0.333480   
      5. B(C   5,C   1)                  1.5331         0.369339   
      6. B(H   6,C   1)                  1.1119         0.332212   
      7. B(H   7,C   1)                  1.1119         0.332204   
      8. B(C   8,C   5)                  1.5282         0.376052   
      9. B(H   9,C   5)                  1.1124         0.331704   
     10. B(H  10,C   5)                  1.1124         0.331701   
     11. B(H  11,C   8)                  1.1133         0.330508   
     12. B(H  12,C   8)                  1.1133         0.330511   
     13. B(O  13,C   8)                  1.4001         0.539285   
     14. B(H  14,O  13)                  0.9924         0.461545   
     15. A(H   3,C   0,H   4)          109.1888         0.283943   
     16. A(C   1,C   0,H   4)          110.3409         0.321051   
     17. A(C   1,C   0,H   2)          109.5908         0.321150   
     18. A(H   2,C   0,H   3)          108.6698         0.284026   
     19. A(H   2,C   0,H   4)          108.6705         0.284026   
     20. A(C   1,C   0,H   3)          110.3402         0.321051   
     21. A(C   0,C   1,C   5)          111.1514         0.363576   
     22. A(H   6,C   1,H   7)          108.7172         0.283606   
     23. A(C   5,C   1,H   7)          109.6522         0.319468   
     24. A(C   0,C   1,H   7)          108.8125         0.320849   
     25. A(C   5,C   1,H   6)          109.6514         0.319469   
     26. A(C   0,C   1,H   6)          108.8111         0.320851   
     27. A(C   8,C   5,H   9)          108.9990         0.320330   
     28. A(C   1,C   5,H   9)          109.4655         0.319389   
     29. A(C   1,C   5,C   8)          111.1536         0.363054   
     30. A(H   9,C   5,H  10)          108.7201         0.283472   
     31. A(C   8,C   5,H  10)          108.9969         0.320330   
     32. A(C   1,C   5,H  10)          109.4650         0.319389   
     33. A(H  12,C   8,O  13)          109.6136         0.337730   
     34. A(H  11,C   8,O  13)          109.6157         0.337729   
     35. A(C   5,C   8,O  13)          109.2973         0.385112   
     36. A(H  11,C   8,H  12)          109.9818         0.283155   
     37. A(C   5,C   8,H  12)          109.1598         0.320142   
     38. A(C   5,C   8,H  11)          109.1553         0.320141   
     39. A(C   8,O  13,H  14)          106.0878         0.354132   
     40. D(H   6,C   1,C   0,H   4)    178.7787         0.011464   
     41. D(H   7,C   1,C   0,H   3)   -178.7783         0.011464   
     42. D(C   5,C   1,C   0,H   3)     60.3739         0.011464   
     43. D(C   5,C   1,C   0,H   2)    179.9985         0.011464   
     44. D(C   5,C   1,C   0,H   4)    -60.3754         0.011464   
     45. D(H   6,C   1,C   0,H   3)    -60.4720         0.011464   
     46. D(H   7,C   1,C   0,H   4)     60.4724         0.011464   
     47. D(H   6,C   1,C   0,H   2)     59.1526         0.011464   
     48. D(H   7,C   1,C   0,H   2)    -59.1536         0.011464   
     49. D(H   9,C   5,C   1,H   6)    179.8909         0.010907   
     50. D(C   8,C   5,C   1,H   7)     59.6523         0.010907   
     51. D(C   8,C   5,C   1,H   6)    -59.6451         0.010907   
     52. D(C   8,C   5,C   1,C   0)   -179.9952         0.010907   
     53. D(H   9,C   5,C   1,H   7)    -60.8117         0.010907   
     54. D(H  10,C   5,C   1,H   7)   -179.8867         0.010907   
     55. D(H  10,C   5,C   1,H   6)     60.8159         0.010907   
     56. D(H  10,C   5,C   1,C   0)    -59.5342         0.010907   
     57. D(H   9,C   5,C   1,C   0)     59.5408         0.010907   
     58. D(O  13,C   8,C   5,H   9)    -59.2645         0.011283   
     59. D(O  13,C   8,C   5,C   1)    179.9963         0.011283   
     60. D(H  12,C   8,C   5,H  10)    179.1382         0.011283   
     61. D(H  12,C   8,C   5,H   9)     60.6145         0.011283   
     62. D(H  12,C   8,C   5,C   1)    -60.1247         0.011283   
     63. D(H  11,C   8,C   5,H  10)    -60.6197         0.011283   
     64. D(H  11,C   8,C   5,H   9)   -179.1434         0.011283   
     65. D(O  13,C   8,C   5,H  10)     59.2592         0.011283   
     66. D(H  11,C   8,C   5,C   1)     60.1174         0.011283   
     67. D(H  14,O  13,C   8,H  12)     60.4612         0.023133   
     68. D(H  14,O  13,C   8,H  11)    -60.3440         0.023133   
     69. D(H  14,O  13,C   8,C   5)   -179.9394         0.023133   
    -----------------------------------------------------------------

Number of atoms                         .... 15
Number of degrees of freedom            .... 69

         *************************************************************
         *                GEOMETRY OPTIMIZATION CYCLE   1            *
         *************************************************************
---------------------------------
CARTESIAN COORDINATES (ANGSTROEM)
---------------------------------
  C     -5.433670   -3.286340   -3.997290
  C     -5.242630   -3.882980   -2.605910
  H     -4.967630   -3.951240   -4.754710
  H     -4.953230   -2.286540   -4.058010
  H     -6.515450   -3.186310   -4.229360
  C     -5.874030   -2.991510   -1.530260
  H     -4.153720   -3.992310   -2.409090
  H     -5.712810   -4.890300   -2.580060
  C     -5.682630   -3.588940   -0.136760
  H     -6.962660   -2.882630   -1.731190
  H     -5.402970   -1.984260   -1.560220
  H     -4.593470   -3.684610    0.073260
  H     -6.166800   -4.590780   -0.099050
  O     -6.272180   -2.746000    0.813010
  H     -6.119980   -3.175920    1.694450

----------------------------
CARTESIAN COORDINATES (A.U.)
----------------------------
  NO LB      ZA    FRAG     MASS         X           Y           Z
   0 C     6.0000    0    12.011  -10.268148   -6.210283   -7.553783
   1 C     6.0000    0    12.011   -9.907135   -7.337769   -4.924456
   2 H     1.0000    0     1.008   -9.387460   -7.466761   -8.985100
   3 H     1.0000    0     1.008   -9.360248   -4.320934   -7.668528
   4 H     1.0000    0     1.008  -12.312416   -6.021253   -7.992332
   5 C     6.0000    0    12.011  -11.100308   -5.653135   -2.891772
   6 H     1.0000    0     1.008   -7.849393   -7.544373   -4.552520
   7 H     1.0000    0     1.008  -10.795646   -9.241328   -4.875607
   8 C     6.0000    0    12.011  -10.738614   -6.782114   -0.258439
   9 H     1.0000    0     1.008  -13.157521   -5.447381   -3.271475
  10 H     1.0000    0     1.008  -10.210134   -3.749708   -2.948389
  11 H     1.0000    0     1.008   -8.680400   -6.962904    0.138441
  12 H     1.0000    0     1.008  -11.653563   -8.675317   -0.187177
  13 O     8.0000    0    15.999  -11.852702   -5.189188    1.536366
  14 H     1.0000    0     1.008  -11.565086   -6.001619    3.202046

--------------------------------
INTERNAL COORDINATES (ANGSTROEM)
--------------------------------
 C      0   0   0     0.000000000000     0.00000000     0.00000000
 C      1   0   0     1.525914111475     0.00000000     0.00000000
 H      1   2   0     1.110391979438   109.59081693     0.00000000
 H      1   2   3     1.110904834808   110.34021123   240.37538128
 H      1   2   3     1.110905240873   110.34094962   119.62603691
 C      2   1   3     1.533103924527   111.15139646   179.99853570
 H      2   1   3     1.111942511733   108.81105683    59.15263464
 H      2   1   3     1.111949206259   108.81250759   300.84636785
 C      6   2   1     1.528201169644   111.15358921   180.00476861
 H      6   2   1     1.112359202866   109.46551174    59.54077619
 H      6   2   1     1.112361311670   109.46495732   300.46576334
 H      9   6   2     1.113342110449   109.15532490    60.11740843
 H      9   6   2     1.113340028293   109.15977543   299.87531843
 O      9   6   2     1.400064319594   109.29730508   179.99630247
 H     14   9   6     0.992437665549   106.08784499   180.06064206

---------------------------
INTERNAL COORDINATES (A.U.)
---------------------------
 C      0   0   0     0.000000000000     0.00000000     0.00000000
 C      1   0   0     2.883559774574     0.00000000     0.00000000
 H      1   2   0     2.098336742440   109.59081693     0.00000000
 H      1   2   3     2.099305898636   110.34021123   240.37538128
 H      1   2   3     2.099306665989   110.34094962   119.62603691
 C      2   1   3     2.897146552196   111.15139646   179.99853570
 H      2   1   3     2.101266823841   108.81105683    59.15263464
 H      2   1   3     2.101279474661   108.81250759   300.84636785
 C      6   2   1     2.887881688164   111.15358921   180.00476861
 H      6   2   1     2.102054255963   109.46551174    59.54077619
 H      6   2   1     2.102058241026   109.46495732   300.46576334
 H      9   6   2     2.103911682111   109.15532490    60.11740843
 H      9   6   2     2.103907747406   109.15977543   299.87531843
 O      9   6   2     2.645738133907   109.29730508   179.99630247
 H     14   9   6     1.875435392875   106.08784499   180.06064206

---------------------
BASIS SET INFORMATION
---------------------
There are 3 groups of distinct atoms

 Group   1 Type C   : 7s4p1d contracted to 3s2p1d pattern {511/31/1}
 Group   2 Type H   : 4s1p contracted to 2s1p pattern {31/1}
 Group   3 Type O   : 7s4p1d contracted to 3s2p1d pattern {511/31/1}

Atom   0C    basis set group =>   1
Atom   1C    basis set group =>   1
Atom   2H    basis set group =>   2
Atom   3H    basis set group =>   2
Atom   4H    basis set group =>   2
Atom   5C    basis set group =>   1
Atom   6H    basis set group =>   2
Atom   7H    basis set group =>   2
Atom   8C    basis set group =>   1
Atom   9H    basis set group =>   2
Atom  10H    basis set group =>   2
Atom  11H    basis set group =>   2
Atom  12H    basis set group =>   2
Atom  13O    basis set group =>   3
Atom  14H    basis set group =>   2

-------------------------
BASIS SET IN INPUT FORMAT
-------------------------

 # Basis set for element : H 
 NewGTO H 
 S 3 
   1      13.0107010000      0.0334854848
   2       1.9622572000      0.2347218709
   3       0.4445379600      0.8137702853
 S 1 
   1       0.1219496200      1.0000000000
 P 1 
   1       0.8000000000      1.0000000000
  end;

 # Basis set for element : C 
 NewGTO C 
 S 5 
   1    1238.4016938000      0.0055173650
   2     186.2900499200      0.0410888285
   3      42.2511763460      0.1822538213
   4      11.6765579320      0.4682845944
   5       3.5930506482      0.4457581734
 S 1 
   1       0.4024514736      1.0000000000
 S 1 
   1       0.1309018267      1.0000000000
 P 3 
   1       9.4680970621      0.0568883320
   2       2.0103545142      0.3129405934
   3       0.5477100471      0.7606501651
 P 1 
   1       0.1526861379      1.0000000000
 D 1 
   1       0.8000000000      1.0000000000
  end;

 # Basis set for element : O 
 NewGTO O 
 S 5 
   1    2266.1767785000     -0.0053893504
   2     340.8701019100     -0.0402347214
   3      77.3631351670     -0.1800818421
   4      21.4796449400     -0.4682885766
   5       6.6589433124     -0.4469261716
 S 1 
   1       0.8097597567      1.0000000000
 S 1 
   1       0.2553077223      1.0000000000
 P 3 
   1      17.7215043170      0.0626302488
   2       3.8635505440      0.3333113849
   3       1.0480920883      0.7414863830
 P 1 
   1       0.2764154441      1.0000000000
 D 1 
   1       1.2000000000      1.0000000000
  end;

---------------------------------
AUXILIARY/J BASIS SET INFORMATION
---------------------------------
There are 3 groups of distinct atoms

 Group   1 Type C   : 12s5p4d2f1g contracted to 6s4p3d1f1g pattern {711111/2111/211/2/1}
 Group   2 Type H   : 5s2p1d contracted to 3s1p1d pattern {311/2/1}
 Group   3 Type O   : 12s5p4d2f1g contracted to 6s4p3d1f1g pattern {711111/2111/211/2/1}

Atom   0C    basis set group =>   1
Atom   1C    basis set group =>   1
Atom   2H    basis set group =>   2
Atom   3H    basis set group =>   2
Atom   4H    basis set group =>   2
Atom   5C    basis set group =>   1
Atom   6H    basis set group =>   2
Atom   7H    basis set group =>   2
Atom   8C    basis set group =>   1
Atom   9H    basis set group =>   2
Atom  10H    basis set group =>   2
Atom  11H    basis set group =>   2
Atom  12H    basis set group =>   2
Atom  13O    basis set group =>   3
Atom  14H    basis set group =>   2

-------------------------------------
AUXILIARY/J BASIS SET IN INPUT FORMAT
-------------------------------------

 # Auxiliary/J basis set for element : H 
 NewAuxJGTO H 
 S 3 
   1      15.6752927000      0.1007184237
   2       3.6063578000      0.3404257499
   3       1.2080016000      0.6491996172
 S 1 
   1       0.4726794000      1.0000000000
 S 1 
   1       0.2018100000      1.0000000000
 P 2 
   1       2.0281365000      0.5596620919
   2       0.5358730000      0.5596620919
 D 1 
   1       2.2165124000      1.0000000000
  end;

 # Auxiliary/J basis set for element : C 
 NewAuxJGTO C 
 S 7 
   1    1861.0916331000      0.0134602335
   2     642.9939764000      0.0299160374
   3     235.1105725000      0.1008649584
   4      90.7028894000      0.2370970548
   5      36.7794552000      0.3924037254
   6      15.6046273000      0.3195862154
   7       6.8907294000      0.0530104441
 S 1 
   1       3.1478850000     -1.0000000000
 S 1 
   1       1.4777287000      1.0000000000
 S 1 
   1       0.7076466000      1.0000000000
 S 1 
   1       0.3430122000      1.0000000000
 S 1 
   1       0.1669453000      1.0000000000
 P 2 
   1      13.5472892000     -0.6769313712
   2       5.4669419000     -0.3779500978
 P 1 
   1       2.1751721000      1.0000000000
 P 1 
   1       0.8582194000      1.0000000000
 P 1 
   1       0.3376720000      1.0000000000
 D 2 
   1       5.9287253000     -0.3533329857
   2       1.9809209000     -0.7456525731
 D 1 
   1       0.8055417000     -1.0000000000
 D 1 
   1       0.3531244000     -1.0000000000
 F 2 
   1       1.6755626000      0.6311076882
   2       0.5997536000      0.4968166032
 G 1 
   1       1.0024600000     -1.0000000000
  end;

 # Auxiliary/J basis set for element : O 
 NewAuxJGTO O 
 S 7 
   1    2876.8216605000      0.0168151159
   2    1004.7443032000      0.0340137548
   3     369.7579954000      0.1194951309
   4     142.9442404000      0.2664627624
   5      57.8366425000      0.4202764046
   6      24.3864983000      0.2765077335
   7      10.6622662000      0.0057008815
 S 1 
   1       4.8070437000     -1.0000000000
 S 1 
   1       2.2210770000      1.0000000000
 S 1 
   1       1.0447795000      1.0000000000
 S 1 
   1       0.4968425000      1.0000000000
 S 1 
   1       0.2371384000      1.0000000000
 P 2 
   1      64.2613382000     -0.2731534179
   2      16.3006076000     -0.8168011598
 P 1 
   1       4.3550542000      1.0000000000
 P 1 
   1       1.2019554000      1.0000000000
 P 1 
   1       0.3354196000      1.0000000000
 D 2 
   1       9.2146611000     -0.4661230638
   2       2.8435251000     -0.6600908911
 D 1 
   1       0.9955759000     -1.0000000000
 D 1 
   1       0.3649441000     -1.0000000000
 F 2 
   1       2.6420115000      0.5931563945
   2       0.7345613000      0.5931563945
 G 1 
   1       1.3931000000     -1.0000000000
  end;



           ************************************************************
           *        Program running with 8 parallel MPI-processes     *
           *              working on a common directory               *
           ************************************************************
------------------------------------------------------------------------------
                           ORCA GTO INTEGRAL CALCULATION
                           -- RI-GTO INTEGRALS CHOSEN --
------------------------------------------------------------------------------

                         BASIS SET STATISTICS AND STARTUP INFO

Gaussian basis set:
 # of primitive gaussian shells          ...  110
 # of primitive gaussian functions       ...  190
 # of contracted shells                  ...   60
 # of contracted basis functions         ...  120
 Highest angular momentum                ...    2
 Maximum contraction depth               ...    5
Auxiliary gaussian basis set:
 # of primitive gaussian shells          ...  200
 # of primitive gaussian functions       ...  510
 # of contracted shells                  ...  125
 # of contracted aux-basis functions     ...  355
 Highest angular momentum                ...    4
 Maximum contraction depth               ...    7
Ratio of auxiliary to basis functions    ...  2.96
Integral package used                  ... LIBINT
 One Electron integrals                  ... done
 Ordering auxiliary basis shells         ... done
 Integral threshhold             Thresh  ...  2.500e-11
 Primitive cut-off               TCut    ...  2.500e-12
 Pre-screening matrix                    ... done
 Shell pair data                         ... 
 Ordering of the shell pairs             ... done (   0.000 sec) 1759 of 1830 pairs
 Determination of significant pairs      ... done (   0.000 sec)
 Creation of shell pair data             ... done (   0.000 sec)
 Storage of shell pair data              ... done (   0.000 sec)
 Shell pair data done in (   0.001 sec)
 Computing two index integrals           ... done
 Cholesky decomposition of the V-matrix  ... done


Timings:
 Total evaluation time                   ...   0.152 sec (  0.003 min)
 One electron matrix time                ...   0.014 sec (  0.000 min) =  9.2%
 Schwartz matrix evaluation time         ...   0.107 sec (  0.002 min) = 70.3%
 Two index repulsion integral time       ...   0.004 sec (  0.000 min) =  2.7%
 Cholesky decomposition of V             ...   0.006 sec (  0.000 min) =  4.2%
 Three index repulsion integral time     ...   0.000 sec (  0.000 min) =  0.0%



           ************************************************************
           *        Program running with 8 parallel MPI-processes     *
           *              working on a common directory               *
           ************************************************************
-------------------------------------------------------------------------------
                                 ORCA SCF
-------------------------------------------------------------------------------

------------
SCF SETTINGS
------------
Hamiltonian:
 Density Functional     Method          .... DFT(GTOs)
 Exchange Functional    Exchange        .... PBE
   PBE kappa parameter   XKappa         ....  1.245000
   PBE mue parameter    XMuePBE         ....  0.219520
 Correlation Functional Correlation     .... PBE
   PBE beta parameter  CBetaPBE         ....  0.066725
 LDA part of GGA corr.  LDAOpt          .... PW91-LDA
 Gradients option       PostSCFGGA      .... off
   Density functional embedding theory  .... OFF
   NL short-range parameter             ....  3.700000
 RI-approximation to the Coulomb term is turned on
   Number of auxiliary basis functions  .... 355


General Settings:
 Integral files         IntName         .... opt
 Hartree-Fock type      HFTyp           .... RHF
 Total Charge           Charge          ....    0
 Multiplicity           Mult            ....    1
 Number of Electrons    NEL             ....   42
 Basis Dimension        Dim             ....  120
 Nuclear Repulsion      ENuc            ....    184.7857687710 Eh

Convergence Acceleration:
 DIIS                   CNVDIIS         .... on
   Start iteration      DIISMaxIt       ....    12
   Startup error        DIISStart       ....  0.200000
   # of expansion vecs  DIISMaxEq       ....     5
   Bias factor          DIISBfac        ....   1.050
   Max. coefficient     DIISMaxC        ....  10.000
 Newton-Raphson         CNVNR           .... off
 SOSCF                  CNVSOSCF        .... on
   Start iteration      SOSCFMaxIt      ....   150
   Startup grad/error   SOSCFStart      ....  0.003300
 Level Shifting         CNVShift        .... on
   Level shift para.    LevelShift      ....    0.2500
   Turn off err/grad.   ShiftErr        ....    0.0010
 Zerner damping         CNVZerner       .... off
 Static damping         CNVDamp         .... on
   Fraction old density DampFac         ....    0.7000
   Max. Damping (<1)    DampMax         ....    0.9800
   Min. Damping (>=0)   DampMin         ....    0.0000
   Turn off err/grad.   DampErr         ....    0.1000
 Fernandez-Rico         CNVRico         .... off

SCF Procedure:
 Maximum # iterations   MaxIter         ....   125
 SCF integral mode      SCFMode         .... Direct
   Integral package                     .... LIBINT
 Reset frequency        DirectResetFreq ....    20
 Integral Threshold     Thresh          ....  2.500e-11 Eh
 Primitive CutOff       TCut            ....  2.500e-12 Eh

Convergence Tolerance:
 Convergence Check Mode ConvCheckMode   .... Total+1el-Energy
 Convergence forced     ConvForced      .... 0
 Energy Change          TolE            ....  1.000e-08 Eh
 1-El. energy change                    ....  1.000e-05 Eh
 Orbital Gradient       TolG            ....  1.000e-05
 Orbital Rotation angle TolX            ....  1.000e-05
 DIIS Error             TolErr          ....  5.000e-07


Diagonalization of the overlap matrix:
Smallest eigenvalue                        ... 1.657e-03
Time for diagonalization                   ...    0.003 sec
Threshold for overlap eigenvalues          ... 1.000e-08
Number of eigenvalues below threshold      ... 0
Time for construction of square roots      ...    0.003 sec
Total time needed                          ...    0.006 sec

-------------------
DFT GRID GENERATION
-------------------

General Integration Accuracy     IntAcc      ...  4.670
Radial Grid Type                 RadialGrid  ... Gauss-Chebyshev
Angular Grid (max. acc.)         AngularGrid ... Lebedev-302
Angular grid pruning method      GridPruning ... 3 (G Style)
Weight generation scheme         WeightScheme... Becke
Basis function cutoff            BFCut       ...    1.0000e-11
Integration weight cutoff        WCut        ...    1.0000e-14
Grids for H and He will be reduced by one unit

# of grid points (after initial pruning)     ...  65000 (   0.0 sec)
# of grid points (after weights+screening)   ...  59926 (   0.0 sec)
nearest neighbour list constructed           ...    0.0 sec
Grid point re-assignment to atoms done       ...    0.0 sec
Grid point division into batches done        ...    0.2 sec
Reduced shell lists constructed in    0.3 sec

Total number of grid points                  ...    59926
Total number of batches                      ...      943
Average number of points per batch           ...       63
Average number of grid points per atom       ...     3995
Average number of shells per batch           ...    43.68 (72.80%)
Average number of basis functions per batch  ...    84.13 (70.11%)
Average number of large shells per batch     ...    36.90 (84.47%)
Average number of large basis fcns per batch ...    70.45 (83.73%)
Maximum spatial batch extension              ...  16.37, 17.17, 15.73 au
Average spatial batch extension              ...   0.28,  0.28,  0.26 au

Time for grid setup =    0.328 sec

------------------------------
INITIAL GUESS: MODEL POTENTIAL
------------------------------
Loading Hartree-Fock densities                     ... done
Calculating cut-offs                               ... done
Setting up the integral package                    ... done
Initializing the effective Hamiltonian             ... done
Starting the Coulomb interaction                   ... done (   0.0 sec)
Reading the grid                                   ... done
Mapping shells                                     ... done
Starting the XC term evaluation                    ... done (   0.1 sec)
  promolecular density results
     # of electrons  =     41.995426478
     EX              =    -31.747812598
     EC              =     -1.359662134
     EX+EC           =    -33.107474732
Transforming the Hamiltonian                       ... done (   0.0 sec)
Diagonalizing the Hamiltonian                      ... done (   0.0 sec)
Back transforming the eigenvectors                 ... done (   0.0 sec)
Now organizing SCF variables                       ... done
                      ------------------
                      INITIAL GUESS DONE (   0.5 sec)
                      ------------------
----------------------
INITIAL GUESS ORBITALS
----------------------
                      0         1         2         3         4         5   
                 -18.95795 -10.08110 -10.07627 -10.07585 -10.07038  -1.05236
                   2.00000   2.00000   2.00000   2.00000   2.00000   2.00000
                  --------  --------  --------  --------  --------  --------
  0C   1s         0.000007  0.987681  0.004176  0.001182 -0.000324 -0.000777
  0C   2s        -0.000185  0.052612 -0.001756 -0.000832 -0.000035  0.000740
  0C   3s         0.000296 -0.045544  0.014646  0.002210  0.004572  0.012862
  0C   1pz       -0.000027 -0.000925 -0.001486 -0.000196  0.000154  0.001052
  0C   1px        0.000005 -0.000197 -0.000239  0.000040 -0.000021 -0.000022
  0C   1py       -0.000003  0.000518  0.000698 -0.000032  0.000007 -0.000162
  0C   2pz        0.000401 -0.003409  0.004871  0.000751  0.000948  0.004510
  0C   2px       -0.000531  0.000608  0.000562 -0.000885  0.000667  0.000620
  0C   2py        0.000845 -0.000407 -0.001903  0.001394 -0.001339 -0.001936
  0C   1dz2       0.000039 -0.000638 -0.001000 -0.000011  0.000007  0.000255
  0C   1dxz      -0.000035 -0.000190 -0.000359 -0.000120  0.000007  0.000012
  0C   1dyz       0.000057  0.000560  0.000999  0.000206 -0.000023 -0.000111
  0C   1dx2y2     0.000031  0.000091  0.000198  0.000004 -0.000023 -0.000022
  0C   1dxy       0.000040  0.000047  0.000144 -0.000039 -0.000036 -0.000018
  1C   1s        -0.000041 -0.003489  0.986310  0.053131  0.001463 -0.003982
  1C   2s         0.001101 -0.001549  0.052934  0.000950 -0.001359  0.007033
  1C   3s        -0.009095  0.006983 -0.058954  0.011280  0.005297 -0.005547
  1C   1pz        0.000138  0.001439  0.000338 -0.001013 -0.000409  0.002592
  1C   1px       -0.000009  0.000186  0.000579  0.000696 -0.000017 -0.001353
  1C   1py       -0.000011 -0.000597 -0.001069 -0.001016  0.000108  0.001856
  1C   2pz       -0.004844 -0.003344 -0.000479  0.003600  0.006885  0.008690
  1C   2px        0.001566  0.000322  0.002532 -0.001879 -0.000089  0.001723
  1C   2py       -0.001797  0.000078 -0.004306  0.002577 -0.001156 -0.004644
  1C   1dz2      -0.000115 -0.001107 -0.001004 -0.000266  0.000198  0.000306
  1C   1dxz       0.000126 -0.000269  0.000277  0.000732 -0.000053 -0.000279
  1C   1dyz      -0.000178  0.000878 -0.000051 -0.001048  0.000028  0.000362
  1C   1dx2y2    -0.000009  0.000186  0.000235  0.000247  0.000012 -0.000019
  1C   1dxy       0.000025  0.000151  0.000439  0.000666  0.000010 -0.000119
  2H   1s         0.000104 -0.003545 -0.000195  0.000184 -0.000376 -0.000264
  2H   2s         0.000150  0.007003 -0.000916  0.000543 -0.000432 -0.000634
  2H   1pz       -0.000110 -0.001804  0.000154  0.000035  0.000049 -0.000023
  2H   1px       -0.000010  0.001272  0.000060  0.000028  0.000016 -0.000031
  2H   1py        0.000039 -0.001866 -0.000133 -0.000056 -0.000036  0.000058
  3H   1s        -0.000096 -0.002839 -0.000105 -0.000279  0.000023  0.000040
  3H   2s        -0.000211  0.008579 -0.000142 -0.001125 -0.000403 -0.001029
  3H   1pz        0.000010  0.000201  0.000429 -0.000034 -0.000006 -0.000028
  3H   1px        0.000094  0.001136  0.000065  0.000085 -0.000072 -0.000047
  3H   1py       -0.000047  0.002485 -0.000226 -0.000039  0.000065 -0.000029
  4H   1s        -0.000096 -0.002839 -0.000105 -0.000279  0.000023  0.000039
  4H   2s        -0.000211  0.008579 -0.000142 -0.001125 -0.000403 -0.001029
  4H   1pz       -0.000001 -0.000222  0.000432 -0.000044  0.000000 -0.000017
  4H   1px       -0.000007 -0.002718  0.000091 -0.000003 -0.000020  0.000052
  4H   1py       -0.000105  0.000265 -0.000211 -0.000089  0.000095  0.000028
  5C   1s        -0.000012 -0.000881 -0.052397  0.986355  0.003170 -0.022217
  5C   2s        -0.000779 -0.001075 -0.004824  0.052605 -0.000720  0.044707
  5C   3s         0.017106  0.002899  0.019234 -0.055453  0.001262  0.009579
  5C   1pz        0.000393  0.000339  0.001030 -0.000181 -0.001470  0.022728
  5C   1px       -0.000087  0.000014 -0.000629 -0.000663 -0.000170 -0.000620
  5C   1py        0.000077 -0.000089  0.000896  0.001186  0.000574 -0.003246
  5C   2pz        0.002327 -0.005285 -0.003629 -0.000289  0.002214  0.001769
  5C   2px        0.002546 -0.000077  0.002410 -0.001943 -0.000768  0.003172
  5C   2py       -0.004865  0.001139 -0.003492  0.003428  0.000911 -0.005854
  5C   1dz2       0.000418  0.000165 -0.000125 -0.000986 -0.001210  0.003157
  5C   1dxz      -0.000045 -0.000033  0.000681  0.000342 -0.000260 -0.000138
  5C   1dyz      -0.000059  0.000001 -0.001019 -0.000158  0.000893 -0.000889
  5C   1dx2y2     0.000004 -0.000002  0.000217  0.000258  0.000180 -0.000263
  5C   1dxy       0.000011 -0.000006  0.000605  0.000504  0.000139 -0.000321
  6H   1s         0.000482 -0.000028 -0.002640 -0.000262 -0.000678  0.001060
  6H   2s         0.000233  0.000279  0.009372  0.000380 -0.001371 -0.001420
  6H   1pz        0.000176 -0.000448  0.000539  0.000367 -0.000314 -0.000294
  6H   1px        0.000022 -0.000095  0.002743 -0.000098  0.000067 -0.000117
  6H   1py       -0.000036  0.000301  0.000014  0.000328  0.000148  0.000251
  7H   1s         0.000482 -0.000029 -0.002640 -0.000262 -0.000678  0.001060
  7H   2s         0.000233  0.000279  0.009372  0.000381 -0.001371 -0.001421
  7H   1pz        0.000172 -0.000453  0.000080  0.000346 -0.000333 -0.000294
  7H   1px       -0.000009 -0.000139 -0.001440 -0.000293 -0.000109 -0.000110
  7H   1py       -0.000053  0.000276 -0.002395  0.000216  0.000047  0.000255
  8C   1s        -0.000090  0.000308 -0.001221 -0.002528  0.987770 -0.100609
  8C   2s         0.000806 -0.000062 -0.000759 -0.001917  0.051129  0.201474
  8C   3s        -0.025032  0.004670 -0.000653  0.013210 -0.033218  0.008684
  8C   1pz       -0.000539 -0.000098 -0.000012  0.001466  0.000301  0.079248
  8C   1px        0.000102  0.000000 -0.000033  0.000220  0.000581 -0.048508
  8C   1py       -0.000075  0.000018  0.000059 -0.000661 -0.001066  0.069163
  8C   2pz       -0.001033 -0.000614 -0.000335 -0.004691  0.005905  0.015951
  8C   2px        0.004040 -0.000567  0.001168 -0.000246 -0.002798 -0.008195
  8C   2py       -0.006818  0.001101 -0.001965  0.001320  0.003735  0.011226
  8C   1dz2      -0.000048  0.000033  0.000076 -0.001006 -0.000611  0.008022
  8C   1dxz      -0.000312 -0.000013 -0.000048 -0.000354 -0.000068 -0.009885
  8C   1dyz       0.000475  0.000008  0.000053  0.000991  0.000390  0.012936
  8C   1dx2y2    -0.000170 -0.000010 -0.000010  0.000195  0.000210 -0.002770
  8C   1dxy      -0.000400 -0.000020 -0.000030  0.000141  0.000291 -0.007824
  9H   1s         0.000009 -0.000458 -0.000012 -0.002658  0.000030  0.009459
  9H   2s        -0.000070 -0.001129 -0.000594  0.009295  0.000684  0.002275
  9H   1pz        0.000318  0.000245 -0.000297 -0.000532  0.000426  0.001537
  9H   1px        0.000128 -0.000044  0.000410 -0.002711  0.000061  0.001562
  9H   1py        0.000192 -0.000101 -0.000318 -0.000029 -0.000297 -0.000008
 10H   1s         0.000009 -0.000458 -0.000012 -0.002658  0.000030  0.009460
 10H   2s        -0.000069 -0.001129 -0.000594  0.009296  0.000685  0.002279
 10H   1pz        0.000274  0.000257 -0.000328 -0.000077  0.000437  0.001255
 10H   1px       -0.000279  0.000068  0.000121  0.001435  0.000155 -0.001006
 10H   1py       -0.000042 -0.000036 -0.000484  0.002359 -0.000242 -0.001487
 11H   1s         0.001130 -0.000055 -0.000201 -0.000056 -0.003202  0.029697
 11H   2s         0.002387 -0.000533 -0.000964 -0.000168  0.007934  0.006477
 11H   1pz        0.000241 -0.000029  0.000110 -0.000461  0.000059 -0.000993
 11H   1px       -0.000319  0.000040 -0.000011 -0.000108  0.002755 -0.006237
 11H   1py        0.000515 -0.000074  0.000095  0.000267 -0.000388  0.000531
 12H   1s         0.001131 -0.000056 -0.000201 -0.000056 -0.003202  0.029696
 12H   2s         0.002386 -0.000533 -0.000963 -0.000168  0.007935  0.006492
 12H   1pz        0.000240 -0.000028  0.000101 -0.000460 -0.000355 -0.000010
 12H   1px       -0.000325  0.000048 -0.000094 -0.000101 -0.001022  0.002752
 12H   1py        0.000511 -0.000069  0.000047  0.000271 -0.002564  0.005708
 13O   1s         0.988607  0.000009 -0.000028 -0.000017 -0.000084  0.275656
 13O   2s        -0.042462  0.000188 -0.000317 -0.000158  0.000890  0.570245
 13O   3s         0.029103 -0.001282  0.001480 -0.000106 -0.005117  0.281727
 13O   1pz       -0.000193  0.000025  0.000048  0.000089  0.000466 -0.001485
 13O   1px       -0.000913  0.000017 -0.000020 -0.000022 -0.000234  0.052607
 13O   1py        0.001619 -0.000035  0.000026  0.000021  0.000318 -0.090904
 13O   2pz       -0.005492 -0.000104 -0.000474 -0.000663  0.001969 -0.020224
 13O   2px        0.002939 -0.000234  0.000215 -0.000035 -0.002483  0.011873
 13O   2py       -0.004059  0.000427 -0.000284  0.000187  0.003935 -0.016769
 13O   1dz2      -0.000624 -0.000017  0.000012  0.000115 -0.000392  0.002683
 13O   1dxz      -0.000292 -0.000007 -0.000004  0.000012  0.000702 -0.002416
 13O   1dyz       0.000720  0.000020  0.000003 -0.000060 -0.000899  0.002338
 13O   1dx2y2     0.000086  0.000009  0.000002 -0.000006  0.000405 -0.002279
 13O   1dxy       0.000005  0.000012  0.000003  0.000000  0.000913 -0.004550
 14H   1s         0.001061  0.000296 -0.000107  0.000371  0.001572  0.150776
 14H   2s        -0.000934 -0.000007  0.000325 -0.000150  0.000381 -0.004002
 14H   1pz       -0.002179 -0.000098  0.000008 -0.000001 -0.000703 -0.026594
 14H   1px       -0.000662 -0.000017 -0.000005 -0.000014  0.000321 -0.002593
 14H   1py        0.001558  0.000047  0.000008  0.000024 -0.000425  0.009505
                      6         7         8         9        10        11   
                  -0.85464  -0.77712  -0.68267  -0.64185  -0.57400  -0.55346
                   2.00000   2.00000   2.00000   2.00000   2.00000   2.00000
                  --------  --------  --------  --------  --------  --------
  0C   1s        -0.122586 -0.171707 -0.142521 -0.057299  0.020328  0.000009
  0C   2s         0.248619  0.368119  0.313056  0.128138 -0.044517 -0.000012
  0C   3s         0.048424  0.015816  0.043290 -0.045679 -0.047431 -0.000084
  0C   1pz        0.062754  0.023859 -0.095230 -0.065023  0.053964  0.015228
  0C   1px        0.005119  0.008640 -0.006271 -0.037336  0.032424  0.138671
  0C   1py       -0.020834 -0.019544  0.029020  0.077195 -0.066700  0.079764
  0C   2pz        0.019336 -0.020546 -0.037104 -0.042617  0.005798  0.005236
  0C   2px       -0.000211  0.004711 -0.003676 -0.020130  0.009183  0.047996
  0C   2py       -0.003333 -0.004264  0.013453  0.043067 -0.017078  0.027606
  0C   1dz2       0.006043  0.001705 -0.004326 -0.002317  0.000989  0.001027
  0C   1dxz       0.001132  0.001303 -0.000707 -0.002752  0.001468  0.005320
  0C   1dyz      -0.004126 -0.003013  0.002758  0.005983 -0.003249  0.003159
  0C   1dx2y2    -0.000732 -0.000748  0.000464  0.001675 -0.001246 -0.001069
  0C   1dxy      -0.000477 -0.000672  0.000279  0.001646 -0.001475 -0.000069
  1C   1s        -0.179971 -0.064613  0.119819  0.120325 -0.043437 -0.000022
  1C   2s         0.369953  0.135537 -0.268954 -0.277518  0.100131  0.000041
  1C   3s         0.077077  0.073289 -0.022273  0.063470  0.084347  0.000169
  1C   1pz        0.001696 -0.128344 -0.102151  0.007475 -0.073984  0.024238
  1C   1px       -0.027911  0.014396  0.006492 -0.075920  0.045314  0.221844
  1C   1py        0.048144 -0.000554  0.008176  0.130372 -0.064846  0.127666
  1C   2pz       -0.006110 -0.063288 -0.037281 -0.010063 -0.039560  0.010086
  1C   2px       -0.010141 -0.000275  0.002824 -0.042072  0.004607  0.092184
  1C   2py        0.018791  0.012512  0.002161  0.074939 -0.000576  0.053118
  1C   1dz2       0.006419  0.004025  0.006174  0.000245 -0.001965  0.000390
  1C   1dxz      -0.002318  0.003881  0.002720 -0.002138  0.001052  0.001954
  1C   1dyz       0.001144 -0.007962 -0.006486  0.002523 -0.000851  0.001316
  1C   1dx2y2    -0.001771 -0.000420  0.000188 -0.002626  0.000756 -0.001620
  1C   1dxy      -0.003458  0.000951  0.001647 -0.005140  0.001538  0.000682
  2H   1s         0.057546  0.106724  0.128057  0.039643 -0.007886  0.000025
  2H   2s         0.010031  0.007296  0.015964  0.020759 -0.001316  0.000004
  2H   1pz        0.007030  0.009829  0.007455  0.001433  0.001322  0.000377
  2H   1px       -0.003654 -0.005591 -0.006312 -0.002622  0.001265  0.003407
  2H   1py        0.005006  0.007835  0.009539  0.004278 -0.002452  0.001961
  3H   1s         0.060204  0.102794  0.119070  0.078834 -0.048464  0.086516
  3H   2s         0.003766  0.016269  0.018593  0.011216 -0.005025  0.012524
  3H   1pz        0.001168  0.001168 -0.001644 -0.000663  0.000918  0.002244
  3H   1px       -0.003651 -0.005926 -0.006175 -0.004051  0.002869  0.000042
  3H   1py       -0.008278 -0.012069 -0.011762 -0.005753  0.002856 -0.005400
  4H   1s         0.060204  0.102797  0.119072  0.078840 -0.048396 -0.086605
  4H   2s         0.003762  0.016270  0.018594  0.011224 -0.005014 -0.012520
  4H   1pz        0.002523  0.003250  0.000499  0.000551  0.000167 -0.002706
  4H   1px        0.008689  0.013050  0.013367  0.007020 -0.003996 -0.004249
  4H   1py       -0.001171 -0.001140 -0.000506  0.000623 -0.001103  0.002979
  5C   1s        -0.158073  0.132966  0.055900 -0.138071  0.025938  0.000015
  5C   2s         0.324653 -0.281913 -0.125998  0.318568 -0.055662 -0.000017
  5C   3s         0.060793 -0.090624 -0.010281 -0.072961 -0.071681 -0.000188
  5C   1pz       -0.028553 -0.088088  0.142036 -0.020950  0.038216  0.026831
  5C   1px        0.029193  0.000252 -0.023682 -0.077333 -0.040814  0.243935
  5C   1py       -0.045243  0.016326  0.014080  0.138238  0.063196  0.140598
  5C   2pz       -0.011630 -0.048789  0.045807 -0.027785  0.027613  0.011173
  5C   2px        0.009921 -0.005996 -0.009820 -0.043202 -0.029331  0.101458
  5C   2py       -0.015036  0.019711  0.008355  0.080263  0.045537  0.058539
  5C   1dz2       0.004746 -0.002830  0.005449 -0.001889  0.003717  0.000011
  5C   1dxz      -0.002850 -0.002603  0.004720  0.000930 -0.003701  0.000122
  5C   1dyz       0.002643  0.005671 -0.009524  0.000078  0.005611 -0.000107
  5C   1dx2y2    -0.001593  0.001063  0.000392  0.002751  0.001674  0.001431
  5C   1dxy      -0.003449  0.000657  0.002685  0.004816  0.001620 -0.000832
  6H   1s         0.087791  0.035525 -0.094278 -0.144826  0.060451  0.135414
  6H   2s         0.005834  0.003299 -0.014951 -0.021100  0.007928  0.009100
  6H   1pz       -0.001957 -0.002659 -0.000263  0.002990 -0.002110 -0.000947
  6H   1px       -0.012776 -0.004665  0.010200  0.012678 -0.005192 -0.007189
  6H   1py        0.001314 -0.000138  0.000054  0.001051 -0.001591  0.004838
  7H   1s         0.087790  0.035522 -0.094281 -0.144817  0.060583 -0.135315
  7H   2s         0.005829  0.003295 -0.014962 -0.021098  0.007943 -0.009086
  7H   1pz        0.000039 -0.001836 -0.001928  0.000769 -0.001074  0.000207
  7H   1px        0.005432  0.002831 -0.004984 -0.007580  0.004244  0.000491
  7H   1py        0.011800  0.004178 -0.008693 -0.010617  0.003853 -0.008695
  8C   1s        -0.066210  0.132536 -0.148465  0.097245  0.033538  0.000025
  8C   2s         0.130811 -0.284289  0.328737 -0.218739 -0.074534 -0.000062
  8C   3s         0.040595 -0.004484  0.044345  0.053483 -0.025270  0.000045
  8C   1pz       -0.073536  0.091397  0.020848 -0.069260  0.074727  0.022357
  8C   1px        0.005286 -0.003622  0.001999 -0.049688 -0.151444  0.203689
  8C   1py        0.004809 -0.011084 -0.007483  0.099446  0.248114  0.117639
  8C   2pz       -0.032406  0.005456  0.006338 -0.047670 -0.018766  0.007943
  8C   2px        0.004200 -0.000198  0.002829 -0.029268 -0.040797  0.072965
  8C   2py       -0.001111 -0.000700 -0.006133  0.059881  0.074131  0.042130
  8C   1dz2       0.004036 -0.001486 -0.004953  0.002164 -0.008955 -0.000573
  8C   1dxz       0.001828 -0.002389 -0.000201  0.003165 -0.006072 -0.003012
  8C   1dyz      -0.004554  0.004962  0.001464 -0.006773  0.010294 -0.001614
  8C   1dx2y2    -0.000493  0.001276 -0.001263 -0.002076 -0.007401 -0.000728
  8C   1dxy       0.000069  0.001162 -0.002441 -0.002168 -0.015031  0.000784
  9H   1s         0.077131 -0.074943 -0.041285  0.162873  0.002010 -0.148607
  9H   2s         0.004776 -0.008367 -0.008760  0.024265  0.000230 -0.010099
  9H   1pz        0.001510 -0.002839  0.002165  0.002878  0.001590 -0.001909
  9H   1px        0.011162 -0.009651 -0.005046  0.014388 -0.000634 -0.007816
  9H   1py       -0.001257  0.000161  0.000133  0.001131  0.000313  0.005280
 10H   1s         0.077137 -0.074944 -0.041289  0.162871  0.001812  0.148632
 10H   2s         0.004775 -0.008372 -0.008770  0.024270  0.000211  0.010108
 10H   1pz       -0.000220 -0.001229  0.002936  0.000373  0.001633  0.001101
 10H   1px       -0.004619  0.005038  0.001997 -0.008464 -0.000219  0.000398
 10H   1py       -0.010347  0.008622  0.004190 -0.012033  0.000566 -0.009552
 11H   1s         0.033109 -0.078979  0.112045 -0.118036 -0.128309  0.125770
 11H   2s        -0.000358 -0.010687  0.017609 -0.019731 -0.015750  0.017580
 11H   1pz       -0.001753  0.003984 -0.002185  0.001255  0.003688 -0.003109
 11H   1px       -0.004623  0.009313 -0.012041  0.010774  0.009095 -0.006309
 11H   1py        0.000666 -0.000482 -0.000104  0.000766  0.003652  0.004279
 12H   1s         0.033107 -0.078981  0.112067 -0.118036 -0.128000 -0.126009
 12H   2s        -0.000353 -0.010687  0.017607 -0.019721 -0.015729 -0.017619
 12H   1pz       -0.001029  0.002438 -0.000174 -0.000596  0.001796  0.002427
 12H   1px        0.001972 -0.004785  0.006326 -0.006123 -0.008174  0.000064
 12H   1py        0.004465 -0.008601  0.010477 -0.008966 -0.006274 -0.007876
 13O   1s        -0.039619  0.060223 -0.056220  0.033607  0.032058  0.000004
 13O   2s        -0.087469  0.133064 -0.124968  0.078576  0.072799  0.000012
 13O   3s        -0.037467  0.068529 -0.069302  0.020675  0.085520  0.000013
 13O   1pz       -0.040746  0.109636 -0.185841  0.041662 -0.449435  0.011580
 13O   1px        0.001704 -0.016680  0.051700 -0.047461  0.017119  0.109283
 13O   1py        0.004745  0.008220 -0.054619  0.074532  0.054889  0.062970
 13O   2pz       -0.018321  0.042124 -0.071161  0.020921 -0.194487  0.006534
 13O   2px        0.004462 -0.011984  0.029906 -0.029749  0.009561  0.061272
 13O   2py       -0.004277  0.012822 -0.038448  0.047688  0.020008  0.035301
 13O   1dz2       0.000497 -0.000418 -0.002137  0.003867  0.001338 -0.000530
 13O   1dxz      -0.001132  0.002535 -0.003617  0.001181 -0.005674 -0.002492
 13O   1dyz       0.001785 -0.004099  0.006394 -0.002638  0.009705 -0.002088
 13O   1dx2y2     0.000146  0.000015 -0.000931  0.001581  0.001725  0.005395
 13O   1dxy      -0.000146  0.000934 -0.002991  0.003271  0.000876 -0.002771
 14H   1s        -0.039333  0.082656 -0.115305  0.026841 -0.251105 -0.000153
 14H   2s         0.004587  0.000901 -0.010140  0.002874 -0.039591 -0.000031
 14H   1pz        0.005077 -0.009991  0.011110 -0.001400  0.023656  0.000409
 14H   1px        0.001062 -0.002486  0.004795 -0.002784  0.005260  0.003668
 14H   1py       -0.002797  0.006190 -0.010404  0.005090 -0.013582  0.002100
                     12        13        14        15        16        17   
                  -0.51678  -0.50795  -0.48841  -0.45434  -0.44856  -0.42588
                   2.00000   2.00000   2.00000   2.00000   2.00000   2.00000
                  --------  --------  --------  --------  --------  --------
  0C   1s         0.014512  0.000011 -0.007427  0.013839 -0.000028  0.005230
  0C   2s        -0.029814 -0.000030  0.018955 -0.041038  0.000083 -0.016272
  0C   3s        -0.030765  0.000007  0.005673 -0.001945  0.000041  0.018845
  0C   1pz        0.238819 -0.026463 -0.007573 -0.337990  0.030261  0.088994
  0C   1px       -0.090749 -0.242051 -0.163198 -0.022316  0.270638 -0.156555
  0C   1py        0.112243 -0.139550  0.284394  0.103962  0.155907  0.254654
  0C   2pz        0.078149 -0.010569 -0.014092 -0.123650  0.012469  0.046472
  0C   2px       -0.035754 -0.096757 -0.054251 -0.008783  0.111685 -0.057878
  0C   2py        0.047229 -0.055763  0.096693  0.039171  0.064323  0.091560
  0C   1dz2       0.005066 -0.000768 -0.004360 -0.006572 -0.000889 -0.012624
  0C   1dxz       0.001308 -0.003807  0.001596 -0.002805 -0.005217  0.009904
  0C   1dyz      -0.003084 -0.002683  0.000145  0.007137 -0.001744 -0.012242
  0C   1dx2y2     0.001991  0.004051  0.003781  0.000850 -0.009836  0.000665
  0C   1dxy       0.004063 -0.001839  0.006635  0.000059  0.006307  0.004080
  1C   1s        -0.022042 -0.000015 -0.011196  0.000111 -0.000013  0.003710
  1C   2s         0.051183  0.000038  0.025266 -0.001546  0.000051 -0.017162
  1C   3s         0.035078 -0.000028  0.054897 -0.040804 -0.000080 -0.008745
  1C   1pz       -0.068022 -0.021620  0.221763  0.318433 -0.010533 -0.110978
  1C   1px       -0.109173 -0.195670 -0.069929  0.044541 -0.091907  0.171328
  1C   1py        0.202688 -0.112758  0.079034 -0.138172 -0.052733 -0.276079
  1C   2pz       -0.011974 -0.010046  0.103670  0.094724 -0.004521 -0.021485
  1C   2px       -0.049414 -0.090864 -0.039398  0.027742 -0.039864  0.062599
  1C   2py        0.088183 -0.052370  0.048588 -0.066297 -0.022895 -0.104534
  1C   1dz2      -0.005944  0.001368 -0.001399 -0.009576 -0.002499 -0.014866
  1C   1dxz       0.002433  0.007000  0.001483 -0.002883 -0.013133  0.009684
  1C   1dyz      -0.003728  0.004364 -0.002403  0.008401 -0.007505 -0.011160
  1C   1dx2y2    -0.004229 -0.003036 -0.001047  0.001374  0.000075  0.000642
  1C   1dxy      -0.006448  0.000848 -0.001264  0.000717  0.001634  0.003842
  2H   1s        -0.202544  0.000005 -0.168649  0.116693 -0.000314 -0.254934
  2H   2s        -0.029347 -0.000004 -0.034379  0.030741 -0.000085 -0.075909
  2H   1pz       -0.007015 -0.000683 -0.009722 -0.001853  0.000877 -0.008741
  2H   1px        0.005143 -0.006242  0.001358 -0.004731  0.008034  0.003621
  2H   1py       -0.007588 -0.003598 -0.000516  0.008591  0.004607 -0.004627
  3H   1s         0.020069 -0.161432  0.146093  0.070074  0.207543  0.136422
  3H   2s        -0.001374 -0.021773  0.027059  0.020664  0.040321  0.042697
  3H   1pz        0.006500 -0.002047  0.001150 -0.008012  0.000277  0.002935
  3H   1px       -0.002792 -0.000279 -0.010108 -0.003176  0.000726 -0.010001
  3H   1py        0.002026  0.009248 -0.003868 -0.003384 -0.010318 -0.001014
  4H   1s         0.019981  0.161301  0.146330  0.069522 -0.207593  0.136579
  4H   2s        -0.001389  0.021738  0.027092  0.020572 -0.040339  0.042748
  4H   1pz        0.006649  0.002836  0.003146 -0.007036 -0.001096  0.004610
  4H   1px       -0.001438  0.007448  0.008075  0.005737 -0.008454  0.005280
  4H   1py        0.002811 -0.005119  0.006592  0.001779  0.005874  0.007781
  5C   1s         0.019915  0.000006  0.027225 -0.024863  0.000050  0.023163
  5C   2s        -0.045228 -0.000015 -0.059833  0.054347 -0.000128 -0.063324
  5C   3s        -0.045084  0.000026 -0.122123  0.127284 -0.000061 -0.043435
  5C   1pz       -0.243191  0.005746 -0.023894 -0.105426 -0.027428  0.202762
  5C   1px       -0.014632  0.052100  0.146507  0.022164 -0.252937 -0.147903
  5C   1py        0.071766  0.030210 -0.249523 -0.019232 -0.145742  0.218205
  5C   2pz       -0.099171  0.002818 -0.017562 -0.036270 -0.012270  0.060254
  5C   2px       -0.010939  0.025794  0.035316  0.027013 -0.112678 -0.061510
  5C   2py        0.037881  0.014910 -0.057831 -0.040393 -0.064910  0.095350
  5C   1dz2       0.003529  0.002108  0.005251 -0.008761  0.001427 -0.006648
  5C   1dxz      -0.002978  0.010885 -0.003428 -0.003030  0.007762  0.004967
  5C   1dyz       0.004682  0.006522  0.002923  0.007533  0.003483 -0.005827
  5C   1dx2y2     0.002273 -0.002579 -0.003033 -0.001055  0.007302  0.000941
  5C   1dxy       0.002869  0.000096 -0.006026 -0.003366 -0.005169  0.003046
  6H   1s        -0.076762 -0.126295 -0.016283  0.093499 -0.068022  0.154943
  6H   2s        -0.009488 -0.006997 -0.004301  0.025284 -0.012783  0.048874
  6H   1pz       -0.000416  0.003449  0.005367  0.006091 -0.001259 -0.004309
  6H   1px        0.004641  0.005725 -0.000048 -0.006584  0.003208 -0.007529
  6H   1py        0.002850 -0.003832  0.001092 -0.002818 -0.002059 -0.006988
  7H   1s        -0.076863  0.126342 -0.016194  0.093631  0.067808  0.154759
  7H   2s        -0.009473  0.007006 -0.004310  0.025300  0.012740  0.048805
  7H   1pz       -0.001432 -0.002819  0.005172  0.007326  0.001545 -0.002346
  7H   1px       -0.004641  0.000078 -0.001789  0.004635 -0.000416  0.010371
  7H   1py       -0.002502  0.007174  0.000093  0.003652  0.003666  0.003311
  8C   1s        -0.013634 -0.000007  0.006659  0.031766 -0.000054 -0.007293
  8C   2s         0.031782  0.000012 -0.015512 -0.072622  0.000131  0.013810
  8C   3s         0.034925  0.000018  0.035869 -0.097465  0.000094  0.033508
  8C   1pz        0.276975  0.028165 -0.107210  0.167933  0.016080 -0.033712
  8C   1px       -0.011657  0.255765 -0.003441 -0.073649  0.149646  0.002844
  8C   1py       -0.032569  0.147511  0.026669  0.096275  0.086232  0.001264
  8C   2pz        0.098614  0.011632 -0.074451  0.087797  0.005933 -0.018800
  8C   2px       -0.006043  0.105818 -0.001907 -0.012410  0.055465 -0.002412
  8C   2py       -0.008306  0.061010  0.017586  0.004990  0.032006  0.007688
  8C   1dz2       0.000647  0.000915 -0.001713  0.013470  0.002597 -0.003563
  8C   1dxz      -0.006719  0.004818 -0.002928 -0.009007  0.013810  0.006059
  8C   1dyz       0.011237  0.002674  0.005068  0.010835  0.007541 -0.009223
  8C   1dx2y2     0.000535  0.000587 -0.001009  0.000165  0.002367 -0.000624
  8C   1dxy      -0.001556 -0.000959 -0.002855 -0.002345 -0.003118  0.001017
  9H   1s         0.026948 -0.032609 -0.148976  0.023397  0.189283  0.093352
  9H   2s         0.000364  0.000453 -0.022756 -0.000638  0.028120  0.030073
  9H   1pz       -0.004551 -0.003494 -0.002270 -0.002062  0.000958  0.005792
  9H   1px        0.001869 -0.001134 -0.009759  0.002326  0.007673  0.003171
  9H   1py        0.000593  0.000823 -0.005589  0.000581 -0.005208  0.005113
 10H   1s         0.026997  0.032737 -0.148809  0.022883 -0.189492  0.093353
 10H   2s         0.000360 -0.000439 -0.022748 -0.000693 -0.028170  0.030057
 10H   1pz       -0.004832  0.003327 -0.000108 -0.002460 -0.000162  0.004689
 10H   1px       -0.000677 -0.000428  0.009927 -0.001298 -0.000552 -0.006876
 10H   1py       -0.000877 -0.001720  0.005741 -0.001481  0.009314 -0.000674
 11H   1s         0.041161  0.167366 -0.026824 -0.077463  0.114351  0.012689
 11H   2s         0.006832  0.022067 -0.010722 -0.017976  0.032297  0.007388
 11H   1pz        0.004093 -0.001240 -0.001781  0.003507  0.001152 -0.000421
 11H   1px       -0.004043 -0.007942  0.002149  0.004654 -0.004882 -0.000301
 11H   1py       -0.001148  0.005303  0.000468  0.002654  0.003414 -0.000473
 12H   1s         0.041243 -0.167471 -0.027014 -0.077680 -0.114319  0.012834
 12H   2s         0.006837 -0.022088 -0.010748 -0.018048 -0.032290  0.007421
 12H   1pz        0.004785  0.000427 -0.002138  0.002431 -0.001615 -0.000321
 12H   1px        0.002291  0.000457 -0.001160 -0.005118  0.000733  0.000621
 12H   1py        0.002505 -0.009611 -0.001448 -0.002987 -0.005801  0.000065
 13O   1s        -0.037264 -0.000064  0.047930 -0.035810  0.000012 -0.017979
 13O   2s        -0.076505 -0.000134  0.104361 -0.072720  0.000023 -0.041006
 13O   3s        -0.097991 -0.000165  0.126469 -0.097490  0.000026 -0.053970
 13O   1pz       -0.110165  0.020512 -0.115895 -0.042495  0.022229  0.091309
 13O   1px        0.141640  0.189341 -0.091803  0.179994  0.203530 -0.005958
 13O   1py       -0.225153  0.108787  0.181309 -0.303728  0.117680 -0.006917
 13O   2pz       -0.047108  0.011995 -0.049923 -0.026877  0.013930  0.043676
 13O   2px        0.073948  0.110661 -0.049140  0.101408  0.127611 -0.003875
 13O   2py       -0.119524  0.063602  0.094772 -0.170536  0.073767 -0.001539
 13O   1dz2      -0.007989 -0.000607  0.002641 -0.004819 -0.000230  0.001921
 13O   1dxz      -0.001079 -0.002708 -0.001428  0.000090 -0.000849  0.000861
 13O   1dyz       0.003110 -0.002573  0.002528  0.000098 -0.001391 -0.002104
 13O   1dx2y2    -0.003434  0.008225  0.002680 -0.003496  0.007227 -0.000130
 13O   1dxy      -0.006531 -0.004370  0.004075 -0.006065 -0.004019  0.000204
 14H   1s        -0.020039  0.000041 -0.103040  0.051641  0.000011  0.055397
 14H   2s        -0.019736 -0.000008 -0.013267 -0.004847  0.000020  0.017657
 14H   1pz       -0.004449  0.000715  0.011823 -0.010364  0.000828 -0.003592
 14H   1px        0.006315  0.006710 -0.001345  0.005294  0.007597 -0.001437
 14H   1py       -0.010121  0.003854  0.000116 -0.007215  0.004390  0.003165
                     18        19        20        21        22        23   
                  -0.40950  -0.40721  -0.35389  -0.02577  -0.02205   0.00489
                   2.00000   2.00000   2.00000   0.00000   0.00000   0.00000
                  --------  --------  --------  --------  --------  --------
  0C   1s        -0.000073 -0.019471  0.000013  0.019690  0.069991  0.000059
  0C   2s         0.000195  0.052811 -0.000033 -0.054634 -0.177425 -0.000105
  0C   3s         0.000100  0.034384 -0.000078 -0.053503 -0.834129 -0.001342
  0C   1pz       -0.018715  0.164501 -0.001599  0.075752  0.112067  0.018894
  0C   1px       -0.176159 -0.007262 -0.013742  0.021172  0.021987  0.172978
  0C   1py       -0.101587 -0.017426 -0.007923 -0.051117 -0.059547  0.099644
  0C   2pz       -0.004457  0.067882 -0.000498  0.265185  0.284410  0.034035
  0C   2px       -0.042861  0.001179 -0.003965  0.048539  0.074770  0.314147
  0C   2py       -0.024773 -0.014704 -0.002266 -0.134608 -0.183934  0.181017
  0C   1dz2       0.001911  0.001866  0.000100 -0.010032 -0.007618  0.001994
  0C   1dxz       0.010668  0.002316  0.000519  0.000451 -0.005231  0.011083
  0C   1dyz       0.004403 -0.004510  0.000287  0.002199  0.012734  0.004766
  0C   1dx2y2     0.013033  0.000095  0.000112 -0.000795  0.004055  0.012168
  0C   1dxy      -0.008826  0.001230 -0.000131 -0.001693  0.004412 -0.008384
  1C   1s        -0.000009 -0.003027 -0.000011  0.063523  0.084989 -0.000042
  1C   2s         0.000045  0.017601  0.000025 -0.158503 -0.228063  0.000064
  1C   3s        -0.000221 -0.077019  0.000149 -0.845998 -1.044530  0.000994
  1C   1pz        0.031525 -0.115312  0.001495 -0.078480 -0.001828  0.022401
  1C   1px        0.291094 -0.026315  0.012724  0.055493 -0.068275  0.204352
  1C   1py        0.168058  0.065303  0.007365 -0.081342  0.118735  0.117778
  1C   2pz        0.008594 -0.060508  0.003264 -0.014077 -0.044372  0.040983
  1C   2px        0.080294  0.001470  0.029479  0.132758 -0.181252  0.377474
  1C   2py        0.046350  0.008411  0.017045 -0.227906  0.322788  0.217875
  1C   1dz2       0.000520  0.011622  0.000222  0.005497 -0.008394 -0.000769
  1C   1dxz       0.003632  0.001092  0.001064 -0.002353  0.003774 -0.005159
  1C   1dyz      -0.000612 -0.005219  0.000911  0.001720 -0.001554 -0.000206
  1C   1dx2y2     0.021051  0.000946 -0.002380 -0.001178  0.005488 -0.021536
  1C   1dxy      -0.012517  0.002774  0.001224 -0.002528  0.010073  0.013009
  2H   1s        -0.000232 -0.075444  0.000058  0.000957  0.073410  0.000027
  2H   2s        -0.000100 -0.031446  0.000033  0.098444  0.446941  0.000180
  2H   1pz       -0.000706  0.000064 -0.000067  0.002395 -0.002540  0.000325
  2H   1px       -0.006446  0.002157 -0.000617  0.002722  0.004395  0.003002
  2H   1py       -0.003730 -0.003708 -0.000353 -0.005179 -0.007145  0.001729
  3H   1s        -0.166569 -0.006629 -0.010950  0.029255  0.044335 -0.089853
  3H   2s        -0.071226 -0.002560 -0.005738  0.213333  0.483370 -0.529574
  3H   1pz       -0.000594  0.003938  0.000179  0.004208  0.008870  0.000499
  3H   1px       -0.000574 -0.000146 -0.000061  0.000832  0.007179 -0.000397
  3H   1py        0.006954 -0.000135  0.000901  0.003505  0.006244 -0.008789
  4H   1s         0.166450 -0.007704  0.010933  0.029280  0.044339  0.089902
  4H   2s         0.071193 -0.003056  0.005729  0.213507  0.483323  0.530227
  4H   1pz        0.001171  0.003896 -0.000106  0.003671  0.006959 -0.001383
  4H   1px        0.005578 -0.000491  0.000771 -0.004100 -0.010304 -0.007654
  4H   1py       -0.004074 -0.000288 -0.000493  0.000668 -0.003828  0.004158
  5C   1s        -0.000080 -0.023048  0.000031 -0.001513  0.073087  0.000018
  5C   2s         0.000206  0.060669 -0.000068  0.000474 -0.199479 -0.000009
  5C   3s         0.000385  0.119451 -0.000175 -0.052770 -0.803444 -0.000642
  5C   1pz       -0.023693  0.284240  0.006436 -0.081564 -0.001420  0.023075
  5C   1px       -0.225018  0.070552  0.060785  0.034950  0.061287  0.209994
  5C   1py       -0.130481 -0.174342  0.035080 -0.045035 -0.106127  0.120915
  5C   2pz       -0.005933  0.098523 -0.004050 -0.436987 -0.050001  0.043009
  5C   2px       -0.057117  0.050645 -0.036349  0.094270  0.200675  0.392182
  5C   2py       -0.033419 -0.106198 -0.020822 -0.080257 -0.338864  0.225843
  5C   1dz2      -0.000464  0.015096 -0.001412 -0.013250 -0.001443  0.000664
  5C   1dxz      -0.001729 -0.000735 -0.007816  0.015597  0.003560  0.004597
  5C   1dyz      -0.003314 -0.003656 -0.003422 -0.023081 -0.003096 -0.000059
  5C   1dx2y2     0.018366 -0.000071 -0.008049 -0.003385  0.006449  0.021296
  5C   1dxy      -0.010305  0.000583  0.005607 -0.000586  0.011976 -0.012781
  6H   1s         0.263009 -0.052489 -0.000460 -0.008944  0.064927 -0.140597
  6H   2s         0.095751 -0.018527 -0.027421  0.153979  0.662963 -0.667588
  6H   1pz       -0.002242 -0.002270 -0.000844 -0.003750  0.003470 -0.004115
  6H   1px       -0.009151  0.002786  0.000108  0.003017  0.010624 -0.008638
  6H   1py        0.006677  0.002500 -0.000089 -0.002350  0.006514  0.004550
  7H   1s        -0.263481 -0.050631  0.000479 -0.008936  0.064905  0.140675
  7H   2s        -0.095905 -0.017777  0.027418  0.153959  0.662514  0.667499
  7H   1pz        0.001315 -0.002927  0.000845 -0.003951  0.001061  0.003059
  7H   1px        0.000862 -0.003139 -0.000160  0.001151 -0.011340 -0.000993
  7H   1py       -0.011444 -0.000830  0.000059 -0.003431 -0.006134 -0.010088
  8C   1s        -0.000059 -0.016331 -0.000005 -0.023857  0.045563 -0.000026
  8C   2s         0.000198  0.054941  0.000008  0.043025 -0.117212  0.000041
  8C   3s        -0.000156 -0.043358  0.000018  0.783034 -0.529337  0.000330
  8C   1pz        0.003900 -0.207200 -0.023594 -0.152769 -0.082541  0.018294
  8C   1px        0.042044 -0.122986 -0.216550  0.121869 -0.054658  0.166036
  8C   1py        0.025433  0.251906 -0.124872 -0.182234  0.110419  0.095808
  8C   2pz       -0.000848 -0.040885 -0.004340 -0.336370 -0.170821  0.033559
  8C   2px       -0.006334 -0.044914 -0.039416  0.190682 -0.146464  0.304984
  8C   2py       -0.003227  0.085636 -0.022786 -0.266296  0.286489  0.176092
  8C   1dz2       0.001933  0.024736  0.001976  0.015779 -0.006892 -0.001978
  8C   1dxz       0.009834 -0.003516  0.008973 -0.018590 -0.002277 -0.010886
  8C   1dyz       0.005148 -0.002001  0.008620  0.025811  0.007667 -0.004918
  8C   1dx2y2     0.003579  0.000483 -0.027826 -0.000573  0.004356 -0.010313
  8C   1dxy      -0.003305  0.000909  0.014797 -0.006942  0.006029  0.007313
  9H   1s         0.206811 -0.105867 -0.079608  0.056474  0.044925  0.138040
  9H   2s         0.080105 -0.050244 -0.077913  0.101968  0.560384  0.687868
  9H   1pz        0.001829  0.005337 -0.001564 -0.009390 -0.005003 -0.003622
  9H   1px        0.007036 -0.006061 -0.002857  0.000003 -0.009073 -0.008583
  9H   1py       -0.005181 -0.004014  0.002262  0.000873 -0.006971  0.004570
 10H   1s        -0.207655 -0.104090  0.079655  0.056391  0.044992 -0.138091
 10H   2s        -0.080472 -0.049497  0.077964  0.101550  0.560375 -0.687524
 10H   1pz       -0.001087  0.006615  0.001275 -0.009298 -0.002780  0.002600
 10H   1px       -0.000662  0.005536  0.000288  0.000781  0.011225 -0.000855
 10H   1py        0.008847  0.002583 -0.003741  0.001320  0.004722 -0.010010
 11H   1s         0.047657 -0.156494 -0.244046 -0.064069  0.039933 -0.076772
 11H   2s         0.038201 -0.050896 -0.100418 -0.441525  0.441890 -0.511279
 11H   1pz        0.000085 -0.003390  0.005018 -0.016621 -0.005262 -0.002169
 11H   1px       -0.001404  0.008285  0.006992 -0.003594  0.009129 -0.006856
 11H   1py        0.001146  0.007096 -0.003962 -0.007280  0.005086  0.003188
 12H   1s        -0.048823 -0.155622  0.244258 -0.063914  0.039890  0.076837
 12H   2s        -0.038565 -0.050429  0.100491 -0.440662  0.441545  0.511455
 12H   1pz       -0.000244 -0.005350 -0.004152 -0.015043 -0.007132  0.001334
 12H   1px        0.000240 -0.009579  0.000848  0.010703 -0.007960 -0.000989
 12H   1py       -0.001799 -0.003157  0.008475  0.000950 -0.004751 -0.007688
 13O   1s        -0.000178 -0.047907 -0.000007  0.104461 -0.012525 -0.000052
 13O   2s        -0.000358 -0.096897 -0.000023  0.235917 -0.028403 -0.000113
 13O   3s        -0.000608 -0.165117  0.000036  0.657912 -0.083698 -0.000410
 13O   1pz        0.011621  0.135003  0.054012  0.085278 -0.053734 -0.000783
 13O   1px        0.103103  0.149800  0.496568  0.092318  0.020737 -0.007939
 13O   1py        0.058058 -0.286151  0.286415 -0.176137 -0.025856 -0.004437
 13O   2pz        0.007621  0.066474  0.035938  0.126713 -0.048330 -0.003827
 13O   2px        0.068268  0.086046  0.330559  0.097822  0.021476 -0.036169
 13O   2py        0.038569 -0.162379  0.190647 -0.193525 -0.028189 -0.020659
 13O   1dz2       0.000030  0.004650  0.000735 -0.008264  0.002727 -0.000635
 13O   1dxz       0.000257  0.001199  0.004136  0.000876  0.001253 -0.003203
 13O   1dyz      -0.000284 -0.004154  0.001766  0.000755 -0.002266 -0.002130
 13O   1dx2y2     0.003283 -0.001779  0.004727 -0.001149  0.001895  0.002476
 13O   1dxy      -0.001923 -0.002252 -0.003221 -0.002030  0.003755 -0.001010
 14H   1s         0.000612  0.166160  0.000016 -0.209429  0.054552  0.000014
 14H   2s         0.000126  0.034683  0.000001 -0.791827  0.184465  0.000144
 14H   1pz        0.000380 -0.014873  0.001944 -0.012621  0.003451 -0.000266
 14H   1px        0.004023  0.000352  0.017864  0.000509  0.000674 -0.002469
 14H   1py        0.002324  0.002148  0.010311  0.001490 -0.001806 -0.001417
                     24        25        26        27        28        29   
                   0.01420   0.01977   0.04687   0.05585   0.05866   0.06978
                   0.00000   0.00000   0.00000   0.00000   0.00000   0.00000
                  --------  --------  --------  --------  --------  --------
  0C   1s         0.139878  0.039290  0.029856 -0.013247 -0.000059  0.000024
  0C   2s        -0.339749 -0.083034 -0.059896  0.003565 -0.000015 -0.000080
  0C   3s        -1.997524 -0.778528 -0.811982  0.500539  0.002807  0.000240
  0C   1pz       -0.011731 -0.047436 -0.261299 -0.063762 -0.033710  0.015768
  0C   1px       -0.054711  0.125382  0.076795  0.109057 -0.307349  0.143089
  0C   1py        0.097137 -0.208710 -0.084234 -0.174307 -0.177953  0.082210
  0C   2pz       -0.076568 -0.207239 -0.866892  0.047438 -0.079356  0.059615
  0C   2px       -0.148959  0.262830  0.222234  0.251455 -0.734753  0.539504
  0C   2py        0.273256 -0.416900 -0.222112 -0.439024 -0.425487  0.310290
  0C   1dz2       0.004511 -0.015826  0.002121 -0.022443 -0.001983 -0.003924
  0C   1dxz      -0.002416  0.012105  0.015264  0.012137 -0.011293 -0.019944
  0C   1dyz       0.001671 -0.014414 -0.024559 -0.012179 -0.002991 -0.012543
  0C   1dx2y2    -0.002438  0.001960  0.004576  0.002166 -0.027544  0.009388
  0C   1dxy      -0.004701  0.006892  0.013413  0.006624  0.017249 -0.002838
  1C   1s        -0.026534 -0.059954 -0.016347  0.095447  0.000407 -0.000026
  1C   2s         0.069092  0.122434  0.028488 -0.221978 -0.000906  0.000121
  1C   3s         0.282351  1.072205  0.253750 -1.517661 -0.006894 -0.000304
  1C   1pz       -0.123363  0.012823 -0.173766 -0.127194 -0.003460 -0.036647
  1C   1px       -0.011260  0.081774 -0.049092  0.066484 -0.028266 -0.334252
  1C   1py        0.042930 -0.144404  0.118112 -0.090535 -0.017054 -0.192748
  1C   2pz       -0.686693 -0.073785 -0.728660 -0.213943 -0.005992 -0.112249
  1C   2px        0.062873  0.086094 -0.212183  0.205871 -0.052575 -1.026918
  1C   2py        0.021265 -0.135410  0.506966 -0.315148 -0.033135 -0.592489
  1C   1dz2      -0.025520  0.021557 -0.011613  0.009901  0.004347  0.000716
  1C   1dxz      -0.005152 -0.009519 -0.007899 -0.012609  0.022763  0.004759
  1C   1dyz       0.015928  0.011214  0.020672  0.016933  0.012170  0.000159
  1C   1dx2y2    -0.002590  0.006060  0.009825 -0.002154  0.006842  0.020233
  1C   1dxy      -0.007582  0.007699  0.012749 -0.007555 -0.006892 -0.012223
  2H   1s         0.089138 -0.113948 -0.201909 -0.172938 -0.000545 -0.000053
  2H   2s         1.031260 -0.527468 -0.874492 -0.845678 -0.002568 -0.000118
  2H   1pz       -0.010989  0.007134  0.002373  0.016779 -0.001171  0.001516
  2H   1px        0.005900 -0.001680 -0.006134 -0.001957 -0.011313  0.013753
  2H   1py       -0.008153  0.001554  0.010176  0.000300 -0.006530  0.007917
  3H   1s         0.037870  0.104278  0.061813  0.082233  0.198024 -0.045940
  3H   2s         0.551800  0.707657  0.388528  0.314948  1.121337 -0.571258
  3H   1pz       -0.004111 -0.001647 -0.013016 -0.005215 -0.005556 -0.012314
  3H   1px        0.000533  0.008257  0.008903  0.007677 -0.000199  0.002133
  3H   1py        0.009092  0.006849 -0.001231  0.000582  0.016062 -0.008128
  4H   1s         0.037883  0.104263  0.061522  0.083800 -0.197334  0.046083
  4H   2s         0.551704  0.707616  0.386711  0.323765 -1.118863  0.572223
  4H   1pz       -0.004976 -0.003610 -0.014113 -0.006491  0.006905  0.011670
  4H   1px       -0.007378 -0.009630 -0.001141 -0.003502  0.012730 -0.007948
  4H   1py        0.004532 -0.003457 -0.007047 -0.005724 -0.008863  0.004788
  5C   1s        -0.045769  0.034249 -0.057697 -0.099232 -0.000402 -0.000065
  5C   2s         0.123528 -0.066421  0.128341  0.229032  0.000970  0.000178
  5C   3s         0.831136 -0.673414  0.809489  1.696668  0.006844  0.000881
  5C   1pz       -0.082109  0.040220  0.016312 -0.218152  0.010432  0.020080
  5C   1px       -0.024857  0.102713 -0.007677  0.028596  0.103787  0.183826
  5C   1py        0.058642 -0.186107  0.010002 -0.008805  0.059622  0.105946
  5C   2pz       -0.316250  0.243876  0.238054 -0.431284  0.029022  0.060699
  5C   2px       -0.018236  0.188126  0.151032  0.037192  0.284643  0.559001
  5C   2py        0.091598 -0.373459 -0.308104  0.015567  0.164279  0.322318
  5C   1dz2       0.030954 -0.019582  0.007220 -0.001701  0.002481  0.004416
  5C   1dxz      -0.003457  0.001983 -0.006665  0.012125  0.014051  0.022992
  5C   1dyz      -0.004071  0.003247  0.013106 -0.021081  0.005716  0.013312
  5C   1dx2y2     0.000441  0.000627  0.011367 -0.003162  0.017004 -0.001853
  5C   1dxy       0.001113  0.000749  0.016807 -0.000709 -0.011562 -0.001881
  6H   1s         0.041394 -0.096147  0.063278 -0.009606  0.073241  0.155897
  6H   2s         0.021710 -0.664893  0.327738  0.352604  0.164388  1.298114
  6H   1pz       -0.012685 -0.005075 -0.007171 -0.005311  0.006223  0.000386
  6H   1px        0.001258 -0.008861  0.004289  0.006926  0.000137  0.012613
  6H   1py       -0.000732  0.004479  0.009308 -0.006480 -0.000897 -0.006845
  7H   1s         0.041304 -0.096202  0.063043 -0.008745 -0.073533 -0.156166
  7H   2s         0.021341 -0.664860  0.327165  0.355324 -0.162489 -1.299362
  7H   1pz       -0.012593 -0.003957 -0.008618 -0.005700 -0.006207  0.001033
  7H   1px        0.002085  0.001317 -0.008904  0.003039  0.000364  0.000376
  7H   1py       -0.000252  0.010341  0.001724 -0.008744  0.001083  0.014322
  8C   1s        -0.109219 -0.019914  0.013992  0.029968  0.000146  0.000070
  8C   2s         0.305758  0.038482 -0.024003 -0.039272 -0.000236 -0.000181
  8C   3s         0.920946  0.245110 -0.658282 -0.541579 -0.002017 -0.000594
  8C   1pz        0.030951  0.102734  0.153764 -0.158562  0.024271  0.003924
  8C   1px       -0.025667  0.039164 -0.087225  0.062922  0.228778  0.036664
  8C   1py        0.038533 -0.087632  0.122926 -0.081733  0.131234  0.021279
  8C   2pz        0.141218  0.267058  0.519018 -0.276794  0.048753  0.009288
  8C   2px       -0.006171  0.053243 -0.268059  0.220783  0.460258  0.087282
  8C   2py       -0.016515 -0.143444  0.368354 -0.336321  0.262951  0.050639
  8C   1dz2      -0.003380  0.009805 -0.006042  0.007070 -0.002225 -0.002955
  8C   1dxz       0.010739 -0.000554  0.012542 -0.011572 -0.012776 -0.016088
  8C   1dyz      -0.016933 -0.001820 -0.016364  0.014900 -0.005153 -0.007700
  8C   1dx2y2    -0.000125  0.001117  0.007239 -0.006124 -0.015990 -0.011490
  8C   1dxy       0.003557  0.002162  0.016402 -0.014288  0.010696  0.008634
  9H   1s        -0.106743  0.091899 -0.018804 -0.043237  0.127773  0.038943
  9H   2s        -0.492264  0.657825 -0.262722 -0.660197  0.471012  0.661630
  9H   1pz       -0.006088 -0.001859  0.004941 -0.013142  0.000371 -0.013630
  9H   1px        0.006876 -0.008586  0.004136  0.011796 -0.003514 -0.004971
  9H   1py        0.002342 -0.001617 -0.009720 -0.002350  0.002919  0.001694
 10H   1s        -0.106653  0.092016 -0.018881 -0.042313 -0.128153 -0.039115
 10H   2s        -0.491873  0.658329 -0.262165 -0.657284 -0.476467 -0.662806
 10H   1pz       -0.007323 -0.000274  0.005097 -0.014621 -0.000794  0.012734
 10H   1px       -0.004373  0.005884  0.005506 -0.001606  0.000824 -0.003214
 10H   1py       -0.004131  0.006720 -0.008924 -0.010046 -0.004528 -0.006411
 11H   1s        -0.024764 -0.043056  0.090251 -0.041444 -0.117552 -0.090098
 11H   2s        -0.504208 -0.329311  0.436326  0.011461 -0.769498 -0.227046
 11H   1pz        0.008688  0.006123  0.006828 -0.005990 -0.008928 -0.010586
 11H   1px       -0.008686 -0.006343  0.005045  0.000386 -0.009329  0.001558
 11H   1py        0.004664  0.002009  0.008493 -0.009001  0.005269  0.000364
 12H   1s        -0.024843 -0.043119  0.090529 -0.042583  0.117086  0.090231
 12H   2s        -0.504669 -0.329601  0.438325  0.003775  0.769427  0.228382
 12H   1pz        0.009503  0.006851  0.005107 -0.005179  0.007702  0.010686
 12H   1px       -0.001169  0.000380 -0.010863  0.008519 -0.001414 -0.000662
 12H   1py        0.008998  0.005882 -0.000694 -0.004219 -0.011544  0.000138
 13O   1s        -0.038600 -0.022109  0.010535  0.013721  0.000027  0.000006
[...]
     43      -0.406830  -0.003640  -0.002285   0.142096  -0.023022  -0.303189
     44      -0.239655  -0.002439  -0.000477   0.089945  -0.015470  -0.187502
                 30         31         32         33         34         35    
      0       0.009697  -0.038595  -0.013698  -0.015623  -0.001183  -0.000216
      1      -0.016986  -0.022017   0.022884   0.024856   0.001662   0.000311
      2       0.000601  -0.004192   0.007395   0.012275   0.002047   0.000342
      3      -0.024948  -0.021158  -0.011254  -0.031048  -0.007088  -0.001291
      4       0.048144  -0.012016   0.014815   0.052501   0.012544   0.002346
      5      -0.025459  -0.002128   0.026315   0.007694  -0.001261  -0.000648
      6       0.047811   0.598611  -0.088567  -0.081596  -0.006785   0.001137
      7      -0.103543   0.346536   0.179936   0.170586   0.013984  -0.001800
      8       0.110133   0.064657  -0.181897  -0.160314  -0.011726  -0.000883
      9      -0.277986   0.183157   0.375762   0.368083   0.025902   0.000418
     10       0.119500  -0.141032  -0.164264  -0.159369  -0.011464   0.000737
     11      -0.038867  -0.448082   0.019167   0.019525   0.001659  -0.000888
     12       0.039426  -0.105541  -0.044323  -0.045846  -0.003077  -0.000701
     13       0.302604   0.180455  -0.409339  -0.398438  -0.028176   0.000101
     14      -0.003773   0.456384  -0.032618  -0.027048  -0.001537  -0.001014
     15       0.007109   0.001044   0.030249  -0.016700  -0.007357  -0.000749
     16      -0.015180   0.000237  -0.055163   0.033718   0.016492   0.001490
     17       0.014972   0.000122   0.013787  -0.024824  -0.019478  -0.001153
     18      -0.103540  -0.010817  -0.001035  -0.069285  -0.019257   0.029595
     19      -0.560649   0.028124  -0.032240  -0.372825  -0.107146  -0.002003
     20       0.078826  -0.046330  -0.063302  -0.021399  -0.003414   0.007725
     21       0.518374   0.012270   0.038383   0.356887   0.101812  -0.013933
     22      -0.202453  -0.028183  -0.009181  -0.127210  -0.037386  -0.027003
     23       0.146664   0.045600  -0.059532   0.025048   0.009881   0.002940
     24       0.003060   0.002555  -0.003273   0.007218  -0.040657   0.030368
     25       0.000605   0.001526   0.011449  -0.015214   0.066371  -0.055562
     26      -0.031082   0.000148  -0.030457   0.014004   0.022435   0.016766
     27       0.038365   0.003684   0.095453  -0.064829  -0.040328   0.015613
     28       0.211476  -0.002969   0.499451  -0.341975  -0.170420  -0.000561
     29      -0.039014  -0.033749  -0.046775   0.046057   0.058737   0.001958
     30      -0.193706  -0.010890  -0.467019   0.317307   0.156183  -0.007372
     31       0.077882   0.003236   0.175415  -0.121882  -0.057209  -0.013603
     32      -0.064299   0.032581  -0.108517   0.087722   0.080218  -0.000576
     33      -0.023482  -0.000004  -0.034399   0.027705  -0.074232  -0.691999
     34      -0.003678  -0.004205  -0.129583   0.189113  -0.657883   0.054771
     35       0.099284   0.008555   0.070087  -0.013067  -0.092064  -0.129590
     36      -0.001527  -0.001254   0.116459  -0.173477   0.615058   0.311329
     37       0.008938   0.002586  -0.042787   0.073303  -0.261095   0.630320
     38       0.101620  -0.008041   0.086547  -0.034970  -0.016614  -0.019472
     39       0.003062   0.000030   0.000763   0.001963  -0.007407   0.001093
     40      -0.006110   0.000002  -0.002361  -0.003078   0.013294  -0.001428
     41       0.004195   0.000028   0.005492  -0.001758  -0.002273  -0.002471
     42      -0.031778  -0.000573  -0.026939   0.002994   0.032960   0.003597
     43       0.049311  -0.000064   0.041741  -0.004700  -0.050860  -0.005645
     44       0.031011   0.000074   0.026628  -0.002664  -0.033657  -0.003379
                 36         37         38         39         40         41    
      0       0.000007  -0.002600   0.008810   0.002033   0.013478  -0.015791
      1       0.000003   0.003756  -0.022978  -0.006656   0.007779  -0.009077
      2       0.000000   0.003933   0.041042   0.016630   0.001459  -0.001706
      3      -0.002279   0.032089  -0.003945   0.006124  -0.073205   0.026644
      4      -0.001314  -0.057716   0.007346  -0.011103  -0.042257   0.015368
      5      -0.000248   0.011487  -0.003131   0.002753  -0.008013   0.002918
      6       0.000389   0.035061   0.204023   0.086752   0.004385  -0.005126
      7       0.000232  -0.050627  -0.290376  -0.123059   0.002758  -0.003322
      8       0.000048  -0.053560  -0.333390  -0.143963   0.000688  -0.000895
      9      -0.000634   0.000684   0.242162   0.086818  -0.050138   0.056391
     10      -0.001790   0.005779   0.508568   0.183931  -0.112983   0.125456
     11       0.000519   0.001719  -0.026483  -0.011340   0.006605  -0.005463
     12      -0.001757  -0.005521  -0.550875  -0.198512  -0.119749   0.134079
     13       0.000412   0.002168   0.052187   0.019687   0.014725  -0.015605
     14      -0.000779   0.001037  -0.113779  -0.042736  -0.025236   0.026403
     15      -0.007473  -0.007461  -0.010746   0.030322   0.028371   0.074461
     16      -0.004317   0.013262   0.019402  -0.054528   0.016325   0.042892
     17      -0.000816  -0.001756  -0.003923   0.009824   0.003111   0.008156
     18       0.016199  -0.671055   0.083231  -0.132053   0.627510  -0.224880
     19      -0.001162   0.066013  -0.009108   0.013047  -0.082921   0.029220
     20       0.005482  -0.121978   0.017090  -0.023545   0.117383  -0.037783
     21       0.007823   0.290435  -0.035337   0.056980   0.255106  -0.091053
     22       0.015030   0.618930  -0.076896   0.121672   0.592353  -0.211446
     23      -0.002866  -0.016491   0.004042  -0.002801  -0.020741   0.003173
     24       0.081215   0.001094  -0.000679   0.001247   0.001791   0.009444
     25       0.046905  -0.002131   0.001160  -0.002003   0.001029   0.005438
     26       0.008860   0.001291   0.000117  -0.000934   0.000195   0.001034
     27       0.073872   0.155367   0.228197  -0.633148  -0.248834  -0.632406
     28      -0.011167  -0.014643  -0.021545   0.061643   0.033412   0.080833
     29       0.009727   0.025167   0.039712  -0.106284  -0.044531  -0.108015
     30       0.028187  -0.067346  -0.099454   0.273766  -0.100044  -0.257262
     31       0.070076  -0.142739  -0.210246   0.583980  -0.234134  -0.593292
     32       0.001448   0.000740   0.003814  -0.006925   0.006291   0.010548
     33      -0.678585  -0.024893   0.010019  -0.019212  -0.010352  -0.071425
     34       0.080531   0.002397  -0.001066   0.002237   0.000119   0.006532
     35      -0.142946  -0.007063   0.001487  -0.003178  -0.001252  -0.018003
     36      -0.287374   0.011217  -0.004226   0.008035  -0.005170  -0.032270
     37      -0.638471   0.023100  -0.009279   0.017989  -0.009042  -0.066249
     38       0.037452  -0.003103  -0.000069  -0.000205  -0.000450   0.006661
     39      -0.000293  -0.000018   0.000017  -0.000129   0.000014  -0.000262
     40      -0.000165   0.000088  -0.000049   0.000196   0.000008  -0.000151
     41      -0.000028  -0.000303   0.000102   0.000148   0.000002  -0.000028
     42      -0.005096   0.000809   0.000170  -0.000749  -0.000657  -0.001000
     43      -0.002919  -0.001428  -0.000214   0.000977  -0.000379  -0.000577
     44      -0.000547   0.000128  -0.000425   0.001727  -0.000072  -0.000111
                  42         43         44    
      0      -0.077592   0.044318  -0.000030
      1      -0.043904  -0.070847   0.000049
      2      -0.008111  -0.039989   0.000022
      3      -0.019372   0.002746   0.000116
      4      -0.011113  -0.005261  -0.000197
      5      -0.002126   0.000761  -0.000021
      6      -0.011836  -0.348026   0.000132
      7      -0.013122   0.491098  -0.000226
      8      -0.007018   0.589741  -0.000022
      9       0.277408   0.172534  -0.000027
     10       0.615687   0.334366  -0.000032
     11      -0.042016  -0.029550  -0.000035
     12       0.661856  -0.354502   0.000045
     13      -0.077802   0.022591   0.000011
     14       0.146029  -0.086221  -0.000028
     15      -0.009667   0.000108  -0.000228
     16      -0.005565  -0.000385   0.000404
     17      -0.001062   0.000287  -0.000045
     18       0.159030  -0.047763  -0.000739
     19      -0.019399   0.006411   0.000151
     20       0.030946  -0.009193   0.000036
     21       0.065815   0.020342   0.000227
     22       0.148456   0.047347   0.000704
     23      -0.006246  -0.001946   0.000144
     24      -0.001265   0.000137   0.001174
     25      -0.000725  -0.000289  -0.002080
     26      -0.000141   0.000180   0.000208
     27       0.083574  -0.007702  -0.000705
     28      -0.011201   0.001082  -0.000042
     29       0.011715   0.000271  -0.001032
     30       0.033088   0.003208   0.000549
     31       0.078301   0.008117   0.000682
     32       0.001050   0.001447  -0.000898
     33       0.010871  -0.003210   0.000897
     34      -0.001213   0.000466  -0.001701
     35       0.003552  -0.001222  -0.003136
     36       0.004830   0.001434   0.001529
     37       0.010214   0.003234  -0.001339
     38      -0.001820  -0.000747  -0.003064
     39       0.000064  -0.000002   0.006781
     40       0.000037   0.000011  -0.022749
     41       0.000007  -0.000033   0.057897
     42       0.000011   0.000004  -0.121828
     43       0.000007   0.000031   0.384595
     44       0.000002  -0.000196  -0.912848


-----------
IR SPECTRUM
-----------

 Mode    freq (cm**-1)   T**2         TX         TY         TZ
-------------------------------------------------------------------
   6:       114.96    2.548617  (  1.376793   0.793617   0.152418)
   7:       120.05    2.917863  (  1.475135   0.846928   0.156695)
   8:       185.07    2.120094  ( -0.442823   0.533437   1.280409)
   9:       253.05    1.834360  (  1.170204   0.670148   0.126031)
  10:       276.33  106.510662  (  8.903953   5.126980   0.971778)
  11:       391.94    0.102833  (  0.158073  -0.278124   0.022199)
  12:       435.46   11.364813  ( -0.951101   1.073638   3.050823)
  13:       736.11    2.955690  ( -1.481651  -0.856698  -0.162695)
  14:       798.33    1.267502  ( -0.970491  -0.560238  -0.108552)
  15:       889.49   12.346132  (  1.329132  -1.794272  -2.712956)
  16:       927.65    0.058920  ( -0.209481  -0.120472  -0.022890)
  17:       994.17    0.649638  (  0.057870   0.054409  -0.802078)
  18:      1042.53   58.629991  ( -2.968207   4.056382   5.776288)
  19:      1061.67   30.261111  (  2.032159  -2.703075  -4.338759)
  20:      1092.61   10.179307  (  1.251877  -1.724504  -2.374488)
  21:      1146.80    1.883016  (  1.180647   0.686054   0.135715)
  22:      1201.86    0.036159  (  0.162794   0.096316   0.019498)
  23:      1209.64   36.209289  ( -2.560474   3.681285   4.012655)
  24:      1265.73   22.897298  (  2.271154  -3.533782  -2.291625)
  25:      1267.43    0.503850  (  0.636044   0.312195   0.042804)
  26:      1275.88    0.196669  ( -0.382173  -0.220960  -0.042311)
  27:      1342.63    4.416923  ( -0.826720   1.139206   1.560662)
  28:      1359.41    1.378754  ( -0.091439   0.374267  -1.109197)
  29:      1414.81    7.983121  ( -0.071292  -0.408681   2.794820)
  30:      1422.22    0.096060  ( -0.141972   0.266479  -0.069945)
  31:      1428.73    5.961504  (  2.107479   1.212183   0.225049)
  32:      1431.07    0.740221  (  0.106335  -0.054616  -0.852016)
  33:      1441.10    3.760404  (  0.980250  -1.658411  -0.221785)
  34:      1466.11    4.806144  ( -0.595179   0.654830   2.005768)
  35:      2867.91   70.441976  (  4.156096  -7.276888   0.464474)
  36:      2895.71   67.985683  (  7.105367   4.110398   0.777221)
  37:      2947.13   24.294612  (  2.264434  -4.173039   1.323893)
  38:      2958.58   18.769926  ( -0.604446   0.234793   4.283625)
  39:      2963.42   50.592153  (  3.066484  -5.831985   2.678952)
  40:      2982.22    5.559485  ( -2.030484  -1.177298  -0.224921)
  41:      3013.71   37.262900  (  5.265054   3.034235   0.579243)
  42:      3041.01   45.211725  ( -5.821497  -3.308766  -0.611525)
  43:      3046.45   30.156848  (  2.587453  -4.115967  -2.553576)
  44:      3707.05   16.003805  ( -0.074942   0.869102  -3.904209)

The first frequency considered to be a vibration is 6
The total number of vibrations considered is 39


--------------------------
THERMOCHEMISTRY AT 298.15K
--------------------------

Temperature         ... 298.15 K
Pressure            ... 1.00 atm
Total Mass          ... 74.12 AMU

Throughout the following assumptions are being made:
  (1) The electronic state is orbitally nondegenerate
  (2) There are no thermally accessible electronically excited states
  (3) Hindered rotations indicated by low frequency modes are not
      treated as such but are treated as vibrations and this may
      cause some error
  (4) All equations used are the standard statistical mechanics
      equations for an ideal gas
  (5) All vibrations are strictly harmonic

freq.     114.96  E(vib)   ...       0.44 
freq.     120.05  E(vib)   ...       0.44 
freq.     185.07  E(vib)   ...       0.37 
freq.     253.05  E(vib)   ...       0.30 
freq.     276.33  E(vib)   ...       0.28 
freq.     391.94  E(vib)   ...       0.20 
freq.     435.46  E(vib)   ...       0.17 
freq.     736.11  E(vib)   ...       0.06 
freq.     798.33  E(vib)   ...       0.05 
freq.     889.49  E(vib)   ...       0.04 
freq.     927.65  E(vib)   ...       0.03 
freq.     994.17  E(vib)   ...       0.02 
freq.    1042.53  E(vib)   ...       0.02 
freq.    1061.67  E(vib)   ...       0.02 
freq.    1092.61  E(vib)   ...       0.02 
freq.    1146.80  E(vib)   ...       0.01 
freq.    1201.86  E(vib)   ...       0.01 
freq.    1209.64  E(vib)   ...       0.01 
freq.    1265.73  E(vib)   ...       0.01 
freq.    1267.43  E(vib)   ...       0.01 
freq.    1275.88  E(vib)   ...       0.01 
freq.    1342.63  E(vib)   ...       0.01 
freq.    1359.41  E(vib)   ...       0.01 
freq.    1414.81  E(vib)   ...       0.00 
freq.    1422.22  E(vib)   ...       0.00 
freq.    1428.73  E(vib)   ...       0.00 
freq.    1431.07  E(vib)   ...       0.00 
freq.    1441.10  E(vib)   ...       0.00 
freq.    1466.11  E(vib)   ...       0.00 
freq.    2867.91  E(vib)   ...       0.00 
freq.    2895.71  E(vib)   ...       0.00 
freq.    2947.13  E(vib)   ...       0.00 
freq.    2958.58  E(vib)   ...       0.00 
freq.    2963.42  E(vib)   ...       0.00 
freq.    2982.22  E(vib)   ...       0.00 
freq.    3013.71  E(vib)   ...       0.00 
freq.    3041.01  E(vib)   ...       0.00 
freq.    3046.45  E(vib)   ...       0.00 
freq.    3707.05  E(vib)   ...       0.00 

------------
INNER ENERGY
------------

The inner energy is: U= E(el) + E(ZPE) + E(vib) + E(rot) + E(trans)
    E(el)   - is the total energy from the electronic structure calculation
              = E(kin-el) + E(nuc-el) + E(el-el) + E(nuc-nuc)
    E(ZPE)  - the the zero temperature vibrational energy from the frequency calculation
    E(vib)  - the the finite temperature correction to E(ZPE) due to population
              of excited vibrational states
    E(rot)  - is the rotational thermal energy
    E(trans)- is the translational thermal energy

Summary of contributions to the inner energy U:
Electronic energy                ...   -233.43662842 Eh
Zero point energy                ...      0.13308153 Eh      83.51 kcal/mol
Thermal vibrational correction   ...      0.00406936 Eh       2.55 kcal/mol
Thermal rotational correction    ...      0.00141627 Eh       0.89 kcal/mol
Thermal translational correction ...      0.00141627 Eh       0.89 kcal/mol
-----------------------------------------------------------------------
Total thermal energy                   -233.29664499 Eh


Summary of corrections to the electronic energy:
(perhaps to be used in another calculation)
Total thermal correction                  0.00690190 Eh       4.33 kcal/mol
Non-thermal (ZPE) correction              0.13308153 Eh      83.51 kcal/mol
-----------------------------------------------------------------------
Total correction                          0.13998343 Eh      87.84 kcal/mol


--------
ENTHALPY
--------

The enthalpy is H = U + kB*T
                kB is Boltzmann's constant
Total free energy                 ...   -233.29664499 Eh 
Thermal Enthalpy correction       ...      0.00094421 Eh       0.59 kcal/mol
-----------------------------------------------------------------------
Total Enthalpy                    ...   -233.29570078 Eh


Note: Only C1 symmetry has been detected, increase convergence thresholds 
      if your molecule has a higher symmetry. Symmetry factor of 1.0 is   
      used for the rotational entropy correction. 
 

Note: Rotational entropy computed according to Herzberg 
Infrared and Raman Spectra, Chapter V,1, Van Nostrand Reinhold, 1945 
Point Group:  C1, Symmetry Number:   1  
Rotational constants in cm-1:     0.616298     0.065004     0.061560 

Vibrational entropy computed according to the QRRHO of S. Grimme
Chem.Eur.J. 2012 18 9955


-------
ENTROPY
-------

The entropy contributions are T*S = T*(S(el)+S(vib)+S(rot)+S(trans))
     S(el)   - electronic entropy
     S(vib)  - vibrational entropy
     S(rot)  - rotational entropy
     S(trans)- translational entropy
The entropies will be listed as mutliplied by the temperature to get
units of energy

Electronic entropy                ...      0.00000000 Eh      0.00 kcal/mol
Vibrational entropy               ...      0.00702395 Eh      4.41 kcal/mol
Rotational entropy                ...      0.01234575 Eh      7.75 kcal/mol
Translational entropy             ...      0.01844715 Eh     11.58 kcal/mol
-----------------------------------------------------------------------
Final entropy term                ...      0.03781685 Eh     23.73 kcal/mol

In case the symmetry of your molecule has not been determined correctly
or in case you have a reason to use a different symmetry number we print 
out the resulting rotational entropy values for sn=1,12 :
 --------------------------------------------------------
|  sn= 1 | S(rot)=       0.01234575 Eh      7.75 kcal/mol|
|  sn= 2 | S(rot)=       0.01169129 Eh      7.34 kcal/mol|
|  sn= 3 | S(rot)=       0.01130846 Eh      7.10 kcal/mol|
|  sn= 4 | S(rot)=       0.01103684 Eh      6.93 kcal/mol|
|  sn= 5 | S(rot)=       0.01082615 Eh      6.79 kcal/mol|
|  sn= 6 | S(rot)=       0.01065401 Eh      6.69 kcal/mol|
|  sn= 7 | S(rot)=       0.01050846 Eh      6.59 kcal/mol|
|  sn= 8 | S(rot)=       0.01038238 Eh      6.52 kcal/mol|
|  sn= 9 | S(rot)=       0.01027117 Eh      6.45 kcal/mol|
|  sn=10 | S(rot)=       0.01017169 Eh      6.38 kcal/mol|
|  sn=11 | S(rot)=       0.01008170 Eh      6.33 kcal/mol|
|  sn=12 | S(rot)=       0.00999955 Eh      6.27 kcal/mol|
 --------------------------------------------------------


-------------------
GIBBS FREE ENERGY
-------------------

The Gibbs free energy is G = H - T*S

Total enthalpy                    ...   -233.29570078 Eh 
Total entropy correction          ...     -0.03781685 Eh    -23.73 kcal/mol
-----------------------------------------------------------------------
Final Gibbs free energy         ...   -233.33351763 Eh

For completeness - the Gibbs free energy minus the electronic energy
G-E(el)                           ...      0.10311079 Eh     64.70 kcal/mol


Timings for individual modules:

Sum of individual times         ...       91.826 sec (=   1.530 min)
GTO integral calculation        ...        2.895 sec (=   0.048 min)   3.2 %
SCF iterations                  ...       25.777 sec (=   0.430 min)  28.1 %
SCF Gradient evaluation         ...       11.159 sec (=   0.186 min)  12.2 %
Geometry relaxation             ...        0.336 sec (=   0.006 min)   0.4 %
Analytical frequency calculation...       51.658 sec (=   0.861 min)  56.3 %
                             ****ORCA TERMINATED NORMALLY****
TOTAL RUN TIME: 0 days 0 hours 1 minutes 32 seconds 916 msec
