
                                 *****************
                                 * O   R   C   A *
                                 *****************

           --- An Ab Initio, DFT and Semiempirical electronic structure package ---

                  #######################################################
                  #                        -***-                        #
                  #          Department of theory and spectroscopy      #
                  #               Directorship: Frank Neese             #
                  #        Max Planck Institute fuer Kohlenforschung    #
                  #                Kaiser Wilhelm Platz 1               #
                  #                 D-45470 Muelheim/Ruhr               #
                  #                      Germany                        #
                  #                                                     #
                  #                  All rights reserved                #
                  #                        -***-                        #
                  #######################################################


                         Program Version 4.2.1 -  RELEASE  -


 With contributions from (in alphabetic order):
   Daniel Aravena         : Magnetic Suceptibility
   Michael Atanasov       : Ab Initio Ligand Field Theory (pilot matlab implementation)
   Alexander A. Auer      : GIAO ZORA, VPT2
   Ute Becker             : Parallelization
   Giovanni Bistoni       : ED, misc. LED, open-shell LED, HFLD
   Martin Brehm           : Molecular dynamics
   Dmytro Bykov           : SCF Hessian
   Vijay G. Chilkuri      : MRCI spin determinant printing, contributions to CSF-ICE
   Dipayan Datta          : RHF DLPNO-CCSD density
   Achintya Kumar Dutta   : EOM-CC, STEOM-CC
   Dmitry Ganyushin       : Spin-Orbit,Spin-Spin,Magnetic field MRCI
   Miquel Garcia          : C-PCM Hessian, Gaussian charge scheme
   Yang Guo               : DLPNO-NEVPT2, CIM, IAO-localization
   Andreas Hansen         : Spin unrestricted coupled pair/coupled cluster methods
   Benjamin Helmich-Paris : CASSCF linear response (MC-RPA)
   Lee Huntington         : MR-EOM, pCC
   Robert Izsak           : Overlap fitted RIJCOSX, COSX-SCS-MP3, EOM
   Christian Kollmar      : KDIIS, OOCD, Brueckner-CCSD(T), CCSD density
   Simone Kossmann        : Meta GGA functionals, TD-DFT gradient, OOMP2, MP2 Hessian
   Martin Krupicka        : AUTO-CI
   Lucas Lang             : DCDCAS
   Dagmar Lenk            : GEPOL surface, SMD
   Dimitrios Liakos       : Extrapolation schemes; Compound Job, initial MDCI parallelization
   Dimitrios Manganas     : Further ROCIS development; embedding schemes
   Dimitrios Pantazis     : SARC Basis sets
   Taras Petrenko         : DFT Hessian,TD-DFT gradient, ASA, ECA, R-Raman, ABS, FL, XAS/XES, NRVS
   Peter Pinski           : DLPNO-MP2, DLPNO-MP2 Gradient
   Christoph Reimann      : Effective Core Potentials
   Marius Retegan         : Local ZFS, SOC
   Christoph Riplinger    : Optimizer, TS searches, QM/MM, DLPNO-CCSD(T), (RO)-DLPNO pert. Triples
   Tobias Risthaus        : Range-separated hybrids, TD-DFT gradient, RPA, STAB
   Michael Roemelt        : Original ROCIS implementation
   Masaaki Saitow         : Open-shell DLPNO-CCSD energy and density
   Barbara Sandhoefer     : DKH picture change effects
   Avijit Sen             : IP-ROCIS
   Kantharuban Sivalingam : CASSCF convergence, NEVPT2, FIC-MRCI
   Bernardo de Souza      : ESD, SOC TD-DFT
   Georgi Stoychev        : AutoAux, RI-MP2 NMR
   Willem Van den Heuvel  : Paramagnetic NMR
   Boris Wezisla          : Elementary symmetry handling
   Frank Wennmohs         : Technical directorship


 We gratefully acknowledge several colleagues who have allowed us to
 interface, adapt or use parts of their codes:
   Stefan Grimme, W. Hujo, H. Kruse,             : VdW corrections, initial TS optimization,
                  C. Bannwarth                     DFT functionals, gCP, sTDA/sTD-DF
   Ed Valeev, F. Pavosevic, A. Kumar             : LibInt (2-el integral package), F12 methods
   Garnet Chan, S. Sharma, J. Yang, R. Olivares  : DMRG
   Ulf Ekstrom                                   : XCFun DFT Library
   Mihaly Kallay                                 : mrcc  (arbitrary order and MRCC methods)
   Andreas Klamt, Michael Diedenhofen            : otool_cosmo (COSMO solvation model)
   Jiri Pittner, Ondrej Demel                    : Mk-CCSD
   Frank Weinhold                                : gennbo (NPA and NBO analysis)
   Christopher J. Cramer and Donald G. Truhlar   : smd solvation model
   Lars Goerigk                                  : TD-DFT with DH, B97 family of functionals
   V. Asgeirsson, H. Jonsson                     : NEB implementation
   FAccTs GmbH                                   : IRC, NEB, NEB-TS, Multilevel, MM, QM/MM, CI optimization
   S Lehtola, MJT Oliveira, MAL Marques          : LibXC Library


 Your calculation uses the libint2 library for the computation of 2-el integrals
 For citations please refer to: http://libint.valeyev.net

 Your ORCA version has been built with support for libXC version: 4.2.3
 For citations please refer to: https://tddft.org/programs/libxc/

 This ORCA versions uses:
   CBLAS   interface :  Fast vector & matrix operations
   LAPACKE interface :  Fast linear algebra routines
   SCALAPACK package :  Parallel linear algebra routines




***************************************
The coordinates will be read from file: init.xyz
***************************************


Your calculation utilizes the geometrical counterpoise correction gCP
Please cite in your paper:
H.Kruse, S. Grimme J.Chem.Phys., 136, (2012), 154101 
   

Your calculation utilizes the atom-pairwise dispersion correction
based on tight binding partial charges (D4)
Cite in your paper:
E.Caldeweyher, C.Bannwarth, S.Grimme, J.Chem.Phys., (2017), 147, 034112.
E.Caldeweyher, S.Ehlert, A.Hansen, H.Neugebauer, S.Grimme, J.Chem.Phys., (2018), in progress.
   

----- Orbital basis set information -----
Your calculation utilizes the basis: def2-SVP
   F. Weigend and R. Ahlrichs, Phys. Chem. Chem. Phys. 7, 3297 (2005).

----- AuxJ basis set information -----
Your calculation utilizes the auxiliary basis: def2/J
   F. Weigend, Phys. Chem. Chem. Phys. 8, 1057 (2006).

================================================================================
                                        WARNINGS
                       Please study these warnings very carefully!
================================================================================


WARNING: Geometry Optimization
  ===> : Switching off AutoStart
         For restart on a previous wavefunction, please use MOREAD

INFO   : the flag for use of LIBINT has been found!

================================================================================
                                       INPUT FILE
================================================================================
NAME = opt.inp
|  1> ! revPBE D4 gCP(DFT/TZ) def2-SVP Opt Freq TightOpt TightSCF Grid4 FinalGrid5 LargePrint
|  2> 
|  3> %pal
|  4>  nprocs 8
|  5> end
|  6> 
|  7> *xyzfile 0 1 init.xyz
|  8> 
|  9>                          ****END OF INPUT****
================================================================================

                       *****************************
                       * Geometry Optimization Run *
                       *****************************

Geometry optimization settings:
Update method            Update   .... BFGS
Choice of coordinates    CoordSys .... Z-matrix Internals
Initial Hessian          InHess   .... Almoef's Model

Convergence Tolerances:
Energy Change            TolE     ....  1.0000e-06 Eh
Max. Gradient            TolMAXG  ....  1.0000e-04 Eh/bohr
RMS Gradient             TolRMSG  ....  3.0000e-05 Eh/bohr
Max. Displacement        TolMAXD  ....  1.0000e-03 bohr
RMS Displacement         TolRMSD  ....  6.0000e-04 bohr
Strict Convergence                ....  False
------------------------------------------------------------------------------
                        ORCA OPTIMIZATION COORDINATE SETUP
------------------------------------------------------------------------------

The optimization will be done in new redundant internal coordinates
Making redundant internal coordinates   ...  (new redundants) done
Evaluating the initial hessian          ...  (Almloef) done
Evaluating the coordinates              ...  done
Calculating the B-matrix                .... done
Calculating the G-matrix                .... done
Diagonalizing the G-matrix              .... done
The first mode is                       ....   21
The number of degrees of freedom        ....   30

    -----------------------------------------------------------------
                    Redundant Internal Coordinates


    -----------------------------------------------------------------
         Definition                    Initial Value    Approx d2E/dq
    -----------------------------------------------------------------
      1. B(O   1,C   0)                  1.4000         0.539395   
      2. B(H   2,C   0)                  1.1134         0.330470   
      3. B(H   3,C   0)                  1.1134         0.330489   
      4. B(C   4,C   0)                  1.5279         0.376400   
      5. B(H   5,O   1)                  0.9924         0.461541   
      6. B(H   6,C   4)                  1.1118         0.332431   
      7. B(C   7,C   4)                  1.5261         0.379010   
      8. B(H   8,C   4)                  1.1118         0.332433   
      9. B(H   9,C   7)                  1.1109         0.333466   
     10. B(H  10,C   7)                  1.1109         0.333470   
     11. B(H  11,C   7)                  1.1104         0.334122   
     12. A(H   2,C   0,H   3)          109.9866         0.283147   
     13. A(O   1,C   0,H   2)          109.6247         0.337734   
     14. A(O   1,C   0,H   3)          109.6188         0.337737   
     15. A(H   3,C   0,C   4)          109.1608         0.320187   
     16. A(H   2,C   0,C   4)          109.1486         0.320184   
     17. A(O   1,C   0,C   4)          109.2838         0.385188   
     18. A(C   0,O   1,H   5)          106.0880         0.354144   
     19. A(C   7,C   4,H   8)          109.0272         0.320856   
     20. A(H   6,C   4,H   8)          108.6771         0.283666   
     21. A(C   0,C   4,H   8)          109.3809         0.320494   
     22. A(H   6,C   4,C   7)          109.0256         0.320856   
     23. A(C   0,C   4,C   7)          111.3087         0.364720   
     24. A(C   0,C   4,H   6)          109.3773         0.320493   
     25. A(C   4,C   7,H  10)          110.3485         0.321019   
     26. A(C   4,C   7,H   9)          110.3479         0.321019   
     27. A(H  10,C   7,H  11)          108.6693         0.284027   
     28. A(H   9,C   7,H  11)          108.6682         0.284026   
     29. A(C   4,C   7,H  11)          109.5778         0.321122   
     30. A(H   9,C   7,H  10)          109.1891         0.283940   
     31. D(H   5,O   1,C   0,H   3)    -60.5665         0.023143   
     32. D(H   5,O   1,C   0,C   4)    179.8379         0.023143   
     33. D(H   5,O   1,C   0,H   2)     60.2536         0.023143   
     34. D(H   8,C   4,C   0,H   3)    -60.4149         0.011303   
     35. D(H   6,C   4,C   0,H   3)   -179.3344         0.011303   
     36. D(C   7,C   4,C   0,O   1)   -179.9946         0.011303   
     37. D(C   7,C   4,C   0,H   3)     60.1276         0.011303   
     38. D(H   6,C   4,C   0,H   2)     60.4211         0.011303   
     39. D(C   7,C   4,C   0,H   2)    -60.1169         0.011303   
     40. D(H   8,C   4,C   0,H   2)    179.3406         0.011303   
     41. D(H   8,C   4,C   0,O   1)     59.4630         0.011303   
     42. D(H   6,C   4,C   0,O   1)    -59.4565         0.011303   
     43. D(H   9,C   7,C   4,H   8)   -178.8765         0.011452   
     44. D(H   9,C   7,C   4,H   6)    -60.3716         0.011452   
     45. D(H   9,C   7,C   4,C   0)     60.3732         0.011452   
     46. D(H  11,C   7,C   4,H   8)    -59.2571         0.011452   
     47. D(H  11,C   7,C   4,H   6)     59.2477         0.011452   
     48. D(H  11,C   7,C   4,C   0)    179.9925         0.011452   
     49. D(H  10,C   7,C   4,H   8)     60.3639         0.011452   
     50. D(H  10,C   7,C   4,H   6)    178.8687         0.011452   
     51. D(H  10,C   7,C   4,C   0)    -60.3865         0.011452   
    -----------------------------------------------------------------

Number of atoms                         .... 12
Number of degrees of freedom            .... 51

         *************************************************************
         *                GEOMETRY OPTIMIZATION CYCLE   1            *
         *************************************************************
---------------------------------
CARTESIAN COORDINATES (ANGSTROEM)
---------------------------------
  C     -7.674170    2.554960    0.046300
  O     -6.303480    2.839960    0.049310
  H     -8.180250    3.160330   -0.739200
  H     -8.106890    2.789220    1.045020
  C     -7.880370    1.071080   -0.254050
  H     -6.224640    3.809690    0.245130
  H     -7.438770    0.830590   -1.245600
  C     -9.362790    0.709000   -0.268650
  H     -7.366300    0.462750    0.521630
  H     -9.894840    1.290770   -1.051340
  H     -9.822200    0.921900    0.720160
  H     -9.479370   -0.373000   -0.489180

----------------------------
CARTESIAN COORDINATES (A.U.)
----------------------------
  NO LB      ZA    FRAG     MASS         X           Y           Z
   0 C     6.0000    0    12.011  -14.502080    4.828175    0.087494
   1 O     8.0000    0    15.999  -11.911851    5.366747    0.093182
   2 H     1.0000    0     1.008  -15.458432    5.972158   -1.396886
   3 H     1.0000    0     1.008  -15.319802    5.270862    1.974802
   4 C     6.0000    0    12.011  -14.891741    2.024048   -0.480085
   5 H     1.0000    0     1.008  -11.762865    7.199271    0.463229
   6 H     1.0000    0     1.008  -14.057238    1.569588   -2.353843
   7 C     6.0000    0    12.011  -17.693109    1.339816   -0.507675
   8 H     1.0000    0     1.008  -13.920290    0.874471    0.985738
   9 H     1.0000    0     1.008  -18.698538    2.439202   -1.986745
  10 H     1.0000    0     1.008  -18.561268    1.742139    1.360905
  11 H     1.0000    0     1.008  -17.913413   -0.704868   -0.924416

--------------------------------
INTERNAL COORDINATES (ANGSTROEM)
--------------------------------
 C      0   0   0     0.000000000000     0.00000000     0.00000000
 O      1   0   0     1.400008977186     0.00000000     0.00000000
 H      1   2   0     1.113373276714   109.62471673     0.00000000
 H      1   2   3     1.113357976753   109.61883274   239.17989290
 C      1   2   3     1.527949088452   109.28378957   119.58427044
 H      2   1   3     0.992440169935   106.08797041    60.25359862
 H      5   1   2     1.111763195379   109.37727578   300.54347155
 C      5   1   2     1.526068197297   111.30872169   180.00543476
 H      5   1   2     1.111761132708   109.38087343    59.46296733
 H      8   5   1     1.110917265821   110.34790501    60.37316919
 H      8   5   1     1.110913666403   110.34846266   299.61347440
 H      8   5   1     1.110382086176   109.57781425   179.99250764

---------------------------
INTERNAL COORDINATES (A.U.)
---------------------------
 C      0   0   0     0.000000000000     0.00000000     0.00000000
 O      1   0   0     2.645633551912     0.00000000     0.00000000
 H      1   2   0     2.103970577815   109.62471673     0.00000000
 H      1   2   3     2.103941665080   109.61883274   239.17989290
 C      1   2   3     2.887405323748   109.28378957   119.58427044
 H      2   1   3     1.875440125479   106.08797041    60.25359862
 H      5   1   2     2.100927965040   109.37727578   300.54347155
 C      5   1   2     2.883850954577   111.30872169   180.00543476
 H      5   1   2     2.100924067156   109.38087343    59.46296733
 H      8   5   1     2.099329389847   110.34790501    60.37316919
 H      8   5   1     2.099322587931   110.34846266   299.61347440
 H      8   5   1     2.098318046884   109.57781425   179.99250764

---------------------
BASIS SET INFORMATION
---------------------
There are 3 groups of distinct atoms

 Group   1 Type C   : 7s4p1d contracted to 3s2p1d pattern {511/31/1}
 Group   2 Type O   : 7s4p1d contracted to 3s2p1d pattern {511/31/1}
 Group   3 Type H   : 4s1p contracted to 2s1p pattern {31/1}

Atom   0C    basis set group =>   1
Atom   1O    basis set group =>   2
Atom   2H    basis set group =>   3
Atom   3H    basis set group =>   3
Atom   4C    basis set group =>   1
Atom   5H    basis set group =>   3
Atom   6H    basis set group =>   3
Atom   7C    basis set group =>   1
Atom   8H    basis set group =>   3
Atom   9H    basis set group =>   3
Atom  10H    basis set group =>   3
Atom  11H    basis set group =>   3

-------------------------
BASIS SET IN INPUT FORMAT
-------------------------

 # Basis set for element : H 
 NewGTO H 
 S 3 
   1      13.0107010000      0.0334854848
   2       1.9622572000      0.2347218709
   3       0.4445379600      0.8137702853
 S 1 
   1       0.1219496200      1.0000000000
 P 1 
   1       0.8000000000      1.0000000000
  end;

 # Basis set for element : C 
 NewGTO C 
 S 5 
   1    1238.4016938000      0.0055173650
   2     186.2900499200      0.0410888285
   3      42.2511763460      0.1822538213
   4      11.6765579320      0.4682845944
   5       3.5930506482      0.4457581734
 S 1 
   1       0.4024514736      1.0000000000
 S 1 
   1       0.1309018267      1.0000000000
 P 3 
   1       9.4680970621      0.0568883320
   2       2.0103545142      0.3129405934
   3       0.5477100471      0.7606501651
 P 1 
   1       0.1526861379      1.0000000000
 D 1 
   1       0.8000000000      1.0000000000
  end;

 # Basis set for element : O 
 NewGTO O 
 S 5 
   1    2266.1767785000     -0.0053893504
   2     340.8701019100     -0.0402347214
   3      77.3631351670     -0.1800818421
   4      21.4796449400     -0.4682885766
   5       6.6589433124     -0.4469261716
 S 1 
   1       0.8097597567      1.0000000000
 S 1 
   1       0.2553077223      1.0000000000
 P 3 
   1      17.7215043170      0.0626302488
   2       3.8635505440      0.3333113849
   3       1.0480920883      0.7414863830
 P 1 
   1       0.2764154441      1.0000000000
 D 1 
   1       1.2000000000      1.0000000000
  end;

---------------------------------
AUXILIARY/J BASIS SET INFORMATION
---------------------------------
There are 3 groups of distinct atoms

 Group   1 Type C   : 12s5p4d2f1g contracted to 6s4p3d1f1g pattern {711111/2111/211/2/1}
 Group   2 Type O   : 12s5p4d2f1g contracted to 6s4p3d1f1g pattern {711111/2111/211/2/1}
 Group   3 Type H   : 5s2p1d contracted to 3s1p1d pattern {311/2/1}

Atom   0C    basis set group =>   1
Atom   1O    basis set group =>   2
Atom   2H    basis set group =>   3
Atom   3H    basis set group =>   3
Atom   4C    basis set group =>   1
Atom   5H    basis set group =>   3
Atom   6H    basis set group =>   3
Atom   7C    basis set group =>   1
Atom   8H    basis set group =>   3
Atom   9H    basis set group =>   3
Atom  10H    basis set group =>   3
Atom  11H    basis set group =>   3

-------------------------------------
AUXILIARY/J BASIS SET IN INPUT FORMAT
-------------------------------------

 # Auxiliary/J basis set for element : H 
 NewAuxJGTO H 
 S 3 
   1      15.6752927000      0.1007184237
   2       3.6063578000      0.3404257499
   3       1.2080016000      0.6491996172
 S 1 
   1       0.4726794000      1.0000000000
 S 1 
   1       0.2018100000      1.0000000000
 P 2 
   1       2.0281365000      0.5596620919
   2       0.5358730000      0.5596620919
 D 1 
   1       2.2165124000      1.0000000000
  end;

 # Auxiliary/J basis set for element : C 
 NewAuxJGTO C 
 S 7 
   1    1861.0916331000      0.0134602335
   2     642.9939764000      0.0299160374
   3     235.1105725000      0.1008649584
   4      90.7028894000      0.2370970548
   5      36.7794552000      0.3924037254
   6      15.6046273000      0.3195862154
   7       6.8907294000      0.0530104441
 S 1 
   1       3.1478850000     -1.0000000000
 S 1 
   1       1.4777287000      1.0000000000
 S 1 
   1       0.7076466000      1.0000000000
 S 1 
   1       0.3430122000      1.0000000000
 S 1 
   1       0.1669453000      1.0000000000
 P 2 
   1      13.5472892000     -0.6769313712
   2       5.4669419000     -0.3779500978
 P 1 
   1       2.1751721000      1.0000000000
 P 1 
   1       0.8582194000      1.0000000000
 P 1 
   1       0.3376720000      1.0000000000
 D 2 
   1       5.9287253000     -0.3533329857
   2       1.9809209000     -0.7456525731
 D 1 
   1       0.8055417000     -1.0000000000
 D 1 
   1       0.3531244000     -1.0000000000
 F 2 
   1       1.6755626000      0.6311076882
   2       0.5997536000      0.4968166032
 G 1 
   1       1.0024600000     -1.0000000000
  end;

 # Auxiliary/J basis set for element : O 
 NewAuxJGTO O 
 S 7 
   1    2876.8216605000      0.0168151159
   2    1004.7443032000      0.0340137548
   3     369.7579954000      0.1194951309
   4     142.9442404000      0.2664627624
   5      57.8366425000      0.4202764046
   6      24.3864983000      0.2765077335
   7      10.6622662000      0.0057008815
 S 1 
   1       4.8070437000     -1.0000000000
 S 1 
   1       2.2210770000      1.0000000000
 S 1 
   1       1.0447795000      1.0000000000
 S 1 
   1       0.4968425000      1.0000000000
 S 1 
   1       0.2371384000      1.0000000000
 P 2 
   1      64.2613382000     -0.2731534179
   2      16.3006076000     -0.8168011598
 P 1 
   1       4.3550542000      1.0000000000
 P 1 
   1       1.2019554000      1.0000000000
 P 1 
   1       0.3354196000      1.0000000000
 D 2 
   1       9.2146611000     -0.4661230638
   2       2.8435251000     -0.6600908911
 D 1 
   1       0.9955759000     -1.0000000000
 D 1 
   1       0.3649441000     -1.0000000000
 F 2 
   1       2.6420115000      0.5931563945
   2       0.7345613000      0.5931563945
 G 1 
   1       1.3931000000     -1.0000000000
  end;



           ************************************************************
           *        Program running with 8 parallel MPI-processes     *
           *              working on a common directory               *
           ************************************************************
------------------------------------------------------------------------------
                           ORCA GTO INTEGRAL CALCULATION
                           -- RI-GTO INTEGRALS CHOSEN --
------------------------------------------------------------------------------

                         BASIS SET STATISTICS AND STARTUP INFO

Gaussian basis set:
 # of primitive gaussian shells          ...   88
 # of primitive gaussian functions       ...  152
 # of contracted shells                  ...   48
 # of contracted basis functions         ...   96
 Highest angular momentum                ...    2
 Maximum contraction depth               ...    5
Auxiliary gaussian basis set:
 # of primitive gaussian shells          ...  160
 # of primitive gaussian functions       ...  408
 # of contracted shells                  ...  100
 # of contracted aux-basis functions     ...  284
 Highest angular momentum                ...    4
 Maximum contraction depth               ...    7
Ratio of auxiliary to basis functions    ...  2.96
Integral package used                  ... LIBINT
 One Electron integrals                  ... done
 Ordering auxiliary basis shells         ... done
 Integral threshhold             Thresh  ...  2.500e-11
 Primitive cut-off               TCut    ...  2.500e-12
 Pre-screening matrix                    ... done
 Shell pair data                         ... 
 Ordering of the shell pairs             ... done (   0.000 sec) 1157 of 1176 pairs
 Determination of significant pairs      ... done (   0.000 sec)
 Creation of shell pair data             ... done (   0.000 sec)
 Storage of shell pair data              ... done (   0.002 sec)
 Shell pair data done in (   0.002 sec)
 Computing two index integrals           ... done
 Cholesky decomposition of the V-matrix  ... done


Timings:
 Total evaluation time                   ...   0.146 sec (  0.002 min)
 One electron matrix time                ...   0.013 sec (  0.000 min) =  8.7%
 Schwartz matrix evaluation time         ...   0.108 sec (  0.002 min) = 73.9%
 Two index repulsion integral time       ...   0.003 sec (  0.000 min) =  1.9%
 Cholesky decomposition of V             ...   0.003 sec (  0.000 min) =  2.4%
 Three index repulsion integral time     ...   0.000 sec (  0.000 min) =  0.0%



           ************************************************************
           *        Program running with 8 parallel MPI-processes     *
           *              working on a common directory               *
           ************************************************************
-------------------------------------------------------------------------------
                                 ORCA SCF
-------------------------------------------------------------------------------

------------
SCF SETTINGS
------------
Hamiltonian:
 Density Functional     Method          .... DFT(GTOs)
 Exchange Functional    Exchange        .... PBE
   PBE kappa parameter   XKappa         ....  1.245000
   PBE mue parameter    XMuePBE         ....  0.219520
 Correlation Functional Correlation     .... PBE
   PBE beta parameter  CBetaPBE         ....  0.066725
 LDA part of GGA corr.  LDAOpt          .... PW91-LDA
 Gradients option       PostSCFGGA      .... off
   Density functional embedding theory  .... OFF
   NL short-range parameter             ....  3.700000
 RI-approximation to the Coulomb term is turned on
   Number of auxiliary basis functions  .... 284


General Settings:
 Integral files         IntName         .... opt
 Hartree-Fock type      HFTyp           .... RHF
 Total Charge           Charge          ....    0
 Multiplicity           Mult            ....    1
 Number of Electrons    NEL             ....   34
 Basis Dimension        Dim             ....   96
 Nuclear Repulsion      ENuc            ....    130.2057716993 Eh

Convergence Acceleration:
 DIIS                   CNVDIIS         .... on
   Start iteration      DIISMaxIt       ....    12
   Startup error        DIISStart       ....  0.200000
   # of expansion vecs  DIISMaxEq       ....     5
   Bias factor          DIISBfac        ....   1.050
   Max. coefficient     DIISMaxC        ....  10.000
 Newton-Raphson         CNVNR           .... off
 SOSCF                  CNVSOSCF        .... on
   Start iteration      SOSCFMaxIt      ....   150
   Startup grad/error   SOSCFStart      ....  0.003300
 Level Shifting         CNVShift        .... on
   Level shift para.    LevelShift      ....    0.2500
   Turn off err/grad.   ShiftErr        ....    0.0010
 Zerner damping         CNVZerner       .... off
 Static damping         CNVDamp         .... on
   Fraction old density DampFac         ....    0.7000
   Max. Damping (<1)    DampMax         ....    0.9800
   Min. Damping (>=0)   DampMin         ....    0.0000
   Turn off err/grad.   DampErr         ....    0.1000
 Fernandez-Rico         CNVRico         .... off

SCF Procedure:
 Maximum # iterations   MaxIter         ....   125
 SCF integral mode      SCFMode         .... Direct
   Integral package                     .... LIBINT
 Reset frequency        DirectResetFreq ....    20
 Integral Threshold     Thresh          ....  2.500e-11 Eh
 Primitive CutOff       TCut            ....  2.500e-12 Eh

Convergence Tolerance:
 Convergence Check Mode ConvCheckMode   .... Total+1el-Energy
 Convergence forced     ConvForced      .... 0
 Energy Change          TolE            ....  1.000e-08 Eh
 1-El. energy change                    ....  1.000e-05 Eh
 Orbital Gradient       TolG            ....  1.000e-05
 Orbital Rotation angle TolX            ....  1.000e-05
 DIIS Error             TolErr          ....  5.000e-07


Diagonalization of the overlap matrix:
Smallest eigenvalue                        ... 2.459e-03
Time for diagonalization                   ...    0.002 sec
Threshold for overlap eigenvalues          ... 1.000e-08
Number of eigenvalues below threshold      ... 0
Time for construction of square roots      ...    0.002 sec
Total time needed                          ...    0.004 sec

-------------------
DFT GRID GENERATION
-------------------

General Integration Accuracy     IntAcc      ...  4.670
Radial Grid Type                 RadialGrid  ... Gauss-Chebyshev
Angular Grid (max. acc.)         AngularGrid ... Lebedev-302
Angular grid pruning method      GridPruning ... 3 (G Style)
Weight generation scheme         WeightScheme... Becke
Basis function cutoff            BFCut       ...    1.0000e-11
Integration weight cutoff        WCut        ...    1.0000e-14
Grids for H and He will be reduced by one unit

# of grid points (after initial pruning)     ...  52000 (   0.0 sec)
# of grid points (after weights+screening)   ...  48479 (   0.0 sec)
nearest neighbour list constructed           ...    0.0 sec
Grid point re-assignment to atoms done       ...    0.0 sec
Grid point division into batches done        ...    0.2 sec
Reduced shell lists constructed in    0.2 sec

Total number of grid points                  ...    48479
Total number of batches                      ...      762
Average number of points per batch           ...       63
Average number of grid points per atom       ...     4040
Average number of shells per batch           ...    39.82 (82.97%)
Average number of basis functions per batch  ...    79.25 (82.55%)
Average number of large shells per batch     ...    34.41 (86.41%)
Average number of large basis fcns per batch ...    67.48 (85.16%)
Maximum spatial batch extension              ...  12.02,  9.16, 15.77 au
Average spatial batch extension              ...   0.21,  0.19,  0.23 au

Time for grid setup =    0.255 sec

------------------------------
INITIAL GUESS: MODEL POTENTIAL
------------------------------
Loading Hartree-Fock densities                     ... done
Calculating cut-offs                               ... done
Setting up the integral package                    ... done
Initializing the effective Hamiltonian             ... done
Starting the Coulomb interaction                   ... done (   0.0 sec)
Reading the grid                                   ... done
Mapping shells                                     ... done
Starting the XC term evaluation                    ... done (   0.1 sec)
  promolecular density results
     # of electrons  =     33.996150530
     EX              =    -26.004883708
     EC              =     -1.097477233
     EX+EC           =    -27.102360941
Transforming the Hamiltonian                       ... done (   0.0 sec)
Diagonalizing the Hamiltonian                      ... done (   0.0 sec)
Back transforming the eigenvectors                 ... done (   0.0 sec)
Now organizing SCF variables                       ... done
                      ------------------
                      INITIAL GUESS DONE (   0.4 sec)
                      ------------------
----------------------
INITIAL GUESS ORBITALS
----------------------
                      0         1         2         3         4         5   
                 -18.95786 -10.08097 -10.07629 -10.07028  -1.05228  -0.83717
                   2.00000   2.00000   2.00000   2.00000   2.00000   2.00000
                  --------  --------  --------  --------  --------  --------
  0C   1s        -0.000096 -0.001067 -0.002088  0.987785  0.100590 -0.096397
  0C   2s         0.000785 -0.001439 -0.001935  0.050995 -0.201150  0.195493
  0C   3s        -0.023421  0.004515  0.014920 -0.033938 -0.010323  0.039579
  0C   1pz       -0.000072  0.000005  0.000318  0.000223 -0.000427 -0.015642
  0C   1px       -0.000381  0.000144  0.000185 -0.000857 -0.113279 -0.048883
  0C   1py       -0.000424  0.000053  0.001566  0.000906 -0.024504 -0.084838
  0C   2pz        0.000826 -0.000207 -0.001052  0.000305 -0.000339 -0.004559
  0C   2px       -0.007121 -0.003878 -0.001106  0.006479 -0.019134 -0.017705
  0C   2py        0.002568 -0.001757 -0.005274  0.002745 -0.005590 -0.025488
  0C   1dz2      -0.000371 -0.000071  0.000601  0.000583  0.011119 -0.002440
  0C   1dxz      -0.000039  0.000025 -0.000043 -0.000006 -0.000760  0.000202
  0C   1dyz       0.000005  0.000022 -0.000480 -0.000312 -0.000901  0.002439
  0C   1dx2y2     0.000611 -0.000005  0.001206  0.000458 -0.013072 -0.007082
  0C   1dxy       0.000059  0.000143 -0.000192 -0.000148 -0.010107  0.000488
  1O   1s         0.988615 -0.000025 -0.000011 -0.000092 -0.275664 -0.053378
  1O   2s        -0.042363 -0.000322 -0.000064  0.000788 -0.570219 -0.117747
  1O   3s         0.028654  0.001740 -0.000597 -0.004593 -0.282083 -0.054209
  1O   1pz       -0.000286 -0.000007  0.000010  0.000016 -0.014257 -0.009753
  1O   1px        0.001476  0.000071  0.000060  0.000590  0.090332 -0.031773
  1O   1py       -0.001106 -0.000017  0.000061  0.000192 -0.051669 -0.053607
  1O   2pz       -0.000149  0.000047 -0.000134 -0.000327  0.000222 -0.003020
  1O   2px       -0.006985 -0.000706 -0.000034  0.004823  0.028175 -0.021292
  1O   2py       -0.002098  0.000085 -0.000652 -0.000638  0.006635 -0.018802
  1O   1dz2       0.000313 -0.000025 -0.000050  0.001036  0.005575 -0.000556
  1O   1dxz      -0.000034 -0.000001  0.000011  0.000036  0.000240  0.000249
  1O   1dyz      -0.000304  0.000009  0.000036 -0.000135 -0.001349 -0.000414
  1O   1dx2y2     0.000896 -0.000001 -0.000089 -0.001087 -0.003094  0.002526
  1O   1dxy      -0.000110  0.000006  0.000056 -0.000399 -0.001403  0.001866
  2H   1s         0.001109 -0.000482 -0.000083 -0.003244 -0.029559  0.050617
  2H   2s         0.002291 -0.001121 -0.000177  0.007978 -0.006351  0.001281
  2H   1pz       -0.000041 -0.000047 -0.000089 -0.001936 -0.004515  0.004619
  2H   1px        0.000625  0.000238 -0.000018 -0.001582 -0.003042  0.002372
  2H   1py       -0.000100  0.000069 -0.000532  0.001194  0.003254 -0.005066
  3H   1s         0.001110 -0.000482 -0.000084 -0.003245 -0.029556  0.050613
  3H   2s         0.002289 -0.001120 -0.000177  0.007980 -0.006389  0.001271
  3H   1pz       -0.000051  0.000052 -0.000129  0.002369  0.005661 -0.006425
  3H   1px        0.000624  0.000243 -0.000019 -0.001405 -0.002621  0.001918
  3H   1py       -0.000098  0.000049 -0.000523  0.000298  0.001140 -0.002767
  4C   1s        -0.000009 -0.003600  0.987746  0.002790  0.022207 -0.196459
  4C   2s        -0.000717 -0.001577  0.052678 -0.000764 -0.044789  0.405429
  4C   3s         0.015204  0.007440 -0.057264  0.001991 -0.006947  0.098565
  4C   1pz        0.000062  0.000025 -0.000206 -0.000320 -0.003864  0.006766
  4C   1px        0.000353  0.001541  0.000972 -0.000337 -0.009685 -0.058975
  4C   1py        0.000371  0.000423 -0.000798 -0.001606 -0.020486  0.020914
  4C   2pz        0.000907 -0.000322 -0.000869  0.000322 -0.001104  0.002850
  4C   2px       -0.003200 -0.002884  0.003554  0.002366  0.003890 -0.027873
  4C   2py        0.003718 -0.002115 -0.003483  0.002012 -0.004479  0.008314
  4C   1dz2      -0.000158  0.000754  0.000924  0.000701  0.001799 -0.006188
  4C   1dxz       0.000056 -0.000026 -0.000067 -0.000086 -0.000322  0.000219
  4C   1dyz       0.000086 -0.000019 -0.000326 -0.000505 -0.000960  0.001853
  4C   1dx2y2    -0.000182 -0.001100  0.000026  0.001199  0.001679  0.001495
  4C   1dxy       0.000292 -0.000597 -0.000644 -0.000435 -0.001867  0.003536
  5H   1s         0.001115 -0.000183  0.000445  0.001495 -0.150722 -0.056476
  5H   2s        -0.000950  0.000506 -0.000172  0.000443  0.003870  0.004512
  5H   1pz       -0.000566  0.000009 -0.000007 -0.000029  0.005353  0.001675
  5H   1px        0.000278 -0.000079  0.000005 -0.000823  0.005811  0.000199
  5H   1py       -0.002703  0.000029 -0.000038 -0.000304  0.027229  0.008197
  6H   1s        -0.000034 -0.000023 -0.002745  0.000056 -0.009365  0.097654
  6H   2s        -0.000040  0.000203  0.009057  0.000549 -0.002237  0.007199
  6H   1pz        0.000240 -0.000002 -0.002625  0.000054 -0.001752  0.012758
  6H   1px        0.000262 -0.000519  0.000932 -0.000023 -0.000136 -0.005812
  6H   1py        0.000207 -0.000023 -0.000361  0.000464 -0.001279  0.002807
  7C   1s        -0.000034  0.987685  0.004339  0.001218  0.003845 -0.162625
  7C   2s         0.000984  0.052555 -0.001789 -0.001689 -0.005738  0.334681
  7C   3s        -0.008385 -0.045715  0.015157  0.008160 -0.003836  0.052788
  7C   1pz        0.000019  0.000013 -0.000002 -0.000054 -0.000171  0.001747
  7C   1px       -0.000046 -0.001087 -0.001622 -0.000009 -0.003448  0.073610
  7C   1py        0.000084 -0.000151 -0.000328 -0.000262 -0.001502  0.022897
  7C   2pz       -0.000397 -0.000394  0.000074  0.000861 -0.001193  0.000180
  7C   2px       -0.003495 -0.002443  0.005319  0.001769  0.000030  0.015941
  7C   2py       -0.002591 -0.002375  0.001408  0.004481 -0.005724  0.003997
  7C   1dz2       0.000051  0.000411  0.000701 -0.000079  0.000246 -0.004307
  7C   1dxz      -0.000018 -0.000014  0.000003  0.000034 -0.000060  0.000204
  7C   1dyz       0.000016  0.000012  0.000019  0.000036  0.000002  0.000089
  7C   1dx2y2    -0.000134 -0.000699 -0.001209 -0.000067 -0.000346  0.006314
  7C   1dxy      -0.000131 -0.000343 -0.000461  0.000180 -0.000442  0.003693
  8H   1s        -0.000035 -0.000023 -0.002745  0.000056 -0.009363  0.097660
  8H   2s        -0.000041  0.000203  0.009056  0.000548 -0.002220  0.007213
  8H   1pz       -0.000157  0.000033  0.002182  0.000138  0.001102 -0.010084
  8H   1px        0.000246 -0.000518  0.001129 -0.000020 -0.000020 -0.006751
  8H   1py        0.000290 -0.000031 -0.001362  0.000447 -0.001873  0.007562
  9H   1s         0.000515 -0.002862 -0.000115 -0.000788 -0.000794  0.083489
  9H   2s         0.000280  0.008533 -0.000148 -0.001653  0.002060  0.007655
  9H   1pz        0.000050 -0.001902  0.000024 -0.000158  0.000025  0.008419
  9H   1px        0.000003 -0.001060  0.000477 -0.000029 -0.000124  0.006598
  9H   1py        0.000148  0.001667  0.000080 -0.000225  0.000279 -0.005920
 10H   1s         0.000515 -0.002862 -0.000115 -0.000789 -0.000794  0.083491
 10H   2s         0.000281  0.008533 -0.000147 -0.001653  0.002062  0.007650
 10H   1pz        0.000013  0.002486 -0.000028  0.000057  0.000098 -0.010570
 10H   1px        0.000001 -0.000880  0.000475 -0.000020 -0.000120  0.005821
 10H   1py        0.000155  0.000753  0.000091 -0.000270  0.000264 -0.001965
 11H   1s        -0.000020 -0.003507 -0.000234  0.000375 -0.001818  0.080654
 11H   2s        -0.000106  0.007119 -0.000916  0.000985 -0.002818  0.010478
 11H   1pz       -0.000016 -0.000584 -0.000012  0.000009 -0.000080  0.002396
 11H   1px        0.000223 -0.000082  0.000218 -0.000104 -0.000134  0.002446
 11H   1py       -0.000035 -0.002821 -0.000017  0.000021 -0.000408  0.011986
                      6         7         8         9        10        11   
                  -0.72720  -0.64477  -0.57566  -0.54600  -0.51457  -0.48325
                   2.00000   2.00000   2.00000   2.00000   2.00000   2.00000
                  --------  --------  --------  --------  --------  --------
  0C   1s        -0.165999 -0.128885 -0.026554  0.000014 -0.021477 -0.000019
  0C   2s         0.361926  0.288083  0.057591 -0.000021  0.050485  0.000048
  0C   3s         0.039668 -0.016171  0.010567 -0.000067  0.034564  0.000069
  0C   1pz       -0.009591  0.028278  0.025207 -0.286643  0.050786 -0.280863
  0C   1px       -0.020718 -0.043005 -0.294892 -0.011093  0.090712 -0.011083
  0C   1py       -0.050389  0.127162  0.066590  0.059444  0.261990  0.058035
  0C   2pz       -0.001708  0.015096  0.013910 -0.105124  0.019799 -0.118561
  0C   2px       -0.003477 -0.030985 -0.071649 -0.004104  0.050930 -0.004717
  0C   2py       -0.009040  0.066292  0.054177  0.021776  0.105403  0.024507
  0C   1dz2      -0.001212  0.002916  0.009817  0.000926  0.000661 -0.003750
  0C   1dxz      -0.000929  0.000227  0.003274  0.000724  0.000814 -0.004278
  0C   1dyz       0.001006 -0.002957 -0.000019  0.002656 -0.001615 -0.010725
  0C   1dx2y2    -0.001608  0.008234 -0.018840  0.000644  0.005284 -0.002499
  0C   1dxy      -0.004360  0.001571  0.008768 -0.000050  0.004700  0.000413
  1O   1s        -0.067553 -0.045534 -0.027563 -0.000045 -0.054563 -0.000158
  1O   2s        -0.149389 -0.104609 -0.063792 -0.000088 -0.114715 -0.000329
  1O   3s        -0.082502 -0.038488 -0.070950 -0.000098 -0.147542 -0.000466
  1O   1pz       -0.020171  0.000001  0.073362 -0.161094  0.040523 -0.257817
  1O   1px       -0.128239 -0.147037  0.223821 -0.007258 -0.263655 -0.011119
  1O   1py       -0.123436 -0.029870  0.402375  0.032672  0.143375  0.053522
  1O   2pz       -0.004885  0.003052  0.030982 -0.090900  0.021256 -0.154938
  1O   2px       -0.062742 -0.082369  0.099795 -0.004035 -0.135151 -0.006642
  1O   2py       -0.036137 -0.001850  0.171074  0.018507  0.075790  0.032114
  1O   1dz2      -0.001655 -0.001673 -0.000126 -0.000796 -0.002961 -0.001620
  1O   1dxz       0.000015 -0.001055 -0.000944  0.008496 -0.002368  0.010318
  1O   1dyz      -0.000939 -0.000798  0.002397 -0.000459  0.000253 -0.002280
  1O   1dx2y2     0.006868  0.007255 -0.009680  0.000258  0.005873 -0.000084
  1O   1dxy       0.001945 -0.003105 -0.006411 -0.001781 -0.009244 -0.002249
  2H   1s         0.108225  0.140398  0.119890  0.157039  0.064997  0.169568
  2H   2s         0.016719  0.021924  0.015006  0.021304  0.011958  0.027372
  2H   1pz        0.009309  0.010887  0.008417  0.002690  0.005784  0.002905
  2H   1px        0.004551  0.005491  0.000042  0.005857  0.003372  0.007612
  2H   1py       -0.007731 -0.005537 -0.004907 -0.007653  0.001821 -0.004687
  3H   1s         0.108258  0.140449  0.119146 -0.157535  0.065031 -0.170054
  3H   2s         0.016698  0.021905  0.014954 -0.021343  0.011963 -0.027486
  3H   1pz       -0.011945 -0.012588 -0.009621  0.006002 -0.004826  0.005151
  3H   1px        0.003679  0.004528 -0.000739 -0.005494  0.002932 -0.007278
  3H   1py       -0.003309 -0.000656 -0.001131  0.005854  0.004022  0.003009
  4C   1s        -0.046376  0.158541 -0.030044  0.000074 -0.000435  0.000006
  4C   2s         0.101656 -0.364047  0.066144 -0.000178 -0.000549  0.000001
  4C   3s         0.006965  0.035032  0.071497 -0.000040  0.029077 -0.000069
  4C   1pz        0.021136  0.027003  0.008125 -0.300905 -0.058138  0.122721
  4C   1px        0.111773 -0.092962 -0.096386 -0.012033  0.052680  0.005634
  4C   1py        0.123555  0.111369  0.022156  0.062654 -0.269449 -0.025212
  4C   2pz        0.008919  0.013995  0.006710 -0.131505 -0.023438  0.058360
  4C   2px        0.051194 -0.048433 -0.058799 -0.005306 -0.000898  0.002602
  4C   2py        0.052972  0.057686  0.021492  0.027377 -0.113285 -0.012077
  4C   1dz2       0.000757 -0.005366  0.000083 -0.000835  0.004304 -0.004063
  4C   1dxz      -0.000006 -0.000234 -0.001630 -0.000233  0.001580 -0.008678
  4C   1dyz       0.002631  0.002427  0.000884 -0.002258 -0.001598 -0.012491
  4C   1dx2y2    -0.012871 -0.001937 -0.002567 -0.000499 -0.001325 -0.003061
  4C   1dxy      -0.002716  0.000423 -0.008305 -0.000032  0.005786  0.001255
  5H   1s        -0.116669 -0.061209  0.256805 -0.000329  0.042508  0.000281
  5H   2s        -0.005847 -0.006624  0.041905 -0.000086 -0.009200  0.000039
  5H   1pz        0.003374  0.001932 -0.005749 -0.005447 -0.000291 -0.009357
  5H   1px       -0.002256 -0.005586  0.000724 -0.000250 -0.013154 -0.000421
  5H   1py        0.016004  0.008309 -0.027825  0.001155 -0.004077  0.001894
  6H   1s         0.031335 -0.172965 -0.005535  0.162033  0.092478 -0.074376
  6H   2s         0.003251 -0.025959  0.000231  0.007937  0.009301 -0.005874
  6H   1pz        0.003538 -0.015326 -0.000126  0.006158  0.006255 -0.001891
  6H   1px        0.000823  0.004889 -0.001389 -0.006237 -0.002311  0.004641
  6H   1py        0.002820 -0.001276 -0.001100  0.005576 -0.003897  0.000429
  7C   1s         0.181155 -0.092312  0.033920 -0.000060  0.002368 -0.000014
  7C   2s        -0.393612  0.204191 -0.078478  0.000143 -0.007602  0.000022
  7C   3s        -0.043495 -0.009704 -0.055527  0.000001 -0.019324  0.000044
  7C   1pz        0.004782  0.008114  0.010960 -0.204039 -0.059411  0.332570
  7C   1px        0.028165 -0.142004  0.093319 -0.008658  0.080290  0.012959
  7C   1py        0.028518  0.011002  0.072120  0.042267 -0.270092 -0.069140
  7C   2pz        0.002491  0.004730  0.006801 -0.072621 -0.020527  0.137661
  7C   2px        0.023166 -0.068307  0.016661 -0.003069  0.025734  0.005401
  7C   2py        0.016501  0.009273  0.036285  0.014998 -0.093580 -0.028618
  7C   1dz2      -0.000621  0.004110 -0.001563 -0.001643 -0.005222  0.002641
  7C   1dxz       0.000413  0.000582  0.000410 -0.004841 -0.001320 -0.003440
  7C   1dyz       0.000196  0.000152 -0.000080 -0.005315  0.002250  0.006271
  7C   1dx2y2    -0.000266 -0.007817  0.002429 -0.001355 -0.000329  0.001218
  7C   1dxy       0.002145 -0.000144  0.003012  0.000766 -0.004523  0.000993
  8H   1s         0.031335 -0.172959 -0.005964 -0.162008  0.092585  0.074577
  8H   2s         0.003269 -0.025957  0.000200 -0.007914  0.009263  0.005889
  8H   1pz       -0.002175  0.013114 -0.000206  0.002914 -0.007090 -0.001542
  8H   1px        0.000588  0.006056 -0.001376  0.006624 -0.002861 -0.004758
  8H   1py        0.004010 -0.007195 -0.001106 -0.007455 -0.001118  0.000312
  9H   1s        -0.124389  0.111236 -0.038545  0.113564 -0.099366 -0.204492
  9H   2s        -0.019772  0.014320 -0.008767  0.015393 -0.011729 -0.030968
  9H   1pz       -0.010810  0.008267 -0.003072  0.002198 -0.007665 -0.003206
  9H   1px       -0.006336  0.002708  0.000327  0.006115 -0.002548 -0.007772
  9H   1py        0.008612 -0.006094  0.003782 -0.003570 -0.002842  0.007600
 10H   1s        -0.124393  0.111237 -0.038782 -0.113384 -0.099233  0.205042
 10H   2s        -0.019782  0.014329 -0.008808 -0.015306 -0.011684  0.031083
 10H   1pz        0.013807 -0.010196  0.004296  0.003890  0.006067 -0.006609
 10H   1px       -0.005327  0.001951  0.000614 -0.005872 -0.001980  0.007361
 10H   1py        0.003485 -0.002249  0.002253  0.002284 -0.005708 -0.005568
 11H   1s        -0.137912  0.077591 -0.078948  0.000218  0.185869 -0.000014
 11H   2s        -0.011118  0.025069  0.000189  0.000016  0.030466  0.000002
 11H   1pz       -0.003183  0.001869 -0.001264 -0.005038  0.001696  0.009015
 11H   1px       -0.000722 -0.002537  0.001435 -0.000211  0.004951  0.000352
 11H   1py       -0.015422  0.008475 -0.005758  0.001064  0.009096 -0.001874
                     12        13        14        15        16        17   
                  -0.45938  -0.45232  -0.41879  -0.40554  -0.35386  -0.02511
                   2.00000   2.00000   2.00000   2.00000   2.00000   0.00000
                  --------  --------  --------  --------  --------  --------
  0C   1s        -0.029646 -0.019114  0.000070  0.018044 -0.000002 -0.025642
  0C   2s         0.066657  0.045308 -0.000212 -0.059276 -0.000038  0.042714
  0C   3s         0.079016  0.077678 -0.000026  0.032061  0.000239  0.851630
  0C   1pz       -0.013451 -0.001514  0.089064  0.069683  0.245392  0.012112
  0C   1px       -0.151599 -0.146297  0.003258 -0.122582  0.009993 -0.272969
  0C   1py       -0.095940 -0.033276 -0.017517  0.315762 -0.050554  0.006273
  0C   2pz       -0.009833 -0.008823  0.010178  0.020217  0.043439  0.001279
  0C   2px       -0.034528 -0.044218  0.000244 -0.060383  0.001644 -0.497034
  0C   2py       -0.054641 -0.050109 -0.001755  0.086451 -0.009100 -0.087513
  0C   1dz2       0.008058  0.005186  0.005552  0.010746  0.004321 -0.015520
  0C   1dxz      -0.002111 -0.001519  0.004094 -0.003540 -0.032556  0.002880
  0C   1dyz       0.001051 -0.002280  0.015419 -0.005257  0.004971  0.000052
  0C   1dx2y2    -0.015550  0.003259  0.003521  0.009198 -0.000158  0.022030
  0C   1dxy      -0.015872 -0.008622 -0.000212 -0.019291  0.006957  0.023633
  1O   1s         0.000377  0.053424  0.000131  0.044893 -0.000019  0.106482
  1O   2s        -0.004100  0.113416  0.000257  0.090261 -0.000051  0.239750
  1O   3s        -0.005309  0.147398  0.000473  0.158150  0.000014  0.679487
  1O   1pz       -0.004602 -0.058843  0.190332 -0.062395 -0.563287  0.040990
  1O   1px        0.256065  0.246606  0.008371  0.194426 -0.022885 -0.119658
  1O   1py        0.028681 -0.234877 -0.039834 -0.262694  0.115749  0.176019
  1O   2pz       -0.004842 -0.030956  0.124129 -0.034022 -0.374844  0.050090
  1O   2px        0.141084  0.144153  0.005411  0.115287 -0.015260 -0.115715
  1O   2py        0.004600 -0.120494 -0.025899 -0.141029  0.077020  0.220782
  1O   1dz2       0.001245  0.004057  0.001424  0.004159 -0.002501  0.001695
  1O   1dxz       0.001213  0.001508 -0.005265  0.000001  0.002407 -0.001636
  1O   1dyz       0.000611 -0.001770  0.002737 -0.002499 -0.006264 -0.001213
  1O   1dx2y2    -0.005897 -0.000014  0.000393  0.004525 -0.001247  0.004339
  1O   1dxy       0.004334  0.005767  0.001210 -0.000698 -0.000768 -0.007750
  2H   1s         0.059353  0.060717 -0.074867  0.153277 -0.243855 -0.070095
  2H   2s         0.015549  0.009824 -0.044815  0.052045 -0.101275 -0.490471
  2H   1pz        0.003565  0.004206 -0.000864  0.010804 -0.002753  0.007852
  2H   1px       -0.001311 -0.001159 -0.003086  0.001053 -0.003681 -0.011214
  2H   1py       -0.003107 -0.002706  0.001099  0.002743  0.008320 -0.011806
  3H   1s         0.059698  0.059952  0.075742  0.151644  0.244402 -0.069718
  3H   2s         0.015634  0.009678  0.045108  0.051382  0.101497 -0.488581
  3H   1pz       -0.004403 -0.004807 -0.001518 -0.008824 -0.006150 -0.010967
  3H   1px       -0.001627 -0.001553  0.002992  0.000201  0.003321 -0.011984
  3H   1py       -0.001461 -0.000803 -0.000575  0.006871 -0.006446 -0.007853
  4C   1s         0.014266  0.021646  0.000036  0.024058  0.000096 -0.012003
  4C   2s        -0.038096 -0.044934 -0.000120 -0.063396 -0.000214  0.033955
  4C   3s        -0.039531 -0.103252 -0.000175 -0.126953 -0.000671 -0.037582
  4C   1pz        0.003435  0.015420 -0.350142 -0.069365 -0.070515 -0.007190
  4C   1px        0.364692 -0.225705 -0.013957  0.039620 -0.003030 -0.064574
  4C   1py        0.088127  0.030346  0.071853 -0.331265  0.014052 -0.046890
  4C   2pz       -0.003953 -0.000934 -0.119022 -0.030066  0.041512 -0.057733
  4C   2px        0.134392 -0.063668 -0.004601  0.068144  0.001813 -0.215626
  4C   2py        0.007355 -0.016622  0.024436 -0.132467 -0.009015 -0.319487
  4C   1dz2       0.005450 -0.007281  0.005281  0.007596  0.004647  0.004212
  4C   1dxz       0.000372  0.001621 -0.019186 -0.002241 -0.003983 -0.004393
  4C   1dyz       0.000971  0.003158  0.010112 -0.004219  0.011513  0.003017
  4C   1dx2y2    -0.013339 -0.003988  0.001469  0.008377  0.002368 -0.016070
  4C   1dxy      -0.002713  0.009732  0.004411 -0.012151  0.001344 -0.025572
  5H   1s         0.047708 -0.118109 -0.000445 -0.158753  0.000049 -0.217636
  5H   2s         0.023911 -0.015329 -0.000095 -0.033241  0.000018 -0.816675
  5H   1pz       -0.001342  0.001607  0.007328  0.002375 -0.020273 -0.002098
  5H   1px        0.009220  0.010943  0.000327  0.005873 -0.000812 -0.006162
  5H   1py       -0.004704  0.010114 -0.001465  0.012871  0.004157 -0.011496
  6H   1s         0.086268 -0.115342  0.264689  0.115793  0.081660  0.053947
  6H   2s         0.023005 -0.022331  0.080280  0.052606  0.078589  0.020047
  6H   1pz        0.006429 -0.008371  0.006785  0.006222  0.002128  0.000061
  6H   1px        0.005616 -0.002755 -0.007538 -0.001944 -0.002112 -0.003137
  6H   1py        0.003423 -0.000145  0.006127 -0.006574  0.002653 -0.007182
  7C   1s         0.013682 -0.004863  0.000033  0.004168 -0.000023  0.054345
  7C   2s        -0.042187  0.013563 -0.000109 -0.015965  0.000056 -0.144379
  7C   3s         0.003447  0.028046  0.000157  0.072388  0.000294 -0.556207
  7C   1pz       -0.036860 -0.063686  0.287045  0.035932 -0.007368  0.007845
  7C   1px       -0.341386  0.255837  0.011385 -0.032806 -0.000128 -0.129521
  7C   1py       -0.242867 -0.258863 -0.059096  0.169359  0.001754  0.012688
  7C   2pz       -0.013315 -0.022345  0.092821  0.015142 -0.030169  0.037074
  7C   2px       -0.122645  0.106766  0.003757  0.023087 -0.001060 -0.221912
  7C   2py       -0.087496 -0.087658 -0.019024  0.077918  0.006389  0.135026
  7C   1dz2       0.001927 -0.010496  0.003788  0.004995  0.000645 -0.008345
  7C   1dxz       0.000089  0.001047 -0.020793 -0.002147 -0.003360  0.000456
  7C   1dyz       0.002118  0.004705  0.005863 -0.003518  0.001032  0.003363
  7C   1dx2y2    -0.012573 -0.004969  0.000493  0.009587  0.000110 -0.001954
  7C   1dxy      -0.002658  0.007920  0.004568 -0.010579  0.000731  0.004798
  8H   1s         0.086324 -0.115534 -0.263730  0.117653 -0.081507  0.054164
  8H   2s         0.023011 -0.022366 -0.079929  0.053324 -0.078383  0.020519
  8H   1pz       -0.004953  0.007810  0.003100 -0.008173  0.000711 -0.002668
  8H   1px        0.005151 -0.002093  0.007934 -0.002593  0.002220 -0.003252
  8H   1py        0.005797 -0.003527 -0.008214 -0.003530 -0.003260 -0.006630
  9H   1s         0.038011 -0.170322 -0.222469  0.075138 -0.006684 -0.019170
  9H   2s         0.012741 -0.044395 -0.073978  0.025616 -0.028976  0.052347
  9H   1pz        0.001605 -0.012055 -0.002408  0.005323 -0.000099  0.001766
  9H   1px       -0.006306  0.000240 -0.006142  0.000431 -0.000655 -0.005078
  9H   1py       -0.008592 -0.000478  0.007305  0.003024 -0.000609 -0.000296
 10H   1s         0.037646 -0.169421  0.223169  0.074027  0.006782 -0.019151
 10H   2s         0.012676 -0.044225  0.074213  0.025105  0.028993  0.052737
 10H   1pz       -0.004384  0.010780 -0.005633 -0.003668  0.000099 -0.001325
 10H   1px       -0.006564  0.001205  0.005808  0.000032  0.000663 -0.005208
 10H   1py       -0.007333 -0.005265 -0.005606  0.004926  0.000625  0.000358
 11H   1s         0.213658  0.202399 -0.000603 -0.164918 -0.000223  0.057505
 11H   2s         0.053454  0.048305 -0.000178 -0.058559 -0.000128  0.345880
 11H   1pz        0.002541  0.001238  0.009767 -0.001295  0.000324 -0.000622
 11H   1px       -0.006745  0.007475  0.000390 -0.001103  0.000018 -0.004418
 11H   1py        0.010908  0.007315 -0.002056 -0.006310 -0.000077 -0.003846
                     18        19        20        21        22        23   
                  -0.01702   0.01569   0.02876   0.04518   0.06047   0.06689
                   0.00000   0.00000   0.00000   0.00000   0.00000   0.00000
                  --------  --------  --------  --------  --------  --------
  0C   1s         0.069138  0.000121  0.002093 -0.008102  0.135584 -0.000670
  0C   2s        -0.189990 -0.000311  0.021749  0.049455 -0.354805  0.001859
  0C   3s        -0.555100 -0.001866 -0.378796  0.091279 -1.662557  0.006267
  0C   1pz       -0.027517 -0.236424 -0.030676 -0.000135 -0.000451 -0.091461
  0C   1px        0.008942 -0.009209  0.091299 -0.109671  0.090407 -0.003444
  0C   1py       -0.131351  0.049153 -0.129036 -0.024433  0.020780  0.019841
  0C   2pz       -0.083158 -0.424738 -0.054151  0.027283  0.018320 -0.182228
  0C   2px        0.062963 -0.016070  0.256360 -0.522789  0.135539 -0.006518
  0C   2py       -0.389448  0.088254 -0.208436  0.021761  0.127995  0.040112
  0C   1dz2       0.004662  0.007665  0.011703 -0.018140 -0.002367  0.010051
  0C   1dxz       0.001257 -0.005508 -0.000924 -0.001700 -0.001463 -0.004318
  0C   1dyz      -0.005436  0.019127 -0.003482  0.005207  0.002064  0.025756
  0C   1dx2y2     0.015389  0.003907 -0.002358  0.007473 -0.003509  0.005330
  0C   1dxy       0.007219  0.001989 -0.008991 -0.000440 -0.006515  0.002066
  1O   1s         0.011283 -0.000051  0.018728 -0.009439  0.042813 -0.000323
  1O   2s         0.022232 -0.000115  0.047431 -0.026037  0.083659 -0.000684
  1O   3s         0.092712 -0.000428  0.087452  0.008425  0.406629 -0.002800
  1O   1pz        0.004350  0.008886  0.016820 -0.037693  0.024710 -0.014109
  1O   1px       -0.113686  0.000581  0.048911 -0.096095 -0.034662  0.000240
  1O   1py       -0.001717 -0.001641  0.091463 -0.201589  0.112858  0.002418
  1O   2pz        0.007207  0.050112  0.025725 -0.046868  0.027690  0.017277
  1O   2px       -0.120718  0.002424  0.055393 -0.197288 -0.070501  0.001902
  1O   2py        0.010827 -0.010112  0.135708 -0.265905  0.119280 -0.004136
  1O   1dz2       0.003232  0.000526  0.000450 -0.003592  0.002742  0.000594
  1O   1dxz       0.000535  0.005346  0.000884  0.000343 -0.000508  0.001674
  1O   1dyz      -0.000121  0.002431 -0.000846  0.001849 -0.000209  0.001965
  1O   1dx2y2    -0.005200  0.000740  0.002232 -0.002934 -0.002765  0.000537
  1O   1dxy       0.000439 -0.001006  0.004476  0.002449 -0.004096 -0.000255
  2H   1s         0.030857 -0.097201  0.072175 -0.068272  0.083571 -0.117926
  2H   2s         0.483283 -0.643703  0.390761 -0.268571  0.899934 -0.363252
  2H   1pz       -0.010166  0.003993 -0.007295  0.008511 -0.006027 -0.001132
  2H   1px       -0.008474  0.005283 -0.002502 -0.004819 -0.009435 -0.004966
  2H   1py       -0.005253 -0.008133 -0.001877  0.002128  0.009911 -0.012173
  3H   1s         0.030702  0.097557  0.072321 -0.068699  0.084754  0.116995
  3H   2s         0.482430  0.646800  0.391332 -0.271352  0.906975  0.354025
  3H   1pz        0.007856  0.007354  0.006123 -0.006574  0.010252  0.003334
  3H   1px       -0.007732 -0.004800 -0.001937 -0.005452 -0.008749  0.005222
  3H   1py       -0.009009  0.005785 -0.004647  0.005214  0.006644  0.011716
  4C   1s         0.084057  0.000052 -0.063966 -0.086174 -0.048081 -0.000014
  4C   2s        -0.224888 -0.000097  0.129277  0.212192  0.115044 -0.000045
  4C   3s        -1.087524 -0.000986  1.207556  1.398440  0.637265  0.002689
  4C   1pz        0.018701 -0.266923 -0.037304 -0.032691  0.008461 -0.238499
  4C   1px       -0.095708 -0.010837  0.065982  0.014724  0.234595 -0.010725
  4C   1py        0.070271  0.055801 -0.166426 -0.152264  0.087309  0.049673
  4C   2pz        0.037563 -0.554256 -0.054102 -0.118643  0.029058 -0.743833
  4C   2px       -0.322097 -0.022554 -0.131393  0.190426  0.739202 -0.034022
  4C   2py        0.117537  0.116170 -0.285190 -0.529013  0.288364  0.155044
  4C   1dz2       0.013896 -0.008900 -0.001782 -0.014405 -0.004976 -0.009392
  4C   1dxz      -0.000554  0.024194  0.005691 -0.002526 -0.002723 -0.009876
  4C   1dyz      -0.003700 -0.018864  0.002688  0.008055 -0.003923 -0.026857
  4C   1dx2y2    -0.005297 -0.003117 -0.014545 -0.010014  0.027323 -0.006280
  4C   1dxy      -0.008548 -0.005864  0.025239 -0.009168 -0.005593  0.000905
  5H   1s         0.019521 -0.000156 -0.071442  0.149526 -0.111056  0.000304
  5H   2s         0.052652 -0.000431 -0.337328  0.677839 -0.507744  0.001921
  5H   1pz        0.000623  0.003647 -0.001043  0.002014 -0.000944  0.002668
  5H   1px       -0.003033  0.000153  0.005113  0.001105 -0.009258  0.000168
  5H   1py        0.002486 -0.000764 -0.004034  0.010074 -0.006622 -0.000522
  6H   1s         0.074692 -0.179761 -0.094101 -0.095108 -0.040194 -0.083216
  6H   2s         0.662904 -0.843121 -0.695729 -0.841543 -0.545952 -0.808680
  6H   1pz       -0.011738  0.006883  0.006989  0.011155  0.008746  0.007068
  6H   1px       -0.002124 -0.007211 -0.008624 -0.005732  0.006924  0.003078
  6H   1py        0.000384  0.004321  0.001572 -0.008838  0.008357  0.012000
  7C   1s         0.109311 -0.000055  0.048533  0.097410 -0.041610  0.000333
  7C   2s        -0.280293  0.000095 -0.097684 -0.219399  0.097318 -0.000541
  7C   3s        -1.277650  0.000937 -1.020900 -1.396373  0.802758 -0.008536
  7C   1pz        0.000202 -0.246864 -0.064106  0.029654  0.038007  0.364967
  7C   1px        0.115538 -0.009841  0.079962 -0.013707  0.059617  0.014985
  7C   1py        0.023016  0.051337 -0.293725  0.143369  0.186293 -0.075873
  7C   2pz        0.000721 -0.444570 -0.145118  0.092513  0.118424  1.068131
  7C   2px        0.357103 -0.017635  0.004891 -0.193803  0.254955  0.042234
  7C   2py        0.072079  0.092451 -0.700734  0.414084  0.597747 -0.223718
  7C   1dz2       0.008075  0.003549  0.014393 -0.016636 -0.012967 -0.011556
  7C   1dxz       0.000955 -0.023302 -0.003209 -0.001358  0.002181  0.015475
  7C   1dyz       0.000473  0.004738 -0.009510  0.006697  0.010008 -0.027681
  7C   1dx2y2    -0.015946  0.000111  0.022045 -0.001638 -0.026007 -0.005312
  7C   1dxy      -0.001333  0.005077 -0.016459 -0.000537  0.009524 -0.004487
  8H   1s         0.074709  0.179797 -0.094116 -0.094843 -0.040270  0.083288
  8H   2s         0.662462  0.844032 -0.695763 -0.839435 -0.544931  0.811255
  8H   1pz        0.011043  0.004039 -0.005088 -0.013245 -0.005224  0.001942
  8H   1px       -0.001202  0.007668 -0.009139 -0.006678  0.006264 -0.002753
  8H   1py       -0.004342 -0.006557  0.004073 -0.003743  0.011182 -0.013931
  9H   1s         0.057488 -0.117719  0.122672 -0.000403 -0.094850  0.197965
  9H   2s         0.658791 -0.674970  0.850134  0.284062 -0.496944  1.260107
  9H   1pz       -0.010220  0.004288 -0.011816  0.003028  0.009437 -0.003901
  9H   1px        0.002805  0.008162 -0.006518 -0.009384  0.009010 -0.008479
  9H   1py        0.010066 -0.006937 -0.000610  0.007800  0.009987  0.014088
 10H   1s         0.057467  0.117797  0.122309  0.000355 -0.096791 -0.197104
 10H   2s         0.657918  0.675018  0.847782  0.288683 -0.507716 -1.254617
 10H   1pz        0.013122  0.007351  0.011054  0.001110 -0.005429 -0.009797
 10H   1px        0.003767 -0.007658 -0.005569 -0.009518  0.008513  0.007846
 10H   1py        0.005202  0.004515 -0.005387  0.008222  0.013012 -0.011320
 11H   1s         0.098245 -0.000027 -0.165521  0.123447  0.217086 -0.000486
 11H   2s         0.680954 -0.000399 -0.775114  1.132444  0.627576  0.001784
 11H   1pz       -0.002444 -0.004457  0.001725 -0.003125 -0.001232  0.020157
 11H   1px        0.002959 -0.000175  0.004321 -0.001644 -0.004049  0.000831
 11H   1py       -0.011156  0.000936  0.009093 -0.015237 -0.007046 -0.004225
                     24        25        26        27        28        29   
                   0.07350   0.07882   0.08455   0.10996   0.30207   0.31851
                   0.00000   0.00000   0.00000   0.00000   0.00000   0.00000
                  --------  --------  --------  --------  --------  --------
  0C   1s        -0.089210 -0.000499  0.066865  0.093244  0.000017  0.018084
  0C   2s         0.247764  0.001288 -0.155371 -0.222253 -0.000312 -0.021395
  0C   3s         0.671988  0.005668 -1.506911 -1.788817  0.002465 -0.867537
  0C   1pz        0.044052  0.402645  0.038600  0.078528  0.022099  0.013996
  0C   1px        0.302391  0.018197  0.094276 -0.257885  0.001272 -0.267348
  0C   1py        0.282620 -0.082463  0.195292  0.327806 -0.004588  0.014276
  0C   2pz        0.111896  1.049199  0.136924  0.307436  0.070962  0.016796
  0C   2px        0.659495  0.045096  0.659914 -0.673501  0.002045  0.781496
  0C   2py        0.697715 -0.215810  0.765441  1.347326 -0.015252  0.234268
  0C   1dz2       0.011856 -0.004240  0.003137 -0.040406 -0.020703  0.006270
  0C   1dxz      -0.000000  0.019748  0.005186 -0.001862  0.011715  0.001947
  0C   1dyz       0.005109 -0.007495  0.001456  0.016482 -0.052542 -0.006623
  0C   1dx2y2    -0.041815 -0.001058 -0.016623 -0.006552 -0.010971  0.017054
  0C   1dxy      -0.011475 -0.004634  0.020218  0.004369 -0.004812  0.010261
  1O   1s        -0.050862 -0.000183  0.011071  0.037096 -0.000070  0.039634
  1O   2s        -0.109165 -0.000462  0.042664  0.057627 -0.000237  0.167508
  1O   3s        -0.441901 -0.000722 -0.126794  0.520957  0.000110 -0.321177
  1O   1pz        0.014924 -0.091102 -0.014133 -0.017475 -0.038702 -0.021244
  1O   1px        0.326000 -0.001922  0.045073 -0.153967 -0.001470 -0.081375
  1O   1py        0.134522  0.020572 -0.056447 -0.114964  0.008235 -0.117906
  1O   2pz        0.016353 -0.143581 -0.014366 -0.043492 -0.026530  0.008147
  1O   2px        0.455473 -0.003553  0.106623 -0.278184 -0.001007  0.037971
  1O   2py        0.166202  0.031652 -0.044028 -0.264998  0.005396  0.047146
  1O   1dz2      -0.004565 -0.002537  0.005062 -0.002950 -0.002341  0.011641
  1O   1dxz      -0.001128 -0.011090 -0.002098 -0.003254 -0.001979 -0.001021
  1O   1dyz      -0.001504 -0.008802 -0.003370  0.003244 -0.006559 -0.002783
  1O   1dx2y2     0.015512 -0.002291  0.008721 -0.006525 -0.001508 -0.005382
  1O   1dxy      -0.001147  0.001937 -0.009996 -0.015832  0.000132 -0.010068
  2H   1s        -0.021777  0.123129  0.018789 -0.125325  0.247953  0.085709
  2H   2s        -0.488669  1.287569  0.367413 -0.289693 -0.083943  0.176660
  2H   1pz        0.002061 -0.006303 -0.005172  0.021639  0.011883 -0.002465
  2H   1px        0.019248 -0.011740  0.007011 -0.014423  0.002602 -0.000583
  2H   1py        0.008503  0.009958  0.008614  0.006124  0.039918 -0.022015
  3H   1s        -0.020771 -0.122973  0.017647 -0.125053 -0.248121  0.085066
  3H   2s        -0.475103 -1.292629  0.355955 -0.288207  0.083211  0.176774
  3H   1pz        0.000099 -0.010662  0.007505 -0.016188 -0.004795 -0.006483
  3H   1px        0.019020  0.011180  0.007620 -0.016003 -0.002316 -0.000777
  3H   1py        0.008971 -0.006354  0.005886  0.014007 -0.041318 -0.021316
  4C   1s        -0.012538  0.000403 -0.126418 -0.042698 -0.000045  0.026452
  4C   2s         0.030442 -0.000891  0.255925  0.070861  0.000688 -0.345759
  4C   3s         0.415719 -0.008218  3.010414  1.135739 -0.002236  0.908353
  4C   1pz        0.026810 -0.265786  0.041138  0.065855 -0.047762 -0.022755
  4C   1px        0.122923 -0.008043 -0.386166  0.112753 -0.002807  0.397740
  4C   1py        0.141172  0.056132  0.125414  0.338077  0.010003 -0.030870
  4C   2pz        0.086819 -0.798559  0.193466  0.280629  0.192189  0.187521
  4C   2px        0.077697 -0.025072 -1.417303  0.810617  0.009568 -0.963386
  4C   2py        0.398053  0.168224  0.663784  1.507236 -0.041246  0.710849
  4C   1dz2      -0.003911  0.001213  0.034261  0.012718  0.026432  0.056043
  4C   1dxz       0.003249  0.027282  0.000294 -0.002981 -0.078779  0.002758
  4C   1dyz      -0.004002  0.008962 -0.011659 -0.011023  0.054698 -0.010910
  4C   1dx2y2     0.020842  0.003243 -0.003073  0.031254  0.008876 -0.043750
  4C   1dxy       0.021631 -0.005116 -0.011947 -0.012867  0.018929 -0.014226
  5H   1s        -0.117647 -0.000559 -0.099069  0.052478  0.000382 -0.049280
  5H   2s        -0.465588 -0.005381 -0.111858  0.142516 -0.000462  0.025255
  5H   1pz       -0.001924 -0.013416  0.000158  0.001595 -0.006386  0.002634
  5H   1px        0.005105 -0.000510 -0.009977 -0.020682 -0.000288 -0.010274
  5H   1py       -0.008809  0.002673 -0.000824  0.003311  0.001268  0.011133
  6H   1s        -0.046478 -0.096774  0.089050  0.055188  0.519297  0.198169
  6H   2s        -0.057786 -0.883598  0.009716  0.001272 -0.411216 -0.159762
  6H   1pz        0.002987  0.006306 -0.006931 -0.002978  0.003022 -0.001787
  6H   1px        0.004875 -0.012592 -0.013097  0.001734  0.040385 -0.037008
  6H   1py        0.007459 -0.000912  0.009504  0.010240 -0.017125  0.010237
  7C   1s         0.030899 -0.000271  0.065349  0.004583 -0.000057  0.043196
  7C   2s        -0.035474  0.000679 -0.100609 -0.041927  0.000501 -0.330444
  7C   3s        -1.036193  0.004619 -1.998853  0.515405  0.000674 -0.264003
  7C   1pz        0.026742 -0.047028  0.010040 -0.044288 -0.141123  0.037402
  7C   1px        0.250103  0.001117 -0.327542  0.158270 -0.005073 -0.350898
  7C   1py        0.180341  0.011068 -0.013846 -0.181530  0.029137  0.111992
  7C   2pz        0.011721 -0.021243 -0.029653 -0.124838  0.465393 -0.134825
  7C   2px        0.383585  0.008041 -1.410997  0.632347  0.017837  0.696177
  7C   2py        0.142803  0.007281 -0.415622 -0.475886 -0.095971 -0.515492
  7C   1dz2       0.014957  0.000452 -0.018758  0.013281 -0.020492  0.077288
  7C   1dxz       0.000211 -0.027385  0.004022  0.006040  0.076644  0.000217
  7C   1dyz      -0.003433 -0.004654 -0.001213 -0.002600 -0.038815 -0.021941
  7C   1dx2y2    -0.008335 -0.002316  0.031570 -0.015470 -0.005372 -0.027157
  7C   1dxy      -0.006560  0.005371  0.032495  0.021228 -0.017691 -0.032288
  8H   1s        -0.048083  0.095626  0.089746  0.055175 -0.519756  0.196495
  8H   2s        -0.073238  0.881980  0.015277  0.000754  0.411914 -0.158118
  8H   1pz       -0.000217  0.005057  0.011180  0.006663  0.012777  0.008652
  8H   1px        0.004587  0.013257 -0.012252  0.002112 -0.039621 -0.036745
  8H   1py        0.008199 -0.001351  0.005763  0.008234  0.013832  0.008113
  9H   1s         0.097408 -0.086009 -0.082628  0.018312  0.514611  0.365497
  9H   2s         0.475619 -0.184103 -0.027017  0.473136 -0.299429 -0.111598
  9H   1pz       -0.008555  0.001336  0.002147 -0.014684  0.017908 -0.025085
  9H   1px        0.004218  0.011707 -0.010506  0.006287 -0.030089  0.034338
  9H   1py        0.002059  0.008582 -0.010821  0.000580  0.003774 -0.015159
 10H   1s         0.097201  0.087514 -0.081510  0.018228 -0.515723  0.363556
 10H   2s         0.478783  0.188198 -0.023549  0.472734  0.299710 -0.110480
 10H   1pz        0.008370 -0.001148 -0.005440  0.013163  0.012485  0.014243
 10H   1px        0.005009 -0.011487 -0.010938  0.007438  0.031215  0.036052
 10H   1py       -0.001294 -0.008510 -0.009289 -0.005202 -0.010052 -0.023384
 11H   1s         0.031044  0.000608 -0.030976  0.040812  0.000188 -0.149894
 11H   2s         0.827861  0.003770  0.208693 -0.651196 -0.000045  0.087122
 11H   1pz       -0.003094  0.004671  0.000992  0.001847  0.039688 -0.003180
 11H   1px        0.007603  0.000337 -0.028580 -0.012212  0.001615  0.004379
 11H   1py       -0.012957 -0.001043 -0.000855  0.006499 -0.008238 -0.014820
                     30        31        32        33        34        35   
                   0.32660   0.33494   0.36029   0.42195   0.45026   0.47402
                   0.00000   0.00000   0.00000   0.00000   0.00000   0.00000
                  --------  --------  --------  --------  --------  --------
  0C   1s        -0.032294 -0.099452 -0.000152  0.128227 -0.062743 -0.007281
  0C   2s         0.403273  0.533086  0.000669 -0.895802  0.566986 -0.189248
  0C   3s        -1.067750 -0.030295 -0.000482  4.646467 -1.412020  1.010712
  0C   1pz       -0.080143  0.014348 -0.110407  0.080821  0.033243 -0.078208
  0C   1px       -0.030112  0.533787 -0.003904 -0.385308 -0.075851 -0.331582
  0C   1py       -0.391506  0.173537  0.023227  0.311286  0.144713 -0.442626
  0C   2pz        0.238360 -0.068770  0.515565 -0.397008 -0.151594  0.146030
  0C   2px       -0.256358 -0.606266  0.020879  0.951394 -0.091614  1.084927
  0C   2py        1.093830 -0.448548 -0.107005 -1.719027 -0.749385  0.916825
  0C   1dz2      -0.052917 -0.025008 -0.030469 -0.026429 -0.018891 -0.010410
  0C   1dxz      -0.000978  0.005953  0.056432  0.013933  0.002282  0.006887
  0C   1dyz       0.031291  0.015051 -0.069517  0.010021  0.007009  0.002329
  0C   1dx2y2    -0.053167 -0.032028 -0.012880 -0.015482 -0.003293 -0.000241
  0C   1dxy       0.004176  0.031825 -0.014874  0.073305  0.017156  0.036671
  1O   1s         0.026009 -0.021566 -0.000111  0.006806  0.065809  0.012712
  1O   2s         0.069722 -0.084798 -0.000323  0.082690  0.223366  0.104892
  1O   3s         0.224817  0.287476 -0.000070 -1.025591  0.135334 -0.747456
  1O   1pz        0.001290 -0.007010 -0.192270  0.020168  0.019428 -0.015414
  1O   1px        0.043373  0.202772 -0.007648 -0.178865 -0.075864  0.053507
  1O   1py        0.016214  0.006144  0.039643  0.063696  0.080846 -0.061404
  1O   2pz       -0.043200  0.020490 -0.045135  0.043119  0.018539 -0.003557
  1O   2px       -0.068488  0.027579 -0.001658  0.338408 -0.145091  0.242505
  1O   2py       -0.221408  0.104773  0.009268  0.274452  0.061314  0.030124
  1O   1dz2      -0.001064 -0.013280 -0.003023  0.046914  0.020030  0.023506
  1O   1dxz      -0.001703 -0.001193 -0.010213 -0.004428 -0.001756 -0.001842
  1O   1dyz      -0.000698 -0.005723 -0.009939 -0.016617 -0.019237 -0.004837
  1O   1dx2y2     0.006655  0.048126 -0.002539  0.003386  0.055878 -0.014214
  1O   1dxy      -0.006538  0.008066  0.001708 -0.037363 -0.005058 -0.019934
  2H   1s        -0.191848 -0.261469  0.534589 -0.021416  0.010020 -0.247922
  2H   2s         0.287619  0.201178 -0.376688 -0.321925  0.516420 -0.098645
  2H   1pz        0.020856  0.017904  0.022058  0.004210  0.019159  0.001634
  2H   1px       -0.012462  0.018195 -0.026937  0.015403  0.013580  0.010192
  2H   1py        0.031788  0.009975  0.015219  0.006722 -0.001278 -0.011049
  3H   1s        -0.192259 -0.260377 -0.535454 -0.021759  0.009269 -0.248080
  3H   2s         0.287348  0.200149  0.376960 -0.321533  0.517007 -0.098576
  3H   1pz       -0.005423 -0.013869  0.011906 -0.002432 -0.019121 -0.006728
  3H   1px       -0.013496  0.016827  0.028353  0.015191  0.012002  0.009965
  3H   1py        0.037248  0.016594 -0.022311  0.008047  0.006567 -0.009255
  4C   1s        -0.060043 -0.008211  0.000041 -0.135115  0.037400  0.163064
  4C   2s         0.395894  0.051819 -0.000373  0.849787 -0.110826 -0.886400
  4C   3s         0.090958 -1.202898  0.000047 -4.393224  1.196092  3.148855
  4C   1pz        0.082773  0.035663 -0.100778  0.052791  0.033659  0.019083
  4C   1px       -0.047684  0.026237 -0.004209  0.052138  0.475300  0.054692
  4C   1py        0.388599  0.176377  0.020872  0.265296  0.256252  0.101099
  4C   2pz       -0.070853 -0.134212  0.418764 -0.413752 -0.057196 -0.091371
  4C   2px        0.511236  0.128064  0.017333 -0.289975 -1.322218 -0.930022
  4C   2py       -0.240431 -0.617198 -0.086972 -2.048621 -0.536660 -0.617885
  4C   1dz2      -0.049849  0.040159  0.024083 -0.007272 -0.018853  0.014395
  4C   1dxz       0.004215 -0.002539  0.006572 -0.005670 -0.001748 -0.002922
  4C   1dyz       0.030853 -0.005316  0.064852  0.002913 -0.001818  0.001985
  4C   1dx2y2    -0.060733 -0.038681  0.014284  0.004243  0.040322 -0.029117
  4C   1dxy       0.026511 -0.033573  0.001477 -0.023851  0.005966 -0.024655
  5H   1s        -0.019338 -0.306978  0.000609 -0.427590 -0.666358 -0.050854
  5H   2s        -0.144821  0.353712 -0.000049  0.207169  0.888654 -0.372614
  5H   1pz       -0.004099 -0.001598 -0.006872 -0.006035 -0.015121  0.002752
  5H   1px       -0.035006  0.023659 -0.000234 -0.046768  0.029860 -0.074492
  5H   1py       -0.027277 -0.002977  0.001392 -0.037637 -0.067269 -0.001301
  6H   1s        -0.269458  0.157648  0.234323 -0.240945  0.110482  0.340456
  6H   2s         0.161347 -0.069764 -0.115018  0.421272  0.042221 -0.772114
  6H   1pz        0.005164 -0.021522  0.001081  0.039042  0.003494 -0.056060
  6H   1px       -0.006196 -0.023258 -0.038319  0.015510  0.029243  0.028375
  6H   1py       -0.039440 -0.005274 -0.050541  0.036846  0.005590 -0.002073
  7C   1s         0.007808  0.062620  0.000139  0.050989 -0.157944  0.021682
  7C   2s        -0.078352 -0.385912 -0.000813 -0.261993  0.877368 -0.167808
  7C   3s         0.583626  0.956819  0.001403  0.768707 -2.747669 -0.906027
  7C   1pz       -0.006354 -0.019880  0.262470 -0.046998  0.005263 -0.016386
  7C   1px       -0.118451 -0.341861  0.010206 -0.086766  0.358717  0.395336
  7C   1py       -0.054175 -0.161155 -0.054808 -0.243728  0.095276  0.000520
  7C   2pz        0.004364  0.081382 -0.921641  0.204027 -0.023986  0.142438
  7C   2px        0.304457  0.620361 -0.036757  0.233689 -1.172470 -1.235070
  7C   2py        0.082226  0.507167  0.192388  1.029022 -0.343639  0.436669
  7C   1dz2       0.033803 -0.025493  0.023290 -0.022918  0.014939 -0.010009
  7C   1dxz      -0.005139  0.001339 -0.020986 -0.006896  0.001150 -0.006810
  7C   1dyz      -0.021004  0.022382  0.057640  0.010892 -0.005264  0.018572
  7C   1dx2y2     0.043771 -0.059915  0.011608 -0.004917 -0.001503 -0.059866
  7C   1dxy      -0.028402  0.004009  0.006964 -0.025754 -0.000074 -0.040094
  8H   1s        -0.269616  0.157913 -0.233691 -0.240973  0.110044  0.340696
  8H   2s         0.161423 -0.069602  0.114277  0.420848  0.042713 -0.771590
  8H   1pz       -0.019935  0.019375  0.018194 -0.022182 -0.003198  0.048117
  8H   1px       -0.007202 -0.021682  0.039007  0.013065  0.029020  0.032594
  8H   1py       -0.034195 -0.013896  0.046502  0.049574  0.007054 -0.023773
  9H   1s         0.188583 -0.054750 -0.388418  0.045978 -0.206052 -0.020704
  9H   2s        -0.265692 -0.056123  0.134376 -0.200250  0.342412 -0.231941
  9H   1pz       -0.017733  0.021139 -0.026118  0.006161  0.014754  0.003369
  9H   1px       -0.019131  0.002471 -0.031418 -0.040991  0.025408 -0.013824
  9H   1py       -0.025685  0.032240 -0.024083  0.022024 -0.020675  0.048757
 10H   1s         0.188670 -0.055889  0.388434  0.046166 -0.205725 -0.020652
 10H   2s        -0.265513 -0.055705 -0.134454 -0.200003  0.342302 -0.232840
 10H   1pz        0.007461 -0.006625 -0.016732  0.006334 -0.023732  0.017485
 10H   1px       -0.018085  0.001298  0.029677 -0.040931  0.023893 -0.013343
 10H   1py       -0.030937  0.037964  0.033118  0.022008 -0.012609  0.045802
 11H   1s        -0.405328  0.454328  0.000740  0.248684 -0.332540  0.452071
 11H   2s         0.314009 -0.446835 -0.000716  0.142319  0.435595 -0.155446
 11H   1pz        0.002945 -0.001613 -0.047418  0.000100  0.006562 -0.005901
 11H   1px        0.033198  0.007735 -0.001954  0.053171  0.017545  0.048293
 11H   1py        0.020687 -0.006514  0.009843  0.011038  0.035149 -0.018911
                     36        37        38        39        40        41   
                   0.48219   0.49832   0.50884   0.53279   0.54333   0.55088
                   0.00000   0.00000   0.00000   0.00000   0.00000   0.00000
                  --------  --------  --------  --------  --------  --------
  0C   1s        -0.147309  0.000154  0.019629 -0.035988 -0.000123 -0.000005
  0C   2s         0.794987 -0.001161  0.074303  0.179471  0.000469 -0.000175
  0C   3s        -2.793680  0.005531 -0.876891 -0.931401 -0.001556  0.000664
  0C   1pz       -0.000405 -0.403983 -0.013643  0.052995 -0.783955 -0.049630
  0C   1px       -0.342972 -0.016684  0.199918 -0.059096 -0.032782 -0.001744
  0C   1py       -0.069257  0.084380 -0.019003  0.238105  0.163193  0.010468
  0C   2pz        0.110506  1.359658 -0.004062 -0.061308  1.387375  0.381514
  0C   2px        0.423033  0.056936 -0.686366  0.361563  0.058728  0.015643
  0C   2py        0.607276 -0.283555 -0.176855 -0.213817 -0.288262 -0.079403
  0C   1dz2      -0.041707  0.006455  0.021920 -0.010750  0.026739  0.004778
  0C   1dxz       0.003237 -0.017996  0.001525  0.004134 -0.106221 -0.005950
  0C   1dyz       0.007224  0.013607 -0.013742 -0.002078  0.049994  0.011605
  0C   1dx2y2     0.031556  0.002173  0.024541  0.022347  0.006662  0.002290
  0C   1dxy       0.036460  0.004318  0.004802  0.027171  0.024496  0.001744
  1O   1s        -0.009180 -0.000114  0.032336 -0.030526  0.000015 -0.000034
  1O   2s        -0.047229 -0.000422  0.112592 -0.113744  0.000110 -0.000128
  1O   3s         0.058443 -0.000498  0.214862  0.017411 -0.000553  0.000101
  1O   1pz        0.048543 -0.124189  0.053643  0.000856  0.113532 -0.045467
  1O   1px       -0.012676 -0.005017 -0.114002  0.028961  0.004924 -0.001686
  1O   1py        0.234592  0.024830  0.238800  0.009866 -0.023432  0.009160
  1O   2pz       -0.017953 -0.080395 -0.008355  0.013860 -0.199960  0.006536
  1O   2px        0.059960 -0.003109 -0.067736  0.065412 -0.008073  0.000262
  1O   2py       -0.074671  0.017111 -0.052328  0.078674  0.041606 -0.001288
  1O   1dz2       0.017663  0.000702  0.010834 -0.005262 -0.003579  0.000052
  1O   1dxz      -0.001690  0.002742  0.001070  0.000045  0.024905  0.001329
  1O   1dyz      -0.010507  0.002569 -0.013539  0.003666 -0.004608  0.000459
[...]
     13       0.108848   0.000449  -0.059434   0.148928   0.066181   0.028990
     14       0.025492  -0.000182  -0.000322   0.030246   0.018468  -0.140401
     15      -0.274828  -0.000283  -0.125633  -0.494968  -0.442186  -0.001012
     16       0.018286  -0.004718   0.072102   0.067874  -0.010369  -0.000770
     17       0.014777   0.023511   0.020168   0.034159   0.015797   0.004547
     18      -0.195277   0.228319  -0.319067   0.259322  -0.060889   0.207553
     19      -0.045372   0.298109  -0.071289   0.431543   0.053185  -0.230546
     20       0.000785   0.042359  -0.004484   0.083827   0.043487   0.032246
     21       0.067721  -0.002265   0.253191  -0.053958   0.067925   0.003921
     22       0.122206   0.012990  -0.025055  -0.058578  -0.098752  -0.019574
     23       0.022960  -0.060632  -0.015634  -0.009921  -0.023313   0.094455
     24      -0.193389  -0.230371  -0.318383   0.258995  -0.062854  -0.200776
     25      -0.041373  -0.294145  -0.072257   0.433891   0.065551   0.194592
     26      -0.002597  -0.062049   0.000747   0.075013  -0.013678   0.137627
     27      -0.125778  -0.359389   0.436355   0.016412   0.225149   0.296085
     28      -0.232834  -0.097725   0.260487   0.114148   0.223144   0.029131
     29      -0.089901   0.123199   0.062846   0.060869   0.093984  -0.091172
     30      -0.125824   0.368896   0.434274   0.013050   0.220541  -0.303000
     31      -0.251771   0.044948   0.271165   0.129128   0.245804   0.004384
     32      -0.001860   0.123258   0.011847  -0.011573  -0.014859  -0.071674
     33       0.742987   0.010559  -0.079974  -0.307411  -0.371260  -0.007575
     34       0.052903  -0.041086   0.019397  -0.028139  -0.047850   0.038724
     35      -0.020465   0.198264   0.007115   0.006688   0.005057  -0.186027
                 18         19         20         21         22         23    
      0       0.001441  -0.044518   0.002166  -0.027876  -0.010529   0.067699
      1      -0.009596   0.047462  -0.011135   0.047874   0.002681   0.153335
      2       0.049627   0.010745   0.053725   0.010978   0.000975   0.029041
      3      -0.001026   0.024294   0.000636   0.032496   0.005073   0.026511
      4       0.006436  -0.036707  -0.003155  -0.035963  -0.007040  -0.038547
      5      -0.033525  -0.008039   0.015055  -0.008744  -0.001677  -0.009045
      6       0.424911   0.209572  -0.270276  -0.107077  -0.026707  -0.282994
      7       0.247959   0.370833  -0.390515  -0.061565   0.023820  -0.425784
      8      -0.020472   0.086424  -0.072041  -0.020231   0.022936  -0.193244
      9      -0.423856   0.220741   0.270428  -0.105509  -0.028281  -0.273384
     10      -0.216082   0.383361   0.391361  -0.066431   0.030221  -0.472183
     11      -0.082753   0.054642   0.068636   0.002491  -0.009444   0.029333
     12       0.003568   0.030623  -0.001911   0.114707   0.045359  -0.052940
     13      -0.016998  -0.100357   0.010034   0.119999   0.036179  -0.043452
     14       0.075016  -0.023041  -0.048283   0.020263   0.005690  -0.006868
     15      -0.010037  -0.708283  -0.000372  -0.393044  -0.053876  -0.390473
     16       0.002641   0.058502   0.000133   0.023231   0.002143   0.020276
     17      -0.008194   0.041035  -0.000570   0.020748   0.002609   0.020019
     18      -0.364835   0.100619  -0.242983  -0.365682  -0.062261   0.116683
     19      -0.192190  -0.001021  -0.442429  -0.413050  -0.130987   0.062586
     20      -0.061203  -0.013455  -0.057951  -0.086501  -0.011302   0.045608
     21      -0.003936  -0.016345  -0.001367   0.028791  -0.140344  -0.012036
     22       0.019470   0.052103   0.006646  -0.046010  -0.054154   0.026768
     23      -0.090108   0.012725  -0.031937  -0.010750  -0.005424   0.006015
     24       0.364253   0.091603   0.244672  -0.364840  -0.063386   0.113640
     25       0.206028  -0.011079   0.432613  -0.419815  -0.125875   0.077371
     26      -0.008041   0.003811   0.104175  -0.056735  -0.036971  -0.026002
     27      -0.237953  -0.047554  -0.085563  -0.128189   0.426320   0.157742
     28      -0.000516  -0.108789  -0.013155   0.012223   0.334164  -0.115358
     29       0.073154  -0.076168   0.010748   0.130341  -0.114461  -0.214173
     30       0.241572  -0.049319   0.086457  -0.137945   0.439617   0.171802
     31      -0.028293  -0.130088   0.009187   0.060793   0.268739  -0.189291
     32       0.049096   0.028828   0.008443  -0.104173   0.204114   0.137353
     33       0.009432   0.157358   0.000806  -0.291199   0.545317  -0.066237
     34      -0.036816   0.030339  -0.003204  -0.016671  -0.108235   0.025921
     35       0.179014  -0.002619   0.015302   0.008673  -0.045653   0.008788
                 24         25         26         27         28         29    
      0      -0.006848   0.000053  -0.000996   0.079599   0.045467  -0.003930
      1      -0.024085  -0.000370   0.053891  -0.014836  -0.045714   0.019330
      2      -0.004718   0.001564   0.011228  -0.006375  -0.011662  -0.092172
      3      -0.007990   0.000075  -0.000105   0.012387   0.002806   0.000008
      4       0.006052  -0.000309  -0.007203  -0.010634   0.001212  -0.000075
      5       0.001583   0.001515  -0.001481  -0.002701   0.000140   0.000337
      6       0.077926  -0.021869   0.093499  -0.473243  -0.318843   0.326677
      7       0.034163  -0.022158  -0.147354   0.127186   0.375812  -0.396273
      8      -0.012013  -0.006804  -0.202600   0.448079  -0.501310   0.478942
      9       0.079284   0.021170   0.106777  -0.504518  -0.273912  -0.279817
     10       0.027981   0.024323  -0.214396   0.287579   0.140745   0.166470
     11       0.018458   0.000488   0.119096  -0.321572   0.636512   0.617323
     12       0.058961  -0.001229   0.023132   0.004717  -0.000855   0.000337
     13      -0.007143   0.005016  -0.070312  -0.030774   0.001937  -0.001713
     14      -0.004022  -0.023516  -0.015584  -0.006605   0.000454   0.008185
     15       0.068613   0.000018  -0.082272  -0.080012   0.007484   0.000209
     16      -0.004545  -0.000173   0.004664   0.002407  -0.000494  -0.001174
     17      -0.003726   0.000893   0.004289   0.003745  -0.000416   0.005852
     18      -0.372108   0.053364  -0.198370  -0.072362   0.006746   0.034245
     19       0.286329   0.000831   0.310703   0.157368  -0.002190  -0.014147
     20      -0.265818   0.000273  -0.203547  -0.085663  -0.015568  -0.062875
     21      -0.016836  -0.001816   0.009293   0.004643  -0.001384   0.000050
     22       0.019247   0.008990  -0.029880  -0.006942   0.000217  -0.000248
     23       0.004485  -0.043819  -0.006645  -0.001638   0.000109   0.001192
     24      -0.345805  -0.049863  -0.176723  -0.062807   0.007737  -0.038894
     25       0.150487  -0.003647   0.200497   0.109049  -0.007921   0.037498
     26       0.386236   0.000007   0.325333   0.146656   0.012611  -0.049200
     27       0.209112   0.223574  -0.198906  -0.060310   0.007475  -0.001282
     28      -0.185733   0.434455   0.228233   0.047107  -0.011414   0.005207
     29      -0.298153   0.126370   0.322304   0.082559   0.013734  -0.004753
     30       0.226746  -0.221121  -0.220296  -0.065818   0.006230   0.000831
     31      -0.289789  -0.449739   0.333468   0.075076  -0.004894  -0.002820
     32       0.181736  -0.040970  -0.188156  -0.051960  -0.017770  -0.006476
     33      -0.237302   0.029198   0.303449   0.062456  -0.002543   0.000107
     34       0.027810  -0.141459  -0.049791  -0.010788   0.010178  -0.000530
     35       0.018854   0.679411  -0.022130  -0.004793   0.002231   0.002406
                 30         31         32         33         34         35    
      0       0.000963  -0.002488   0.000380   0.000212  -0.000490   0.001941
      1      -0.001933   0.000363  -0.001905  -0.001085  -0.000180  -0.001383
      2      -0.000446   0.000182   0.009139   0.005203  -0.000029  -0.000364
      3       0.000057   0.000263  -0.000009  -0.000008   0.000063  -0.010372
      4       0.000249   0.000012   0.000044   0.000045  -0.000066  -0.060509
      5       0.000050  -0.000009  -0.000208  -0.000218  -0.000016  -0.012070
      6      -0.007807   0.009222  -0.026134  -0.015332   0.001438   0.003241
      7       0.011562  -0.008798   0.034422   0.023118  -0.003594   0.001752
      8      -0.012807   0.012314  -0.042618  -0.025501   0.002824  -0.000144
      9      -0.006614   0.008095   0.022094   0.012901   0.001101   0.003281
     10       0.005388  -0.003017  -0.014135  -0.010809  -0.002096   0.001575
     11       0.016979  -0.015525  -0.054604  -0.033729  -0.003977   0.000540
     12      -0.003775  -0.052749   0.003376   0.001662  -0.004865  -0.000351
     13       0.001551   0.042812  -0.016987  -0.008460   0.004222   0.000284
     14       0.000485   0.011103   0.081568   0.040745   0.000976   0.000074
     15       0.000817   0.002184  -0.000057  -0.000011   0.000301   0.137958
     16      -0.000567   0.000624   0.000268   0.000066   0.000903   0.969122
     17      -0.000149   0.000042  -0.001336  -0.000326   0.000175   0.194470
     18       0.016124   0.289537   0.270985   0.133022   0.024357   0.000241
     19      -0.005953  -0.135625  -0.134887  -0.063238  -0.011724   0.000817
     20      -0.030767  -0.625253  -0.551014  -0.269906  -0.048862   0.000921
     21       0.051524  -0.000146  -0.001649   0.003321  -0.017358   0.000178
     22       0.003270  -0.006891   0.008239  -0.016635   0.088541  -0.000123
     23      -0.001508  -0.001435  -0.039826   0.081502   0.018815  -0.000033
     24       0.018334   0.335443  -0.311538  -0.152624   0.028674   0.000179
     25      -0.017379  -0.368442   0.338938   0.163102  -0.030597   0.001128
     26       0.024396   0.494364  -0.428842  -0.210739   0.039087  -0.000537
     27      -0.301299   0.003037   0.154739  -0.319568   0.165515  -0.000473
     28       0.318674  -0.004926  -0.163322   0.326590  -0.158499   0.000180
     29      -0.437445   0.002822   0.214034  -0.435866   0.243745  -0.000445
     30      -0.261154   0.002672  -0.134646   0.279517   0.141199  -0.000432
     31       0.113463  -0.003320   0.062028  -0.120993  -0.044775  -0.000016
     32       0.551274  -0.004665   0.272622  -0.554791  -0.294879   0.000517
     33      -0.039741   0.005563  -0.000406   0.000323  -0.092950  -0.000432
     34      -0.463556   0.090959   0.002937  -0.006594  -0.851766   0.000412
     35      -0.094767   0.018683  -0.011217   0.015663  -0.173332   0.000100


-----------
IR SPECTRUM
-----------

 Mode    freq (cm**-1)   T**2         TX         TY         TZ
-------------------------------------------------------------------
   6:       132.62    4.155037  ( -0.078806   0.413667  -1.994419)
   7:       235.59    4.266607  (  0.080538  -0.413563   2.022149)
   8:       272.28    3.588532  (  1.608380   0.859607   0.512563)
   9:       273.72  105.376012  ( -0.351787   2.112110 -10.039484)
  10:       453.62    9.518927  ( -2.668738  -1.534947  -0.201751)
  11:       755.61    1.302883  ( -0.045064   0.230498  -1.117015)
  12:       871.22    5.650472  ( -0.897461  -2.160065  -0.423270)
  13:       877.18    3.343390  (  0.065411  -0.380700   1.787227)
  14:      1032.77   27.693528  ( -5.054953  -1.460204  -0.093721)
  15:      1044.22   56.026034  ( -7.351992  -1.405037   0.011006)
  16:      1080.51   24.524542  (  4.485330   2.084468   0.247681)
  17:      1144.49    0.879497  (  0.030742  -0.191667   0.917505)
  18:      1219.19    0.043619  ( -0.086605  -0.058260   0.180899)
  19:      1224.94   51.336281  ( -6.973467  -1.644253  -0.058918)
  20:      1269.91    0.086354  (  0.006019  -0.060109   0.287585)
  21:      1297.13    7.429277  ( -2.653516   0.580108   0.227161)
  22:      1357.98    0.114793  (  0.336810  -0.030130  -0.021073)
  23:      1412.60    2.636320  (  0.658951   1.458311   0.274651)
  24:      1427.24    1.416598  ( -0.568844  -1.030092  -0.178674)
  25:      1429.68    6.350071  (  0.103514  -0.511539   2.465296)
  26:      1441.38    4.503363  ( -0.712924   1.950143   0.438229)
  27:      1466.36    5.634323  (  1.844432   1.476165   0.230935)
  28:      2865.81   74.532760  (  7.115985  -4.712070  -1.300738)
  29:      2893.57   71.784829  ( -0.360851   1.737583  -8.284650)
  30:      2959.40   26.574517  (  5.094689   0.784952  -0.050064)
  31:      2969.85   28.336282  ( -4.491379   2.754339   0.759878)
  32:      3012.11    7.409754  (  0.110166  -0.557079   2.662195)
  33:      3039.53   50.040710  (  0.283110  -1.422544   6.923650)
  34:      3051.21   25.228617  ( -1.085640   4.796832   1.020000)
  35:      3707.82   16.639728  (  1.390421   3.766867   0.719147)

The first frequency considered to be a vibration is 6
The total number of vibrations considered is 30


--------------------------
THERMOCHEMISTRY AT 298.15K
--------------------------

Temperature         ... 298.15 K
Pressure            ... 1.00 atm
Total Mass          ... 60.10 AMU

Throughout the following assumptions are being made:
  (1) The electronic state is orbitally nondegenerate
  (2) There are no thermally accessible electronically excited states
  (3) Hindered rotations indicated by low frequency modes are not
      treated as such but are treated as vibrations and this may
      cause some error
  (4) All equations used are the standard statistical mechanics
      equations for an ideal gas
  (5) All vibrations are strictly harmonic

freq.     132.62  E(vib)   ...       0.42 
freq.     235.59  E(vib)   ...       0.32 
freq.     272.28  E(vib)   ...       0.29 
freq.     273.72  E(vib)   ...       0.28 
freq.     453.62  E(vib)   ...       0.16 
freq.     755.61  E(vib)   ...       0.06 
freq.     871.22  E(vib)   ...       0.04 
freq.     877.18  E(vib)   ...       0.04 
freq.    1032.77  E(vib)   ...       0.02 
freq.    1044.22  E(vib)   ...       0.02 
freq.    1080.51  E(vib)   ...       0.02 
freq.    1144.49  E(vib)   ...       0.01 
freq.    1219.19  E(vib)   ...       0.01 
freq.    1224.94  E(vib)   ...       0.01 
freq.    1269.91  E(vib)   ...       0.01 
freq.    1297.13  E(vib)   ...       0.01 
freq.    1357.98  E(vib)   ...       0.01 
freq.    1412.60  E(vib)   ...       0.00 
freq.    1427.24  E(vib)   ...       0.00 
freq.    1429.68  E(vib)   ...       0.00 
freq.    1441.38  E(vib)   ...       0.00 
freq.    1466.36  E(vib)   ...       0.00 
freq.    2865.81  E(vib)   ...       0.00 
freq.    2893.57  E(vib)   ...       0.00 
freq.    2959.40  E(vib)   ...       0.00 
freq.    2969.85  E(vib)   ...       0.00 
freq.    3012.11  E(vib)   ...       0.00 
freq.    3039.53  E(vib)   ...       0.00 
freq.    3051.21  E(vib)   ...       0.00 
freq.    3707.82  E(vib)   ...       0.00 

------------
INNER ENERGY
------------

The inner energy is: U= E(el) + E(ZPE) + E(vib) + E(rot) + E(trans)
    E(el)   - is the total energy from the electronic structure calculation
              = E(kin-el) + E(nuc-el) + E(el-el) + E(nuc-nuc)
    E(ZPE)  - the the zero temperature vibrational energy from the frequency calculation
    E(vib)  - the the finite temperature correction to E(ZPE) due to population
              of excited vibrational states
    E(rot)  - is the rotational thermal energy
    E(trans)- is the translational thermal energy

Summary of contributions to the inner energy U:
Electronic energy                ...   -194.15817244 Eh
Zero point energy                ...      0.10529587 Eh      66.07 kcal/mol
Thermal vibrational correction   ...      0.00277030 Eh       1.74 kcal/mol
Thermal rotational correction    ...      0.00141627 Eh       0.89 kcal/mol
Thermal translational correction ...      0.00141627 Eh       0.89 kcal/mol
-----------------------------------------------------------------------
Total thermal energy                   -194.04727372 Eh


Summary of corrections to the electronic energy:
(perhaps to be used in another calculation)
Total thermal correction                  0.00560285 Eh       3.52 kcal/mol
Non-thermal (ZPE) correction              0.10529587 Eh      66.07 kcal/mol
-----------------------------------------------------------------------
Total correction                          0.11089872 Eh      69.59 kcal/mol


--------
ENTHALPY
--------

The enthalpy is H = U + kB*T
                kB is Boltzmann's constant
Total free energy                 ...   -194.04727372 Eh 
Thermal Enthalpy correction       ...      0.00094421 Eh       0.59 kcal/mol
-----------------------------------------------------------------------
Total Enthalpy                    ...   -194.04632952 Eh


Note: Only C1 symmetry has been detected, increase convergence thresholds 
      if your molecule has a higher symmetry. Symmetry factor of 1.0 is   
      used for the rotational entropy correction. 
 

Note: Rotational entropy computed according to Herzberg 
Infrared and Raman Spectra, Chapter V,1, Van Nostrand Reinhold, 1945 
Point Group:  C1, Symmetry Number:   1  
Rotational constants in cm-1:     0.873026     0.125099     0.116751 

Vibrational entropy computed according to the QRRHO of S. Grimme
Chem.Eur.J. 2012 18 9955


-------
ENTROPY
-------

The entropy contributions are T*S = T*(S(el)+S(vib)+S(rot)+S(trans))
     S(el)   - electronic entropy
     S(vib)  - vibrational entropy
     S(rot)  - rotational entropy
     S(trans)- translational entropy
The entropies will be listed as mutliplied by the temperature to get
units of energy

Electronic entropy                ...      0.00000000 Eh      0.00 kcal/mol
Vibrational entropy               ...      0.00460294 Eh      2.89 kcal/mol
Rotational entropy                ...      0.01157014 Eh      7.26 kcal/mol
Translational entropy             ...      0.01815004 Eh     11.39 kcal/mol
-----------------------------------------------------------------------
Final entropy term                ...      0.03432313 Eh     21.54 kcal/mol

In case the symmetry of your molecule has not been determined correctly
or in case you have a reason to use a different symmetry number we print 
out the resulting rotational entropy values for sn=1,12 :
 --------------------------------------------------------
|  sn= 1 | S(rot)=       0.01157014 Eh      7.26 kcal/mol|
|  sn= 2 | S(rot)=       0.01091569 Eh      6.85 kcal/mol|
|  sn= 3 | S(rot)=       0.01053285 Eh      6.61 kcal/mol|
|  sn= 4 | S(rot)=       0.01026123 Eh      6.44 kcal/mol|
|  sn= 5 | S(rot)=       0.01005054 Eh      6.31 kcal/mol|
|  sn= 6 | S(rot)=       0.00987840 Eh      6.20 kcal/mol|
|  sn= 7 | S(rot)=       0.00973285 Eh      6.11 kcal/mol|
|  sn= 8 | S(rot)=       0.00960677 Eh      6.03 kcal/mol|
|  sn= 9 | S(rot)=       0.00949557 Eh      5.96 kcal/mol|
|  sn=10 | S(rot)=       0.00939609 Eh      5.90 kcal/mol|
|  sn=11 | S(rot)=       0.00930610 Eh      5.84 kcal/mol|
|  sn=12 | S(rot)=       0.00922394 Eh      5.79 kcal/mol|
 --------------------------------------------------------


-------------------
GIBBS FREE ENERGY
-------------------

The Gibbs free energy is G = H - T*S

Total enthalpy                    ...   -194.04632952 Eh 
Total entropy correction          ...     -0.03432313 Eh    -21.54 kcal/mol
-----------------------------------------------------------------------
Final Gibbs free energy         ...   -194.08065264 Eh

For completeness - the Gibbs free energy minus the electronic energy
G-E(el)                           ...      0.07751980 Eh     48.64 kcal/mol


Timings for individual modules:

Sum of individual times         ...       62.680 sec (=   1.045 min)
GTO integral calculation        ...        2.817 sec (=   0.047 min)   4.5 %
SCF iterations                  ...       20.475 sec (=   0.341 min)  32.7 %
SCF Gradient evaluation         ...        8.294 sec (=   0.138 min)  13.2 %
Geometry relaxation             ...        0.255 sec (=   0.004 min)   0.4 %
Analytical frequency calculation...       30.840 sec (=   0.514 min)  49.2 %
                             ****ORCA TERMINATED NORMALLY****
TOTAL RUN TIME: 0 days 0 hours 1 minutes 3 seconds 653 msec
