
                                 *****************
                                 * O   R   C   A *
                                 *****************

           --- An Ab Initio, DFT and Semiempirical electronic structure package ---

                  #######################################################
                  #                        -***-                        #
                  #          Department of theory and spectroscopy      #
                  #               Directorship: Frank Neese             #
                  #        Max Planck Institute fuer Kohlenforschung    #
                  #                Kaiser Wilhelm Platz 1               #
                  #                 D-45470 Muelheim/Ruhr               #
                  #                      Germany                        #
                  #                                                     #
                  #                  All rights reserved                #
                  #                        -***-                        #
                  #######################################################


                         Program Version 4.2.1 -  RELEASE  -


 With contributions from (in alphabetic order):
   Daniel Aravena         : Magnetic Suceptibility
   Michael Atanasov       : Ab Initio Ligand Field Theory (pilot matlab implementation)
   Alexander A. Auer      : GIAO ZORA, VPT2
   Ute Becker             : Parallelization
   Giovanni Bistoni       : ED, misc. LED, open-shell LED, HFLD
   Martin Brehm           : Molecular dynamics
   Dmytro Bykov           : SCF Hessian
   Vijay G. Chilkuri      : MRCI spin determinant printing, contributions to CSF-ICE
   Dipayan Datta          : RHF DLPNO-CCSD density
   Achintya Kumar Dutta   : EOM-CC, STEOM-CC
   Dmitry Ganyushin       : Spin-Orbit,Spin-Spin,Magnetic field MRCI
   Miquel Garcia          : C-PCM Hessian, Gaussian charge scheme
   Yang Guo               : DLPNO-NEVPT2, CIM, IAO-localization
   Andreas Hansen         : Spin unrestricted coupled pair/coupled cluster methods
   Benjamin Helmich-Paris : CASSCF linear response (MC-RPA)
   Lee Huntington         : MR-EOM, pCC
   Robert Izsak           : Overlap fitted RIJCOSX, COSX-SCS-MP3, EOM
   Christian Kollmar      : KDIIS, OOCD, Brueckner-CCSD(T), CCSD density
   Simone Kossmann        : Meta GGA functionals, TD-DFT gradient, OOMP2, MP2 Hessian
   Martin Krupicka        : AUTO-CI
   Lucas Lang             : DCDCAS
   Dagmar Lenk            : GEPOL surface, SMD
   Dimitrios Liakos       : Extrapolation schemes; Compound Job, initial MDCI parallelization
   Dimitrios Manganas     : Further ROCIS development; embedding schemes
   Dimitrios Pantazis     : SARC Basis sets
   Taras Petrenko         : DFT Hessian,TD-DFT gradient, ASA, ECA, R-Raman, ABS, FL, XAS/XES, NRVS
   Peter Pinski           : DLPNO-MP2, DLPNO-MP2 Gradient
   Christoph Reimann      : Effective Core Potentials
   Marius Retegan         : Local ZFS, SOC
   Christoph Riplinger    : Optimizer, TS searches, QM/MM, DLPNO-CCSD(T), (RO)-DLPNO pert. Triples
   Tobias Risthaus        : Range-separated hybrids, TD-DFT gradient, RPA, STAB
   Michael Roemelt        : Original ROCIS implementation
   Masaaki Saitow         : Open-shell DLPNO-CCSD energy and density
   Barbara Sandhoefer     : DKH picture change effects
   Avijit Sen             : IP-ROCIS
   Kantharuban Sivalingam : CASSCF convergence, NEVPT2, FIC-MRCI
   Bernardo de Souza      : ESD, SOC TD-DFT
   Georgi Stoychev        : AutoAux, RI-MP2 NMR
   Willem Van den Heuvel  : Paramagnetic NMR
   Boris Wezisla          : Elementary symmetry handling
   Frank Wennmohs         : Technical directorship


 We gratefully acknowledge several colleagues who have allowed us to
 interface, adapt or use parts of their codes:
   Stefan Grimme, W. Hujo, H. Kruse,             : VdW corrections, initial TS optimization,
                  C. Bannwarth                     DFT functionals, gCP, sTDA/sTD-DF
   Ed Valeev, F. Pavosevic, A. Kumar             : LibInt (2-el integral package), F12 methods
   Garnet Chan, S. Sharma, J. Yang, R. Olivares  : DMRG
   Ulf Ekstrom                                   : XCFun DFT Library
   Mihaly Kallay                                 : mrcc  (arbitrary order and MRCC methods)
   Andreas Klamt, Michael Diedenhofen            : otool_cosmo (COSMO solvation model)
   Jiri Pittner, Ondrej Demel                    : Mk-CCSD
   Frank Weinhold                                : gennbo (NPA and NBO analysis)
   Christopher J. Cramer and Donald G. Truhlar   : smd solvation model
   Lars Goerigk                                  : TD-DFT with DH, B97 family of functionals
   V. Asgeirsson, H. Jonsson                     : NEB implementation
   FAccTs GmbH                                   : IRC, NEB, NEB-TS, Multilevel, MM, QM/MM, CI optimization
   S Lehtola, MJT Oliveira, MAL Marques          : LibXC Library


 Your calculation uses the libint2 library for the computation of 2-el integrals
 For citations please refer to: http://libint.valeyev.net

 Your ORCA version has been built with support for libXC version: 4.2.3
 For citations please refer to: https://tddft.org/programs/libxc/

 This ORCA versions uses:
   CBLAS   interface :  Fast vector & matrix operations
   LAPACKE interface :  Fast linear algebra routines
   SCALAPACK package :  Parallel linear algebra routines




***************************************
The coordinates will be read from file: init.xyz
***************************************


Your calculation utilizes the geometrical counterpoise correction gCP
Please cite in your paper:
H.Kruse, S. Grimme J.Chem.Phys., 136, (2012), 154101 
   

Your calculation utilizes the atom-pairwise dispersion correction
based on tight binding partial charges (D4)
Cite in your paper:
E.Caldeweyher, C.Bannwarth, S.Grimme, J.Chem.Phys., (2017), 147, 034112.
E.Caldeweyher, S.Ehlert, A.Hansen, H.Neugebauer, S.Grimme, J.Chem.Phys., (2018), in progress.
   

----- Orbital basis set information -----
Your calculation utilizes the basis: def2-SVP
   F. Weigend and R. Ahlrichs, Phys. Chem. Chem. Phys. 7, 3297 (2005).

----- AuxJ basis set information -----
Your calculation utilizes the auxiliary basis: def2/J
   F. Weigend, Phys. Chem. Chem. Phys. 8, 1057 (2006).

================================================================================
                                        WARNINGS
                       Please study these warnings very carefully!
================================================================================


WARNING: Geometry Optimization
  ===> : Switching off AutoStart
         For restart on a previous wavefunction, please use MOREAD

INFO   : the flag for use of LIBINT has been found!

================================================================================
                                       INPUT FILE
================================================================================
NAME = opt.inp
|  1> ! revPBE D4 gCP(DFT/TZ) def2-SVP Opt Freq TightOpt TightSCF Grid4 FinalGrid5 LargePrint
|  2> 
|  3> %pal
|  4>  nprocs 8
|  5> end
|  6> 
|  7> *xyzfile 0 1 init.xyz
|  8> 
|  9>                          ****END OF INPUT****
================================================================================

                       *****************************
                       * Geometry Optimization Run *
                       *****************************

Geometry optimization settings:
Update method            Update   .... BFGS
Choice of coordinates    CoordSys .... Z-matrix Internals
Initial Hessian          InHess   .... Almoef's Model

Convergence Tolerances:
Energy Change            TolE     ....  1.0000e-06 Eh
Max. Gradient            TolMAXG  ....  1.0000e-04 Eh/bohr
RMS Gradient             TolRMSG  ....  3.0000e-05 Eh/bohr
Max. Displacement        TolMAXD  ....  1.0000e-03 bohr
RMS Displacement         TolRMSD  ....  6.0000e-04 bohr
Strict Convergence                ....  False
------------------------------------------------------------------------------
                        ORCA OPTIMIZATION COORDINATE SETUP
------------------------------------------------------------------------------

The optimization will be done in new redundant internal coordinates
Making redundant internal coordinates   ...  (new redundants) done
Evaluating the initial hessian          ...  (Almloef) done
Evaluating the coordinates              ...  done
Calculating the B-matrix                .... done
Calculating the G-matrix                .... done
Diagonalizing the G-matrix              .... done
The first mode is                       ....   30
The number of degrees of freedom        ....   39

    -----------------------------------------------------------------
                    Redundant Internal Coordinates


    -----------------------------------------------------------------
         Definition                    Initial Value    Approx d2E/dq
    -----------------------------------------------------------------
      1. B(C   1,C   0)                  1.5275         0.377003   
      2. B(H   2,C   0)                  1.1108         0.333589   
      3. B(H   3,C   0)                  1.1105         0.333922   
      4. B(C   4,C   1)                  1.5409         0.358895   
      5. B(H   5,C   1)                  1.1120         0.332125   
      6. B(H   6,C   1)                  1.1120         0.332146   
      7. B(C   7,C   4)                  1.5321         0.370730   
      8. B(H   8,C   4)                  1.1120         0.332112   
      9. B(O   9,C   4)                  1.4062         0.527190   
     10. B(H  10,O   9)                  0.9933         0.460120   
     11. B(H  11,C   7)                  1.1110         0.333313   
     12. B(H  12,C   7)                  1.1109         0.333491   
     13. B(H  13,C   7)                  1.1107         0.333792   
     14. B(H  14,C   0)                  1.1104         0.334111   
     15. A(C   1,C   0,H   2)          110.2978         0.320760   
     16. A(H   3,C   0,H  14)          108.4899         0.284085   
     17. A(H   2,C   0,H  14)          108.6605         0.284041   
     18. A(C   1,C   0,H  14)          109.5389         0.320842   
     19. A(C   1,C   0,H   3)          110.6077         0.320812   
     20. A(H   2,C   0,H   3)          109.1998         0.284016   
     21. A(C   0,C   1,H   6)          108.3576         0.320532   
     22. A(C   4,C   1,H   5)          109.9120         0.317964   
     23. A(C   0,C   1,H   5)          109.0190         0.320529   
     24. A(H   5,C   1,H   6)          108.3521         0.283587   
     25. A(C   0,C   1,C   4)          111.8323         0.361436   
     26. A(C   4,C   1,H   6)          109.2908         0.317967   
     27. A(H   8,C   4,O   9)          108.0323         0.336727   
     28. A(C   7,C   4,O   9)          110.2190         0.382647   
     29. A(C   1,C   4,O   9)          111.1633         0.380498   
     30. A(C   7,C   4,H   8)          107.5432         0.319649   
     31. A(C   1,C   4,H   8)          108.4164         0.317962   
     32. A(C   1,C   4,C   7)          111.3225         0.360403   
     33. A(H  12,C   7,H  13)          108.4943         0.283986   
     34. A(H  11,C   7,H  13)          108.7844         0.283962   
     35. A(C   4,C   7,H  13)          109.8005         0.319913   
     36. A(H  11,C   7,H  12)          108.8442         0.283922   
     37. A(C   4,C   7,H  12)          110.2461         0.319866   
     38. A(C   4,C   7,H  11)          110.6235         0.319838   
     39. A(C   4,O   9,H  10)          107.6740         0.352590   
     40. D(H   5,C   1,C   0,H  14)     58.9464         0.011337   
     41. D(H   6,C   1,C   0,H   3)   -178.3175         0.011337   
     42. D(C   4,C   1,C   0,H   3)     61.1577         0.011337   
     43. D(C   4,C   1,C   0,H   2)    -59.7521         0.011337   
     44. D(C   4,C   1,C   0,H  14)   -179.3065         0.011337   
     45. D(H   5,C   1,C   0,H   3)    -60.5894         0.011337   
     46. D(H   6,C   1,C   0,H  14)    -58.7817         0.011337   
     47. D(H   5,C   1,C   0,H   2)    178.5008         0.011337   
     48. D(H   6,C   1,C   0,H   2)     60.7727         0.011337   
     49. D(H   8,C   4,C   1,H   5)   -179.5249         0.010338   
     50. D(C   7,C   4,C   1,H   6)     57.3640         0.010338   
     51. D(C   7,C   4,C   1,H   5)    -61.4248         0.010338   
     52. D(C   7,C   4,C   1,C   0)    177.3434         0.010338   
     53. D(H   8,C   4,C   1,H   6)    -60.7360         0.010338   
     54. D(O   9,C   4,C   1,H   6)   -179.3408         0.010338   
     55. D(O   9,C   4,C   1,H   5)     61.8703         0.010338   
     56. D(O   9,C   4,C   1,C   0)    -59.3615         0.010338   
     57. D(H   8,C   4,C   1,C   0)     59.2433         0.010338   
     58. D(H  13,C   7,C   4,H   8)    -59.8017         0.010984   
     59. D(H  13,C   7,C   4,C   1)   -178.4266         0.010984   
     60. D(H  12,C   7,C   4,O   9)    177.2221         0.010984   
     61. D(H  12,C   7,C   4,H   8)     59.6798         0.010984   
     62. D(H  12,C   7,C   4,C   1)    -58.9452         0.010984   
     63. D(H  11,C   7,C   4,O   9)    -62.3369         0.010984   
     64. D(H  11,C   7,C   4,H   8)   -179.8792         0.010984   
     65. D(H  13,C   7,C   4,O   9)     57.7407         0.010984   
     66. D(H  11,C   7,C   4,C   1)     61.4958         0.010984   
     67. D(H  10,O   9,C   4,H   8)   -179.6522         0.022061   
     68. D(H  10,O   9,C   4,C   7)     63.1083         0.022061   
     69. D(H  10,O   9,C   4,C   1)    -60.8165         0.022061   
    -----------------------------------------------------------------

Number of atoms                         .... 15
Number of degrees of freedom            .... 69

         *************************************************************
         *                GEOMETRY OPTIMIZATION CYCLE   1            *
         *************************************************************
---------------------------------
CARTESIAN COORDINATES (ANGSTROEM)
---------------------------------
  C     -4.728950   -4.581590   -0.839490
  C     -5.181570   -4.666180    0.616970
  H     -3.853720   -5.243990   -1.010110
  H     -5.551940   -4.880610   -1.522560
  C     -5.585310   -6.100600    1.009200
  H     -6.039730   -3.975830    0.770440
  H     -4.342190   -4.330710    1.264610
  C     -5.974460   -6.184980    2.488630
  H     -4.708600   -6.767010    0.854680
  O     -6.636890   -6.570590    0.202480
  H     -7.414870   -5.968610    0.340220
  H     -6.851500   -5.536550    2.700180
  H     -5.126040   -5.860970    3.128390
  H     -6.233010   -7.232900    2.750470
  H     -4.435860   -3.537300   -1.077240

----------------------------
CARTESIAN COORDINATES (A.U.)
----------------------------
  NO LB      ZA    FRAG     MASS         X           Y           Z
   0 C     6.0000    0    12.011   -8.936420   -8.657950   -1.586406
   1 C     6.0000    0    12.011   -9.791748   -8.817802    1.165904
   2 H     1.0000    0     1.008   -7.282475   -9.909705   -1.908831
   3 H     1.0000    0     1.008  -10.491646   -9.223016   -2.877221
   4 C     6.0000    0    12.011  -10.554706  -11.528463    1.907112
   5 H     1.0000    0     1.008  -11.413436   -7.513230    1.455921
   6 H     1.0000    0     1.008   -8.205550   -8.183856    2.389767
   7 C     6.0000    0    12.011  -11.290093  -11.687918    4.702829
   8 H     1.0000    0     1.008   -8.897964  -12.787796    1.615111
   9 O     8.0000    0    15.999  -12.541904  -12.416616    0.382632
  10 H     1.0000    0     1.008  -14.012074  -11.279038    0.642923
  11 H     1.0000    0     1.008  -12.947459  -10.462563    5.102601
  12 H     1.0000    0     1.008   -9.686812  -11.075628    5.911800
  13 H     1.0000    0     1.008  -11.778682  -13.668200    5.197635
  14 H     1.0000    0     1.008   -8.382561   -6.684528   -2.035689

--------------------------------
INTERNAL COORDINATES (ANGSTROEM)
--------------------------------
 C      0   0   0     0.000000000000     0.00000000     0.00000000
 C      1   0   0     1.527513032383     0.00000000     0.00000000
 H      1   2   0     1.110816140187   110.29783225     0.00000000
 H      1   2   3     1.110544967752   110.60772213   120.90983500
 C      2   1   3     1.540912423501   111.83234299   300.24786527
 H      2   1   3     1.112013825903   109.01895989   178.50076354
 H      2   1   3     1.111996616407   108.35756308    60.77268821
 C      5   2   1     1.532080556564   111.32251826   177.34338188
 H      5   2   1     1.112024794058   108.41644223    59.24332734
 O      5   2   1     1.406239046144   111.16333613   300.63851083
 H     10   5   2     0.993279974831   107.67399294   299.18348422
 H      8   5   2     1.111041866448   110.62345318    61.49577222
 H      8   5   2     1.110896860244   110.24612540   301.05475757
 H      8   5   2     1.110650536623   109.80048902   181.57335079
 H      1   2   3     1.110391108889   109.53892663   240.44559065

---------------------------
INTERNAL COORDINATES (A.U.)
---------------------------
 C      0   0   0     0.000000000000     0.00000000     0.00000000
 C      1   0   0     2.886581297200     0.00000000     0.00000000
 H      1   2   0     2.099138290093   110.29783225     0.00000000
 H      1   2   3     2.098625848456   110.60772213   120.90983500
 C      2   1   3     2.911902476774   111.83234299   300.24786527
 H      2   1   3     2.101401588091   109.01895989   178.50076354
 H      2   1   3     2.101369066856   108.35756308    60.77268821
 C      5   2   1     2.895212667011   111.32251826   177.34338188
 H      5   2   1     2.101422314900   108.41644223    59.24332734
 O      5   2   1     2.657406676039   111.16333613   300.63851083
 H     10   5   2     1.877027126739   107.67399294   299.18348422
 H      8   5   2     2.099564850907   110.62345318    61.49577222
 H      8   5   2     2.099290828894   110.24612540   301.05475757
 H      8   5   2     2.098825344709   109.80048902   181.57335079
 H      1   2   3     2.098335097342   109.53892663   240.44559065

---------------------
BASIS SET INFORMATION
---------------------
There are 3 groups of distinct atoms

 Group   1 Type C   : 7s4p1d contracted to 3s2p1d pattern {511/31/1}
 Group   2 Type H   : 4s1p contracted to 2s1p pattern {31/1}
 Group   3 Type O   : 7s4p1d contracted to 3s2p1d pattern {511/31/1}

Atom   0C    basis set group =>   1
Atom   1C    basis set group =>   1
Atom   2H    basis set group =>   2
Atom   3H    basis set group =>   2
Atom   4C    basis set group =>   1
Atom   5H    basis set group =>   2
Atom   6H    basis set group =>   2
Atom   7C    basis set group =>   1
Atom   8H    basis set group =>   2
Atom   9O    basis set group =>   3
Atom  10H    basis set group =>   2
Atom  11H    basis set group =>   2
Atom  12H    basis set group =>   2
Atom  13H    basis set group =>   2
Atom  14H    basis set group =>   2

-------------------------
BASIS SET IN INPUT FORMAT
-------------------------

 # Basis set for element : H 
 NewGTO H 
 S 3 
   1      13.0107010000      0.0334854848
   2       1.9622572000      0.2347218709
   3       0.4445379600      0.8137702853
 S 1 
   1       0.1219496200      1.0000000000
 P 1 
   1       0.8000000000      1.0000000000
  end;

 # Basis set for element : C 
 NewGTO C 
 S 5 
   1    1238.4016938000      0.0055173650
   2     186.2900499200      0.0410888285
   3      42.2511763460      0.1822538213
   4      11.6765579320      0.4682845944
   5       3.5930506482      0.4457581734
 S 1 
   1       0.4024514736      1.0000000000
 S 1 
   1       0.1309018267      1.0000000000
 P 3 
   1       9.4680970621      0.0568883320
   2       2.0103545142      0.3129405934
   3       0.5477100471      0.7606501651
 P 1 
   1       0.1526861379      1.0000000000
 D 1 
   1       0.8000000000      1.0000000000
  end;

 # Basis set for element : O 
 NewGTO O 
 S 5 
   1    2266.1767785000     -0.0053893504
   2     340.8701019100     -0.0402347214
   3      77.3631351670     -0.1800818421
   4      21.4796449400     -0.4682885766
   5       6.6589433124     -0.4469261716
 S 1 
   1       0.8097597567      1.0000000000
 S 1 
   1       0.2553077223      1.0000000000
 P 3 
   1      17.7215043170      0.0626302488
   2       3.8635505440      0.3333113849
   3       1.0480920883      0.7414863830
 P 1 
   1       0.2764154441      1.0000000000
 D 1 
   1       1.2000000000      1.0000000000
  end;

---------------------------------
AUXILIARY/J BASIS SET INFORMATION
---------------------------------
There are 3 groups of distinct atoms

 Group   1 Type C   : 12s5p4d2f1g contracted to 6s4p3d1f1g pattern {711111/2111/211/2/1}
 Group   2 Type H   : 5s2p1d contracted to 3s1p1d pattern {311/2/1}
 Group   3 Type O   : 12s5p4d2f1g contracted to 6s4p3d1f1g pattern {711111/2111/211/2/1}

Atom   0C    basis set group =>   1
Atom   1C    basis set group =>   1
Atom   2H    basis set group =>   2
Atom   3H    basis set group =>   2
Atom   4C    basis set group =>   1
Atom   5H    basis set group =>   2
Atom   6H    basis set group =>   2
Atom   7C    basis set group =>   1
Atom   8H    basis set group =>   2
Atom   9O    basis set group =>   3
Atom  10H    basis set group =>   2
Atom  11H    basis set group =>   2
Atom  12H    basis set group =>   2
Atom  13H    basis set group =>   2
Atom  14H    basis set group =>   2

-------------------------------------
AUXILIARY/J BASIS SET IN INPUT FORMAT
-------------------------------------

 # Auxiliary/J basis set for element : H 
 NewAuxJGTO H 
 S 3 
   1      15.6752927000      0.1007184237
   2       3.6063578000      0.3404257499
   3       1.2080016000      0.6491996172
 S 1 
   1       0.4726794000      1.0000000000
 S 1 
   1       0.2018100000      1.0000000000
 P 2 
   1       2.0281365000      0.5596620919
   2       0.5358730000      0.5596620919
 D 1 
   1       2.2165124000      1.0000000000
  end;

 # Auxiliary/J basis set for element : C 
 NewAuxJGTO C 
 S 7 
   1    1861.0916331000      0.0134602335
   2     642.9939764000      0.0299160374
   3     235.1105725000      0.1008649584
   4      90.7028894000      0.2370970548
   5      36.7794552000      0.3924037254
   6      15.6046273000      0.3195862154
   7       6.8907294000      0.0530104441
 S 1 
   1       3.1478850000     -1.0000000000
 S 1 
   1       1.4777287000      1.0000000000
 S 1 
   1       0.7076466000      1.0000000000
 S 1 
   1       0.3430122000      1.0000000000
 S 1 
   1       0.1669453000      1.0000000000
 P 2 
   1      13.5472892000     -0.6769313712
   2       5.4669419000     -0.3779500978
 P 1 
   1       2.1751721000      1.0000000000
 P 1 
   1       0.8582194000      1.0000000000
 P 1 
   1       0.3376720000      1.0000000000
 D 2 
   1       5.9287253000     -0.3533329857
   2       1.9809209000     -0.7456525731
 D 1 
   1       0.8055417000     -1.0000000000
 D 1 
   1       0.3531244000     -1.0000000000
 F 2 
   1       1.6755626000      0.6311076882
   2       0.5997536000      0.4968166032
 G 1 
   1       1.0024600000     -1.0000000000
  end;

 # Auxiliary/J basis set for element : O 
 NewAuxJGTO O 
 S 7 
   1    2876.8216605000      0.0168151159
   2    1004.7443032000      0.0340137548
   3     369.7579954000      0.1194951309
   4     142.9442404000      0.2664627624
   5      57.8366425000      0.4202764046
   6      24.3864983000      0.2765077335
   7      10.6622662000      0.0057008815
 S 1 
   1       4.8070437000     -1.0000000000
 S 1 
   1       2.2210770000      1.0000000000
 S 1 
   1       1.0447795000      1.0000000000
 S 1 
   1       0.4968425000      1.0000000000
 S 1 
   1       0.2371384000      1.0000000000
 P 2 
   1      64.2613382000     -0.2731534179
   2      16.3006076000     -0.8168011598
 P 1 
   1       4.3550542000      1.0000000000
 P 1 
   1       1.2019554000      1.0000000000
 P 1 
   1       0.3354196000      1.0000000000
 D 2 
   1       9.2146611000     -0.4661230638
   2       2.8435251000     -0.6600908911
 D 1 
   1       0.9955759000     -1.0000000000
 D 1 
   1       0.3649441000     -1.0000000000
 F 2 
   1       2.6420115000      0.5931563945
   2       0.7345613000      0.5931563945
 G 1 
   1       1.3931000000     -1.0000000000
  end;



           ************************************************************
           *        Program running with 8 parallel MPI-processes     *
           *              working on a common directory               *
           ************************************************************
------------------------------------------------------------------------------
                           ORCA GTO INTEGRAL CALCULATION
                           -- RI-GTO INTEGRALS CHOSEN --
------------------------------------------------------------------------------

                         BASIS SET STATISTICS AND STARTUP INFO

Gaussian basis set:
 # of primitive gaussian shells          ...  110
 # of primitive gaussian functions       ...  190
 # of contracted shells                  ...   60
 # of contracted basis functions         ...  120
 Highest angular momentum                ...    2
 Maximum contraction depth               ...    5
Auxiliary gaussian basis set:
 # of primitive gaussian shells          ...  200
 # of primitive gaussian functions       ...  510
 # of contracted shells                  ...  125
 # of contracted aux-basis functions     ...  355
 Highest angular momentum                ...    4
 Maximum contraction depth               ...    7
Ratio of auxiliary to basis functions    ...  2.96
Integral package used                  ... LIBINT
 One Electron integrals                  ... done
 Ordering auxiliary basis shells         ... done
 Integral threshhold             Thresh  ...  2.500e-11
 Primitive cut-off               TCut    ...  2.500e-12
 Pre-screening matrix                    ... done
 Shell pair data                         ... 
 Ordering of the shell pairs             ... done (   0.001 sec) 1802 of 1830 pairs
 Determination of significant pairs      ... done (   0.000 sec)
 Creation of shell pair data             ... done (   0.000 sec)
 Storage of shell pair data              ... done (   0.001 sec)
 Shell pair data done in (   0.002 sec)
 Computing two index integrals           ... done
 Cholesky decomposition of the V-matrix  ... done


Timings:
 Total evaluation time                   ...   0.157 sec (  0.003 min)
 One electron matrix time                ...   0.014 sec (  0.000 min) =  8.9%
 Schwartz matrix evaluation time         ...   0.109 sec (  0.002 min) = 69.3%
 Two index repulsion integral time       ...   0.005 sec (  0.000 min) =  3.4%
 Cholesky decomposition of V             ...   0.006 sec (  0.000 min) =  3.9%
 Three index repulsion integral time     ...   0.000 sec (  0.000 min) =  0.0%



           ************************************************************
           *        Program running with 8 parallel MPI-processes     *
           *              working on a common directory               *
           ************************************************************
-------------------------------------------------------------------------------
                                 ORCA SCF
-------------------------------------------------------------------------------

------------
SCF SETTINGS
------------
Hamiltonian:
 Density Functional     Method          .... DFT(GTOs)
 Exchange Functional    Exchange        .... PBE
   PBE kappa parameter   XKappa         ....  1.245000
   PBE mue parameter    XMuePBE         ....  0.219520
 Correlation Functional Correlation     .... PBE
   PBE beta parameter  CBetaPBE         ....  0.066725
 LDA part of GGA corr.  LDAOpt          .... PW91-LDA
 Gradients option       PostSCFGGA      .... off
   Density functional embedding theory  .... OFF
   NL short-range parameter             ....  3.700000
 RI-approximation to the Coulomb term is turned on
   Number of auxiliary basis functions  .... 355


General Settings:
 Integral files         IntName         .... opt
 Hartree-Fock type      HFTyp           .... RHF
 Total Charge           Charge          ....    0
 Multiplicity           Mult            ....    1
 Number of Electrons    NEL             ....   42
 Basis Dimension        Dim             ....  120
 Nuclear Repulsion      ENuc            ....    193.0620148446 Eh

Convergence Acceleration:
 DIIS                   CNVDIIS         .... on
   Start iteration      DIISMaxIt       ....    12
   Startup error        DIISStart       ....  0.200000
   # of expansion vecs  DIISMaxEq       ....     5
   Bias factor          DIISBfac        ....   1.050
   Max. coefficient     DIISMaxC        ....  10.000
 Newton-Raphson         CNVNR           .... off
 SOSCF                  CNVSOSCF        .... on
   Start iteration      SOSCFMaxIt      ....   150
   Startup grad/error   SOSCFStart      ....  0.003300
 Level Shifting         CNVShift        .... on
   Level shift para.    LevelShift      ....    0.2500
   Turn off err/grad.   ShiftErr        ....    0.0010
 Zerner damping         CNVZerner       .... off
 Static damping         CNVDamp         .... on
   Fraction old density DampFac         ....    0.7000
   Max. Damping (<1)    DampMax         ....    0.9800
   Min. Damping (>=0)   DampMin         ....    0.0000
   Turn off err/grad.   DampErr         ....    0.1000
 Fernandez-Rico         CNVRico         .... off

SCF Procedure:
 Maximum # iterations   MaxIter         ....   125
 SCF integral mode      SCFMode         .... Direct
   Integral package                     .... LIBINT
 Reset frequency        DirectResetFreq ....    20
 Integral Threshold     Thresh          ....  2.500e-11 Eh
 Primitive CutOff       TCut            ....  2.500e-12 Eh

Convergence Tolerance:
 Convergence Check Mode ConvCheckMode   .... Total+1el-Energy
 Convergence forced     ConvForced      .... 0
 Energy Change          TolE            ....  1.000e-08 Eh
 1-El. energy change                    ....  1.000e-05 Eh
 Orbital Gradient       TolG            ....  1.000e-05
 Orbital Rotation angle TolX            ....  1.000e-05
 DIIS Error             TolErr          ....  5.000e-07


Diagonalization of the overlap matrix:
Smallest eigenvalue                        ... 1.824e-03
Time for diagonalization                   ...    0.004 sec
Threshold for overlap eigenvalues          ... 1.000e-08
Number of eigenvalues below threshold      ... 0
Time for construction of square roots      ...    0.003 sec
Total time needed                          ...    0.007 sec

-------------------
DFT GRID GENERATION
-------------------

General Integration Accuracy     IntAcc      ...  4.670
Radial Grid Type                 RadialGrid  ... Gauss-Chebyshev
Angular Grid (max. acc.)         AngularGrid ... Lebedev-302
Angular grid pruning method      GridPruning ... 3 (G Style)
Weight generation scheme         WeightScheme... Becke
Basis function cutoff            BFCut       ...    1.0000e-11
Integration weight cutoff        WCut        ...    1.0000e-14
Grids for H and He will be reduced by one unit

# of grid points (after initial pruning)     ...  65000 (   0.0 sec)
# of grid points (after weights+screening)   ...  59622 (   0.0 sec)
nearest neighbour list constructed           ...    0.0 sec
Grid point re-assignment to atoms done       ...    0.0 sec
Grid point division into batches done        ...    0.2 sec
Reduced shell lists constructed in    0.3 sec

Total number of grid points                  ...    59622
Total number of batches                      ...      938
Average number of points per batch           ...       63
Average number of grid points per atom       ...     3975
Average number of shells per batch           ...    46.87 (78.11%)
Average number of basis functions per batch  ...    92.13 (76.77%)
Average number of large shells per batch     ...    39.13 (83.49%)
Average number of large basis fcns per batch ...    74.64 (81.02%)
Maximum spatial batch extension              ...  14.38, 15.62, 16.75 au
Average spatial batch extension              ...   0.25,  0.27,  0.27 au

Time for grid setup =    0.328 sec

------------------------------
INITIAL GUESS: MODEL POTENTIAL
------------------------------
Loading Hartree-Fock densities                     ... done
Calculating cut-offs                               ... done
Setting up the integral package                    ... done
Initializing the effective Hamiltonian             ... done
Starting the Coulomb interaction                   ... done (   0.0 sec)
Reading the grid                                   ... done
Mapping shells                                     ... done
Starting the XC term evaluation                    ... done (   0.1 sec)
  promolecular density results
     # of electrons  =     41.994789836
     EX              =    -31.743266366
     EC              =     -1.360833444
     EX+EC           =    -33.104099810
Transforming the Hamiltonian                       ... done (   0.0 sec)
Diagonalizing the Hamiltonian                      ... done (   0.0 sec)
Back transforming the eigenvectors                 ... done (   0.0 sec)
Now organizing SCF variables                       ... done
                      ------------------
                      INITIAL GUESS DONE (   0.5 sec)
                      ------------------
----------------------
INITIAL GUESS ORBITALS
----------------------
                      0         1         2         3         4         5   
                 -18.95724 -10.08098 -10.08042 -10.07540 -10.06478  -1.05154
                   2.00000   2.00000   2.00000   2.00000   2.00000   2.00000
                  --------  --------  --------  --------  --------  --------
  0C   1s        -0.000000  0.987660 -0.006603 -0.003808 -0.000667 -0.007480
  0C   2s         0.000535  0.052633 -0.000376  0.001967  0.000877  0.013174
  0C   3s        -0.003204 -0.045590  0.004643 -0.016142 -0.000769 -0.008281
  0C   1pz        0.000015 -0.001052  0.000120  0.001569  0.000131  0.005017
  0C   1px        0.000142  0.000305 -0.000051 -0.000453 -0.000107 -0.003310
  0C   1py       -0.000033 -0.000063 -0.000070 -0.000032 -0.000195 -0.002747
  0C   2pz       -0.000795 -0.002536  0.001655 -0.005301  0.000059  0.000859
  0C   2px       -0.000564  0.001148 -0.000059  0.001776  0.000003  0.000181
  0C   2py        0.001477  0.002133  0.000554  0.000794  0.002015 -0.004845
  0C   1dz2       0.000050 -0.000760  0.000034  0.001313  0.000056  0.000495
  0C   1dxz       0.000035  0.000427 -0.000021 -0.000679 -0.000014 -0.000589
  0C   1dyz       0.000085  0.000069  0.000004  0.000022  0.000060 -0.000491
  0C   1dx2y2     0.000057 -0.000101 -0.000020  0.000143  0.000086 -0.000044
  0C   1dxy      -0.000061 -0.000011 -0.000000 -0.000042 -0.000038  0.000422
  1C   1s         0.000088 -0.003073 -0.000345 -0.987715 -0.002835 -0.023271
  1C   2s        -0.000740 -0.001450 -0.000940 -0.053104  0.002113  0.041180
  1C   3s        -0.002252  0.006767  0.003069  0.056247 -0.017814  0.024627
  1C   1pz        0.000009  0.001489 -0.000332 -0.000840  0.000219 -0.000182
  1C   1px        0.000090 -0.000472  0.000111  0.000065 -0.000381 -0.010604
  1C   1py        0.000490 -0.000106  0.000022 -0.000914 -0.001404 -0.019750
  1C   2pz       -0.000467 -0.002783  0.005353 -0.003184 -0.001881 -0.008062
  1C   2px        0.002291  0.001306 -0.002431  0.000440  0.002558 -0.003835
  1C   2py        0.001291  0.001619 -0.001160 -0.003488  0.005580 -0.011061
  1C   1dz2       0.000170 -0.001235  0.000087  0.000496 -0.000608 -0.001246
  1C   1dxz       0.000078  0.000730 -0.000095 -0.000598 -0.000128 -0.000372
  1C   1dyz      -0.000073  0.000151 -0.000133 -0.000523 -0.000435 -0.000729
  1C   1dx2y2     0.000127 -0.000071  0.000004 -0.000600 -0.001044 -0.002032
  1C   1dxy      -0.000204 -0.000072  0.000074  0.000400  0.000506  0.002027
  2H   1s         0.000533 -0.002823 -0.000011  0.000232  0.000333  0.002580
  2H   2s         0.000878  0.008628 -0.000583  0.000300  0.001275 -0.000935
  2H   1pz        0.000020 -0.000144 -0.000053 -0.000456  0.000074 -0.000004
  2H   1px        0.000006  0.002036 -0.000023  0.000151 -0.000114 -0.000349
  2H   1py        0.000041 -0.001827 -0.000048 -0.000014 -0.000113  0.000459
  3H   1s        -0.000150 -0.002853  0.000018  0.000127  0.000352  0.003714
  3H   2s         0.000877  0.008564 -0.000099  0.000655  0.000184  0.005190
  3H   1pz        0.000086 -0.001408  0.000007 -0.000427 -0.000012  0.000826
  3H   1px        0.000114 -0.002153  0.000050  0.000143 -0.000003  0.000352
  3H   1py       -0.000088 -0.000932 -0.000054 -0.000010 -0.000073  0.000065
  4C   1s         0.000174 -0.000554 -0.001000  0.002106 -0.987834 -0.101755
  4C   2s        -0.001726 -0.001307 -0.001014  0.001642 -0.052160  0.204439
  4C   3s         0.021729  0.003929  0.003911 -0.011629  0.055271 -0.006575
  4C   1pz       -0.000287  0.000360 -0.001265 -0.000360  0.000141 -0.059751
  4C   1px       -0.000258 -0.000083  0.000381  0.000284 -0.000812 -0.088807
  4C   1py       -0.000403 -0.000085  0.000214  0.001151  0.000483 -0.029509
  4C   2pz       -0.005133 -0.004901  0.001727  0.000626  0.004504 -0.001383
  4C   2px       -0.006690  0.001489  0.000739 -0.002867  0.001132 -0.017406
  4C   2py       -0.001879  0.001031 -0.002030 -0.003087  0.006893  0.005645
  4C   1dz2      -0.000038  0.000042 -0.001376 -0.000679  0.000576 -0.000534
  4C   1dxz      -0.000327 -0.000101  0.000550 -0.000014 -0.000189  0.013710
  4C   1dyz      -0.000140 -0.000070  0.000172 -0.000485 -0.000324  0.003933
  4C   1dx2y2    -0.000183 -0.000046 -0.000076 -0.000961 -0.000567  0.008746
  4C   1dxy      -0.000276  0.000078 -0.000118  0.000703  0.000835  0.007761
  5H   1s         0.000261 -0.000006 -0.000579  0.002683  0.000348  0.008923
  5H   2s        -0.000450  0.000357 -0.001410 -0.009135  0.000893 -0.000351
  5H   1pz        0.000021 -0.000527 -0.000289 -0.000205 -0.000105  0.000142
  5H   1px        0.000068  0.000115 -0.000018  0.002380  0.000129  0.000933
  5H   1py        0.000328 -0.000071  0.000039 -0.001436  0.000461 -0.001561
  6H   1s        -0.000225 -0.000023 -0.000427  0.002761  0.000134  0.006337
  6H   2s         0.000373  0.000262 -0.001088 -0.009034  0.000161  0.002408
  6H   1pz        0.000039 -0.000516 -0.000250 -0.001558 -0.000071 -0.000596
  6H   1px       -0.000182  0.000168  0.000196 -0.002323  0.000099 -0.001470
  6H   1py       -0.000167 -0.000080  0.000002 -0.000593  0.000526 -0.000459
  7C   1s         0.000071  0.006576  0.987646 -0.000417 -0.001736 -0.022840
  7C   2s        -0.000622  0.000399  0.052769  0.000618  0.002201  0.040787
  7C   3s        -0.002833  0.003046 -0.043554 -0.001562 -0.016982  0.018263
  7C   1pz        0.000444 -0.000106  0.000966 -0.000007 -0.001601 -0.023506
  7C   1px       -0.000023  0.000028 -0.000255  0.000034  0.000346 -0.000992
  7C   1py        0.000019  0.000057  0.000067  0.000131  0.000002 -0.000783
  7C   2pz        0.001627 -0.000997  0.001963 -0.000318  0.006242 -0.012789
  7C   2px        0.000421  0.000371 -0.000748  0.000193 -0.000665 -0.001406
  7C   2py        0.000091 -0.000418 -0.001620 -0.002329 -0.001096 -0.004499
  7C   1dz2      -0.000280  0.000008 -0.000748  0.000073  0.001309  0.003464
  7C   1dxz      -0.000097 -0.000014  0.000392 -0.000034 -0.000640 -0.000563
  7C   1dyz      -0.000022  0.000003  0.000058  0.000138  0.000056  0.000170
  7C   1dx2y2     0.000066 -0.000018 -0.000081  0.000110  0.000093  0.000164
  7C   1dxy       0.000080  0.000013  0.000001 -0.000069 -0.000024  0.000001
  8H   1s        -0.001386 -0.000591 -0.000230  0.000342  0.003184  0.031671
  8H   2s        -0.002497 -0.001368  0.000172  0.000313 -0.009029  0.009789
  8H   1pz        0.000373  0.000288  0.000606  0.000204  0.000280  0.000216
  8H   1px        0.000511  0.000018 -0.000121 -0.000137 -0.002469 -0.004889
  8H   1py        0.000073 -0.000034 -0.000009 -0.000578  0.001494  0.002918
  9O   1s        -0.988610 -0.000007 -0.000069  0.000086  0.000181  0.273540
  9O   2s         0.042487 -0.000037 -0.000814  0.001010  0.000288  0.564428
  9O   3s        -0.029731 -0.000939  0.002098 -0.002408 -0.000923  0.290007
  9O   1pz        0.001124  0.000031 -0.000263  0.000076  0.000465  0.065862
  9O   1px        0.000013 -0.000046 -0.000008  0.000137  0.000606  0.014188
  9O   1py        0.001458 -0.000112 -0.000081  0.000308  0.000257  0.077649
  9O   2pz       -0.004173  0.000155  0.001627 -0.000487  0.001596  0.017494
  9O   2px       -0.005692 -0.000806 -0.000300 -0.000401  0.001088  0.023261
  9O   2py       -0.002469  0.000343  0.000759 -0.001955  0.001272  0.009904
  9O   1dz2      -0.000419  0.000011  0.000176  0.000189 -0.000116 -0.001453
  9O   1dxz      -0.000320  0.000020  0.000003 -0.000016  0.001063  0.004373
  9O   1dyz      -0.000004  0.000009  0.000056 -0.000015  0.000672  0.004051
  9O   1dx2y2     0.000150 -0.000043  0.000028  0.000080  0.000548  0.002413
  9O   1dxy      -0.000838 -0.000057 -0.000081 -0.000072  0.000388  0.000257
 10H   1s        -0.001286 -0.000452 -0.000708  0.000941 -0.001380  0.149061
 10H   2s         0.001162 -0.000530  0.000462 -0.000636 -0.002056 -0.006351
 10H   1pz        0.000566  0.000046  0.000219  0.000017 -0.000790 -0.001820
 10H   1px       -0.001905 -0.000231 -0.000021 -0.000014 -0.001035  0.022944
 10H   1py        0.001790 -0.000023  0.000102 -0.000241 -0.000473 -0.014839
 11H   1s        -0.000013  0.000003 -0.002811  0.000323  0.000343  0.008645
 11H   2s        -0.000567 -0.000160  0.008397  0.001398  0.000932  0.000945
 11H   1pz        0.000360  0.000012  0.000144  0.000045  0.000422 -0.000893
 11H   1px       -0.000067 -0.000005 -0.002084  0.000087 -0.000123  0.001296
 11H   1py        0.000051  0.000044  0.001762  0.000074 -0.000018 -0.000865
 12H   1s        -0.000031 -0.000051 -0.002970  0.000239  0.000015  0.006145
 12H   2s         0.000563 -0.000371  0.008175  0.001138 -0.000001  0.003234
 12H   1pz       -0.000261  0.000035  0.001352 -0.000064  0.000485 -0.000929
 12H   1px       -0.000022  0.000014  0.002247 -0.000059 -0.000110 -0.001294
 12H   1py       -0.000011  0.000056  0.000973  0.000151  0.000070 -0.000286
 13H   1s        -0.000163 -0.000246 -0.003465 -0.000273  0.000377  0.007308
 13H   2s        -0.000203 -0.000226  0.007159 -0.000843  0.000594 -0.000928
 13H   1pz        0.000294 -0.000027  0.000405  0.000052  0.000136 -0.000919
 13H   1px       -0.000074 -0.000011 -0.000642 -0.000044 -0.000092  0.000469
 13H   1py       -0.000017 -0.000031 -0.002768  0.000026  0.000029  0.001544
 14H   1s         0.000006 -0.003549 -0.000294  0.000230 -0.000333  0.002956
 14H   2s        -0.000378  0.006974 -0.000408  0.000842 -0.000890  0.004138
 14H   1pz        0.000007 -0.000409  0.000029 -0.000213 -0.000065  0.000218
 14H   1px        0.000122  0.000720 -0.000031  0.000059  0.000033 -0.000215
 14H   1py       -0.000044  0.002775 -0.000004 -0.000064  0.000022 -0.000564
                      6         7         8         9        10        11   
                  -0.83860  -0.78561  -0.69389  -0.65056  -0.55355  -0.54440
                   2.00000   2.00000   2.00000   2.00000   2.00000   2.00000
                  --------  --------  --------  --------  --------  --------
  0C   1s         0.141074 -0.139032  0.155369 -0.067810 -0.016074 -0.017808
  0C   2s        -0.289606  0.298153 -0.340098  0.150281  0.037150  0.042677
  0C   3s        -0.060710 -0.006494 -0.039371 -0.007484 -0.025093  0.002140
  0C   1pz       -0.065710  0.028390  0.081153 -0.088772 -0.074411 -0.147047
  0C   1px        0.019188 -0.009628 -0.026198  0.027894  0.098735 -0.119571
  0C   1py        0.006872  0.003198 -0.021201 -0.032508 -0.098176 -0.046771
  0C   2pz       -0.017710 -0.014919  0.034701 -0.048999 -0.032190 -0.061606
  0C   2px        0.008248  0.010056 -0.013057  0.007282  0.043046 -0.043780
  0C   2py        0.000719  0.012119 -0.006228 -0.017747 -0.034214 -0.008042
  0C   1dz2      -0.006662  0.002854  0.003493 -0.005568 -0.002570 -0.006076
  0C   1dxz       0.003754 -0.001383 -0.002270  0.002503  0.004576 -0.001165
  0C   1dyz       0.001025  0.000688 -0.001609 -0.002598 -0.003782 -0.001260
  0C   1dx2y2    -0.000492  0.000253  0.000110 -0.000802 -0.000390  0.003341
  0C   1dxy      -0.000231 -0.000144  0.000553  0.000772 -0.001753  0.002868
  1C   1s         0.183523 -0.061117 -0.110265  0.116844  0.038972  0.032416
  1C   2s        -0.381305  0.125670  0.247820 -0.262152 -0.097880 -0.075799
  1C   3s        -0.062791  0.082722  0.006228  0.024198  0.013530 -0.042390
  1C   1pz        0.032629 -0.087117  0.103131 -0.062864  0.083465 -0.006143
  1C   1px       -0.010822  0.028770 -0.036723  0.015306  0.098439 -0.251152
  1C   1py        0.030697  0.043434 -0.063690 -0.105302 -0.194410 -0.117592
  1C   2pz        0.013711 -0.058689  0.040355 -0.028713  0.011062 -0.016643
  1C   2px       -0.012909  0.009380 -0.009681  0.019776  0.033818 -0.086091
  1C   2py        0.005594  0.007642 -0.021504 -0.047875 -0.081935 -0.034097
  1C   1dz2      -0.004468  0.005753 -0.008593  0.000389 -0.000354  0.000083
  1C   1dxz       0.004291 -0.002422  0.003428 -0.001458 -0.000528 -0.001916
  1C   1dyz       0.003678  0.001875 -0.000046  0.000217 -0.002688 -0.002147
  1C   1dx2y2     0.003366  0.002456 -0.004796 -0.005151 -0.003995 -0.002735
  1C   1dxy      -0.001438 -0.000516  0.000796  0.000754  0.000148  0.001558
  2H   1s        -0.072264  0.081907 -0.121848  0.084270  0.112855 -0.011716
  2H   2s        -0.007678  0.012405 -0.018138  0.013583  0.015132  0.002225
  2H   1pz       -0.002530  0.001976  0.000065 -0.000073  0.000955 -0.004077
  2H   1px        0.008457 -0.008734  0.010616 -0.006426 -0.006086 -0.002269
  2H   1py       -0.006069  0.006050 -0.009162  0.004694  0.003493 -0.001509
  3H   1s        -0.069978  0.084283 -0.124658  0.075489  0.015983  0.143592
  3H   2s        -0.001880  0.018093 -0.023177  0.001167  0.014428  0.013275
  3H   1pz       -0.006765  0.007408 -0.007071  0.002836 -0.000823  0.005818
  3H   1px       -0.007357  0.007852 -0.011657  0.006545  0.003667  0.006216
  3H   1py       -0.002764  0.002472 -0.004495  0.001688 -0.001577  0.002285
  4C   1s         0.111503  0.099891 -0.096837 -0.121964 -0.050451 -0.045913
  4C   2s        -0.224561 -0.206815  0.215739  0.281832  0.118260  0.100697
  4C   3s        -0.081638 -0.107198  0.032860 -0.035087 -0.017400  0.068488
  4C   1pz       -0.031875 -0.117698 -0.084386 -0.074944  0.139030  0.021807
  4C   1px       -0.050761  0.004886  0.058001  0.015563  0.230183 -0.153265
  4C   1py       -0.069756  0.026057  0.071652 -0.155644  0.100982  0.184114
  4C   2pz       -0.006314 -0.069451 -0.024620 -0.045531  0.037038  0.003452
  4C   2px       -0.006588  0.014567  0.017940  0.011549  0.090082 -0.089341
  4C   2py       -0.029181  0.001912  0.034811 -0.069895  0.039419  0.098206
  4C   1dz2      -0.001767 -0.008123 -0.007104  0.002771 -0.001981  0.000159
  4C   1dxz       0.004828  0.004330  0.004178  0.005143 -0.008441  0.000184
  4C   1dyz       0.003974 -0.000623  0.001486  0.005600 -0.007096 -0.004010
  4C   1dx2y2     0.006794  0.000041 -0.005553  0.002318  0.001474  0.002941
  4C   1dxy      -0.002636 -0.000119  0.002783  0.003692 -0.008656 -0.005681
  5H   1s        -0.092636  0.032762  0.081585 -0.138938 -0.155009  0.051097
  5H   2s        -0.010056  0.001446  0.015497 -0.016314 -0.019070  0.008592
  5H   1pz        0.002015 -0.001014  0.001142  0.000428  0.003994 -0.001290
  5H   1px       -0.010404  0.004353  0.006595 -0.010773 -0.008749 -0.003244
  5H   1py        0.008010 -0.002094 -0.006223  0.006690  0.004993 -0.006351
  6H   1s        -0.095779  0.030439  0.085582 -0.125105  0.005690 -0.182572
  6H   2s        -0.004050  0.006697  0.012075 -0.025590 -0.002976 -0.020382
  6H   1pz        0.007949 -0.003612 -0.003241  0.006288  0.001813  0.009451
  6H   1px        0.010387 -0.003272 -0.008306  0.010026  0.002022  0.006380
  6H   1py        0.004192 -0.000123 -0.003457  0.001436 -0.005098  0.002931
  7C   1s         0.084681  0.195391  0.133982  0.054231  0.022917  0.012619
  7C   2s        -0.172579 -0.416897 -0.291291 -0.116366 -0.055398 -0.025316
  7C   3s        -0.031363 -0.013781 -0.054877  0.024838  0.018883 -0.029821
  7C   1pz        0.035861  0.040466 -0.067881 -0.081509 -0.082225 -0.113285
  7C   1px       -0.017835 -0.015695  0.029345  0.029001  0.146971 -0.084251
  7C   1py       -0.011489  0.000259  0.023650 -0.044488  0.051296  0.122815
  7C   2pz        0.007406 -0.017370 -0.020636 -0.039811 -0.045372 -0.024823
  7C   2px       -0.012845  0.000734  0.015750  0.022819  0.043604 -0.022765
  7C   2py       -0.010315  0.010223  0.008699 -0.016501  0.004603  0.029576
  7C   1dz2      -0.003321 -0.003935  0.002538  0.005055  0.002718  0.003802
  7C   1dxz       0.003254  0.002896 -0.002537 -0.003458 -0.005073  0.000351
  7C   1dyz       0.001567 -0.000146 -0.001677  0.003063 -0.001474 -0.004531
  7C   1dx2y2    -0.000294 -0.000353  0.000179  0.000298  0.003664  0.000328
  7C   1dxy      -0.000483  0.000086  0.000625 -0.000571  0.001935 -0.002758
  8H   1s        -0.061352 -0.058874  0.076469  0.155942  0.121401 -0.107032
  8H   2s        -0.000505 -0.005213  0.012715  0.018395  0.020331 -0.001792
  8H   1pz       -0.001902 -0.002552 -0.000712  0.001973  0.003576 -0.000319
  8H   1px        0.005784  0.006478 -0.005628 -0.011392 -0.003935  0.004848
  8H   1py       -0.006277 -0.004344  0.006269  0.007232  0.007507 -0.002695
  9O   1s         0.075135  0.046399 -0.027321 -0.027329 -0.007847 -0.061371
  9O   2s         0.162760  0.102196 -0.060198 -0.060639 -0.021925 -0.131392
  9O   3s         0.093964  0.056711 -0.031095 -0.021122 -0.003406 -0.158673
  9O   1pz       -0.010744 -0.043365  0.014461  0.076240 -0.109846  0.103507
  9O   1px       -0.057198 -0.048749  0.110076  0.293281 -0.337778 -0.030670
  9O   1py        0.002474  0.017419  0.012372 -0.069546  0.073917  0.231498
  9O   2pz       -0.007319 -0.021055  0.008617  0.039831 -0.052900  0.047359
  9O   2px       -0.017301 -0.019544  0.048407  0.120793 -0.141218 -0.016271
  9O   2py       -0.005659  0.001996  0.009403 -0.017831  0.022480  0.117586
  9O   1dz2      -0.000449 -0.002888 -0.001813  0.001647 -0.003424  0.000512
  9O   1dxz      -0.001490 -0.002371  0.002489  0.006799 -0.005168 -0.000736
  9O   1dyz      -0.000538 -0.001104  0.001018 -0.000106 -0.001085  0.006712
  9O   1dx2y2     0.000287 -0.000731  0.000514  0.004320 -0.000636 -0.006905
  9O   1dxy      -0.002975 -0.001166  0.004099  0.005639 -0.006852  0.002746
 10H   1s         0.063662  0.049663 -0.059972 -0.176326  0.191199  0.073877
 10H   2s         0.003494  0.001023 -0.004619 -0.020202  0.034423  0.002296
 10H   1pz       -0.001750 -0.002522  0.001144  0.005293 -0.007260  0.003777
 10H   1px        0.007339  0.005474 -0.004302 -0.015633  0.012822  0.011245
 10H   1py       -0.007026 -0.004216  0.006711  0.014551 -0.015743  0.001116
 11H   1s        -0.042549 -0.114514 -0.106846 -0.078927 -0.087107  0.068841
 11H   2s        -0.004334 -0.018188 -0.014775 -0.008790 -0.014958  0.016750
 11H   1pz        0.001314  0.003279  0.000630  0.000320  0.000281 -0.005670
 11H   1px       -0.004756 -0.012088 -0.009475 -0.005922 -0.003168  0.002534
 11H   1py        0.003837  0.008501  0.007836  0.003774  0.006219 -0.000071
 12H   1s        -0.045349 -0.117352 -0.101536 -0.065762  0.030627 -0.077473
 12H   2s         0.001282 -0.015314 -0.019363 -0.015038  0.003735 -0.017495
 12H   1pz        0.004294  0.009551  0.004943  0.002207 -0.004212  0.001965
 12H   1px        0.004694  0.011572  0.010116  0.005759  0.001876  0.002890
 12H   1py        0.001890  0.004131  0.004189  0.001220  0.000866  0.005193
 13H   1s        -0.040301 -0.115847 -0.118322 -0.035077 -0.091444 -0.095356
 13H   2s        -0.010980 -0.011291 -0.010193 -0.014343 -0.021617 -0.021538
 13H   1pz        0.002048  0.004470  0.001005 -0.001825  0.001507  0.000156
 13H   1px       -0.001390 -0.003639 -0.002694 -0.000664  0.001799 -0.004678
 13H   1py       -0.006013 -0.014232 -0.012359 -0.004768 -0.006692 -0.005413
 14H   1s        -0.069669  0.083648 -0.134523  0.053246 -0.015949 -0.011856
 14H   2s        -0.007748  0.006682 -0.016251  0.018125  0.005447 -0.001562
 14H   1pz       -0.003213  0.002985 -0.001125 -0.000874 -0.002514 -0.004261
 14H   1px        0.002904 -0.003211  0.003475 -0.000657  0.002597 -0.002386
 14H   1py        0.009850 -0.010119  0.014199 -0.006050 -0.001390 -0.000130
                     12        13        14        15        16        17   
                  -0.52196  -0.49994  -0.48518  -0.45532  -0.44819  -0.43607
                   2.00000   2.00000   2.00000   2.00000   2.00000   2.00000
                  --------  --------  --------  --------  --------  --------
  0C   1s         0.013221 -0.002272  0.001247  0.003787 -0.006553  0.020137
  0C   2s        -0.027787  0.006699  0.004247 -0.012173  0.018590 -0.054008
  0C   3s        -0.017517  0.017136 -0.070826  0.028788  0.007999 -0.055582
  0C   1pz        0.064729  0.075187  0.201252 -0.192004  0.155458 -0.222911
  0C   1px       -0.108416  0.291946 -0.063292 -0.073858 -0.142339  0.097488
  0C   1py       -0.220527 -0.116087 -0.126551 -0.262838  0.178173  0.202053
  0C   2pz        0.021408  0.031310  0.044136 -0.060220  0.062711 -0.095221
  0C   2px       -0.036746  0.117065 -0.016093 -0.036579 -0.061238  0.043127
  0C   2py       -0.080815 -0.038956 -0.043961 -0.092881  0.063102  0.069283
  0C   1dz2       0.002454 -0.000104  0.005659  0.000216  0.004578 -0.007905
  0C   1dxz      -0.000942  0.000164 -0.003073  0.006410 -0.000865  0.002093
  0C   1dyz      -0.003592 -0.002768 -0.000519  0.006639 -0.004461 -0.004796
  0C   1dx2y2     0.004589 -0.001737  0.003157  0.008120 -0.004399 -0.006596
  0C   1dxy       0.000478 -0.006244 -0.002004 -0.004616  0.006436  0.004919
  1C   1s        -0.012748 -0.000225 -0.020521 -0.019579  0.011047  0.002030
  1C   2s         0.026901  0.003567  0.047372  0.046392 -0.022483 -0.010128
  1C   3s         0.037516 -0.043581  0.100666  0.033726 -0.032970  0.025350
  1C   1pz       -0.125441  0.060693 -0.206453  0.172784 -0.177046  0.230445
  1C   1px       -0.028771  0.183618  0.044414 -0.032844  0.080492 -0.059335
  1C   1py       -0.180629 -0.088025 -0.038083  0.058511 -0.059881 -0.087761
  1C   2pz       -0.031394  0.035507 -0.112530  0.100525 -0.053534  0.056235
  1C   2px       -0.032518  0.091988  0.031482 -0.008118  0.045855 -0.012861
  1C   2py       -0.089281 -0.026435 -0.045738  0.001382 -0.012467 -0.023077
  1C   1dz2       0.001236 -0.002752  0.003481  0.000964  0.005762 -0.011977
  1C   1dxz       0.001360 -0.005833 -0.003110  0.005690 -0.000934  0.005466
  1C   1dyz       0.008300  0.004934  0.003188  0.007870 -0.008571 -0.002303
  1C   1dx2y2    -0.004673  0.005185  0.000003  0.002991 -0.005527 -0.005884
  1C   1dxy      -0.001519  0.007208 -0.001588 -0.007022  0.000435  0.001768
  2H   1s         0.012599  0.208712 -0.004806  0.102211 -0.191681 -0.028921
  2H   2s        -0.002771  0.028462  0.000594  0.029086 -0.044057 -0.004227
  2H   1pz        0.001849  0.005306  0.005167 -0.004022  0.002077 -0.005160
  2H   1px       -0.003372 -0.006735 -0.000698 -0.009223  0.008476  0.004027
  2H   1py       -0.005556  0.007575 -0.004266 -0.002859 -0.004324  0.004778
  3H   1s         0.060877 -0.164989 -0.036520  0.192358 -0.026486 -0.007015
  3H   2s         0.011589 -0.028049 -0.013337  0.045983 -0.010018  0.009961
  3H   1pz        0.005461 -0.007106  0.002576  0.004108  0.001941 -0.004715
  3H   1px       -0.000076 -0.002577 -0.004193  0.010431 -0.005534  0.001251
  3H   1py       -0.005563 -0.006848 -0.003728 -0.003580  0.005022  0.005291
  4C   1s         0.036866  0.009915 -0.008563  0.023867 -0.022055 -0.018098
  4C   2s        -0.084778 -0.026075  0.023480 -0.058552  0.054400  0.039950
  4C   3s        -0.079699  0.019634 -0.053508 -0.046113  0.029368  0.058013
  4C   1pz       -0.232506 -0.074135  0.019495  0.109421  0.029159 -0.171253
  4C   1px        0.105940 -0.144812 -0.000954  0.038421  0.150113  0.141651
  4C   1py        0.101732  0.081780 -0.058971 -0.026639 -0.035185  0.089020
  4C   2pz       -0.111078 -0.037677  0.005454 -0.002616 -0.006839 -0.050546
  4C   2px        0.050235 -0.063305 -0.025974  0.000514  0.042915  0.037119
  4C   2py        0.010365  0.058407 -0.044821 -0.054250 -0.007735  0.040759
  4C   1dz2       0.005641 -0.003288 -0.005029 -0.004114 -0.001316 -0.007343
  4C   1dxz       0.003478 -0.000120 -0.009969 -0.012617 -0.016852 -0.000413
  4C   1dyz      -0.001738  0.006306 -0.019765  0.005759  0.002766 -0.003947
  4C   1dx2y2    -0.004258  0.007125  0.006433 -0.010124  0.001152 -0.003946
  4C   1dxy      -0.002189  0.010519 -0.001352  0.004010 -0.006173 -0.006010
  5H   1s        -0.064267 -0.131710 -0.042680  0.095786 -0.109664  0.020687
  5H   2s        -0.015850 -0.005443 -0.000934  0.023844 -0.021522  0.010284
  5H   1pz       -0.002020  0.004634 -0.003167  0.003372 -0.004043  0.005585
  5H   1px       -0.004778 -0.005080 -0.002136  0.005812 -0.005458 -0.000023
  5H   1py        0.000961  0.003609  0.000814 -0.001840  0.004198 -0.003185
  6H   1s        -0.089089  0.104791 -0.060970  0.093336 -0.071349  0.047874
  6H   2s        -0.006827  0.007569 -0.020833  0.011135 -0.032533  0.010026
  6H   1pz        0.002316 -0.005488 -0.001674  0.000079 -0.001157  0.002857
  6H   1px        0.005528 -0.001154  0.003895 -0.007058  0.006613 -0.004656
  6H   1py       -0.000858 -0.003529  0.001394 -0.000351 -0.000627 -0.002801
  7C   1s        -0.028914 -0.002914 -0.000361  0.001561 -0.003485  0.011937
  7C   2s         0.065664  0.007948 -0.001150 -0.004883  0.008778 -0.031812
  7C   3s         0.066794 -0.002842  0.021520  0.027014  0.017142 -0.034967
  7C   1pz        0.277591  0.005134 -0.088492 -0.120655 -0.077336  0.124926
  7C   1px       -0.005539 -0.208478 -0.138558 -0.186532 -0.250748 -0.218325
  7C   1py        0.040314  0.125435 -0.319573 -0.026676  0.219546 -0.200007
  7C   2pz        0.087193  0.002876 -0.043370 -0.060001 -0.034038  0.066170
  7C   2px        0.007697 -0.084279 -0.050214 -0.067461 -0.094405 -0.073709
  7C   2py        0.011145  0.042757 -0.128834  0.009298  0.078174 -0.075380
  7C   1dz2      -0.008120 -0.001286 -0.000548 -0.001748 -0.002418 -0.008948
  7C   1dxz       0.003848  0.001328 -0.004537 -0.007302 -0.009258 -0.006390
  7C   1dyz      -0.000673 -0.001442 -0.002382 -0.001636  0.003797 -0.006300
  7C   1dx2y2     0.001077  0.000043 -0.007872 -0.003240  0.004848 -0.007210
  7C   1dxy       0.000579 -0.004640  0.000956 -0.003409 -0.011241 -0.000356
  8H   1s         0.000497 -0.118821  0.041942 -0.003203  0.136867  0.095156
  8H   2s        -0.005932 -0.010876  0.012738 -0.002131  0.034419  0.028054
  8H   1pz       -0.004099 -0.003985  0.002037  0.001495  0.000434 -0.003429
  8H   1px        0.002409  0.005750 -0.001044  0.001377 -0.004674 -0.002269
  8H   1py        0.002236 -0.002611  0.001831 -0.000908  0.005317  0.006159
  9O   1s         0.019837 -0.011567 -0.044799  0.036526  0.008094 -0.009509
  9O   2s         0.042715 -0.019164 -0.098817  0.077159  0.014120 -0.021942
  9O   3s         0.048346 -0.049218 -0.117136  0.084440  0.019392 -0.030130
  9O   1pz       -0.202294  0.122445  0.118720 -0.093006 -0.106800 -0.180893
  9O   1px        0.100475  0.098849 -0.157675 -0.037987 -0.100180  0.016389
  9O   1py        0.031012  0.076064  0.118798 -0.310617 -0.133587  0.142431
  9O   2pz       -0.110488  0.069043  0.070685 -0.052985 -0.057755 -0.108399
  9O   2px        0.047628  0.037564 -0.081504 -0.035138 -0.050567  0.017616
  9O   2py        0.023819  0.036381  0.062606 -0.176895 -0.082841  0.081965
  9O   1dz2      -0.007742  0.002265  0.001548  0.003773 -0.000682 -0.007293
  9O   1dxz      -0.001317  0.000820 -0.001673 -0.000691 -0.001148 -0.000992
  9O   1dyz      -0.003345  0.004529  0.002422 -0.005557 -0.003644 -0.001251
  9O   1dx2y2     0.000072 -0.002227 -0.001457  0.004155  0.003850 -0.000697
  9O   1dxy       0.003978  0.003218 -0.003322 -0.001856 -0.002657  0.001461
 10H   1s        -0.044890 -0.023797  0.112359 -0.086522  0.007003  0.034269
 10H   2s        -0.003884 -0.017585  0.018675 -0.004146  0.015757  0.011238
 10H   1pz       -0.005913  0.005987  0.001698 -0.001290 -0.003278 -0.007195
 10H   1px       -0.003369  0.001917  0.008311 -0.012984 -0.004605  0.003591
 10H   1py        0.005307  0.004042 -0.006132 -0.002168 -0.005424  0.001888
 11H   1s         0.084416  0.174014 -0.069621  0.086500  0.262115  0.058120
 11H   2s         0.013883  0.027363 -0.006407  0.009304  0.061708  0.020545
 11H   1pz        0.005377 -0.003285 -0.001788 -0.003243 -0.004670  0.001830
 11H   1px        0.006771  0.006612 -0.008743 -0.000458  0.008825 -0.002992
 11H   1py       -0.003642 -0.005667 -0.005877 -0.004714 -0.005969 -0.008866
 12H   1s         0.143184 -0.079941 -0.191851 -0.179959 -0.143068 -0.146419
 12H   2s         0.019052 -0.006445 -0.035625 -0.044076 -0.036267 -0.042978
 12H   1pz       -0.001384  0.003936  0.007112  0.004734  0.003627  0.008205
 12H   1px       -0.010239 -0.000219  0.007924  0.006096  0.001054  0.002661
 12H   1py       -0.002798  0.005786 -0.004501  0.003514  0.009908 -0.002563
 13H   1s         0.047907 -0.047016  0.234977  0.036241 -0.135564  0.217308
 13H   2s         0.007005 -0.010485  0.034410  0.020818 -0.034909  0.058689
 13H   1pz        0.006596  0.000902 -0.006659 -0.004295 -0.000044  0.000034
 13H   1px        0.001006 -0.006518  0.000556 -0.005260 -0.010241 -0.002574
 13H   1py        0.005753 -0.000473  0.009697  0.001597 -0.003661  0.010651
 14H   1s        -0.186056 -0.033606 -0.137257 -0.190061  0.088330  0.206701
 14H   2s        -0.025872 -0.010479 -0.024492 -0.047476  0.023265  0.064460
 14H   1pz       -0.002789  0.001094  0.002721 -0.007778  0.004731 -0.002430
 14H   1px        0.001859  0.008626  0.001543  0.001566 -0.005587 -0.001803
 14H   1py        0.010131 -0.000180  0.007785  0.006076 -0.001019 -0.009533
                     18        19        20        21        22        23   
                  -0.42039  -0.39524  -0.36330  -0.03184  -0.00196   0.00508
                   2.00000   2.00000   2.00000   0.00000   0.00000   0.00000
                  --------  --------  --------  --------  --------  --------
  0C   1s         0.000325 -0.010301  0.000192 -0.049457  0.051495  0.113766
  0C   2s        -0.001834  0.028731 -0.003622  0.130249 -0.125217 -0.275187
  0C   3s        -0.001557  0.030787  0.010257  0.451486 -0.696257 -1.558461
  0C   1pz       -0.105675  0.072984  0.055433 -0.069261  0.038325 -0.047936
  0C   1px       -0.284894 -0.007782  0.001146 -0.000166 -0.169382  0.043857
  0C   1py        0.023621  0.093991 -0.056174  0.014335  0.042973 -0.064556
  0C   2pz       -0.038370  0.043766  0.062090 -0.233619  0.114826 -0.130028
  0C   2px       -0.089672  0.006204  0.012431  0.013456 -0.327872  0.095775
  0C   2py        0.004263  0.035415 -0.040361  0.008682  0.064163 -0.145228
  0C   1dz2       0.009749  0.000936  0.002086  0.009810 -0.013489  0.001141
  0C   1dxz       0.018033 -0.000863  0.001874 -0.004296 -0.007042  0.000090
  0C   1dyz       0.000447 -0.008206  0.006956  0.008836  0.003791 -0.002936
  0C   1dx2y2    -0.000097 -0.003602  0.002225  0.001378  0.000874 -0.004168
  0C   1dxy       0.009325  0.005636 -0.002278 -0.006459 -0.007726  0.005785
  1C   1s        -0.000618 -0.019402  0.032575 -0.058503  0.026972 -0.016767
  1C   2s         0.000271  0.060045 -0.085122  0.144368 -0.078134  0.042281
  1C   3s         0.009016  0.013071 -0.113300  0.656031 -0.345674  0.190056
  1C   1pz        0.112801 -0.031999 -0.038342  0.060145 -0.059381 -0.093743
  1C   1px        0.327633  0.025469  0.096163  0.003420 -0.178201  0.050460
  1C   1py       -0.042872 -0.241609  0.214522  0.153820  0.057896 -0.013415
  1C   2pz        0.027598  0.007876 -0.021455  0.071747 -0.176626 -0.415946
  1C   2px        0.095312 -0.012570  0.003445  0.035495 -0.275616  0.218835
  1C   2py       -0.015979 -0.088598  0.114921  0.375723  0.143014  0.153204
  1C   1dz2       0.007910  0.005806  0.003680  0.004663  0.003717 -0.022694
  1C   1dxz       0.017187 -0.004609  0.001983 -0.006595  0.010971  0.009787
  1C   1dyz       0.002267 -0.009959  0.003651 -0.011238 -0.002610  0.012046
  1C   1dx2y2     0.001478 -0.000995  0.006313 -0.013763  0.000462 -0.005538
  1C   1dxy       0.012861  0.012066  0.000772 -0.004163  0.010774  0.000287
  2H   1s        -0.207126 -0.071079  0.025751  0.004600  0.112820  0.009840
  2H   2s        -0.072172 -0.038446  0.003547 -0.190247  0.798998  0.357053
  2H   1pz       -0.004284  0.001002  0.000279 -0.005083  0.001350 -0.003735
  2H   1px        0.002675  0.003625 -0.001344 -0.003971  0.007684  0.003161
  2H   1py       -0.008673  0.001243 -0.000605  0.003712 -0.010801 -0.003192
  3H   1s         0.245870 -0.045769  0.008986 -0.022277 -0.027219  0.050574
  3H   2s         0.078055  0.002576  0.058314 -0.314802 -0.019573  0.556627
  3H   1pz        0.006525  0.000820  0.003639 -0.002318  0.003153 -0.007503
  3H   1px        0.005300 -0.003044 -0.002040  0.009741 -0.002256 -0.004525
  3H   1py        0.006573  0.001568 -0.005074  0.002881  0.001008 -0.004416
  4C   1s         0.008455 -0.000163  0.003624 -0.033063  0.026737 -0.044460
  4C   2s        -0.017942  0.010328 -0.010668  0.090811 -0.073525  0.131699
  4C   3s        -0.044775  0.024541  0.019836  0.569302 -0.256735  0.434651
  4C   1pz       -0.037197  0.132502  0.143632  0.088806 -0.000402 -0.119971
  4C   1px       -0.077372 -0.127128 -0.061170  0.129998 -0.145026  0.003338
  4C   1py       -0.000814  0.290489 -0.133591  0.018492  0.139162 -0.061530
  4C   2pz        0.017167  0.033184  0.033321  0.167981 -0.020213 -0.318096
  4C   2px        0.029676 -0.041757 -0.011983  0.226269 -0.259982  0.110771
  4C   2py        0.004133  0.073655 -0.019534  0.041127  0.342877 -0.023857
  4C   1dz2      -0.002902  0.014796  0.025918 -0.001709 -0.004554  0.010965
  4C   1dxz       0.005989 -0.003297  0.005157  0.012264 -0.008350 -0.017755
  4C   1dyz       0.002939 -0.004601  0.000637  0.004414  0.000579 -0.014531
  4C   1dx2y2     0.010228 -0.014518  0.005148  0.005646  0.006977 -0.000069
  4C   1dxy       0.013293  0.016152 -0.015236  0.004982 -0.015177  0.006409
  5H   1s        -0.242267 -0.159017  0.008289 -0.023271 -0.085819  0.053883
  5H   2s        -0.077239 -0.079529  0.002728 -0.498149 -0.390388  0.149664
  5H   1pz        0.005157 -0.000420 -0.000592  0.000448 -0.005805 -0.008536
  5H   1px       -0.003383 -0.007452  0.002949  0.015561  0.006241  0.000847
  5H   1py        0.009414  0.000794  0.004111  0.003711 -0.000530  0.003870
  6H   1s         0.278160 -0.047502  0.079603 -0.108291  0.083616  0.043040
  6H   2s         0.093524 -0.016716  0.051132 -0.565240  0.621260  0.021301
  6H   1pz       -0.007353  0.000129 -0.004662 -0.003448  0.006727 -0.009569
  6H   1px       -0.005947  0.005010 -0.001073 -0.010166  0.005677  0.004065
  6H   1py       -0.007540 -0.005940  0.003771  0.000212  0.002681  0.006245
  7C   1s         0.003633 -0.023966 -0.033634 -0.048103 -0.006020 -0.118495
  7C   2s        -0.011291  0.067871  0.091310  0.113287  0.008228  0.292748
  7C   3s         0.002010  0.020253  0.061791  0.502943  0.088726  1.534129
  7C   1pz        0.036067 -0.173257 -0.223899  0.138534 -0.042243  0.053153
  7C   1px        0.003874  0.065705  0.006854 -0.034139 -0.157295 -0.030365
  7C   1py       -0.010723 -0.125523  0.023813  0.042723  0.082192 -0.073792
  7C   2pz        0.001875 -0.062121 -0.082274  0.352327 -0.087038  0.136070
  7C   2px       -0.025272  0.021844  0.038293 -0.091023 -0.293752 -0.136209
  7C   2py       -0.004256 -0.027830  0.006327  0.057571  0.132778 -0.177833
  7C   1dz2       0.000801  0.003650  0.003208  0.006511  0.001857  0.013022
  7C   1dxz       0.003810  0.000751 -0.005573 -0.018553  0.008653  0.006350
  7C   1dyz       0.000104 -0.011937  0.002014 -0.003340 -0.006324  0.009448
  7C   1dx2y2    -0.000086 -0.006452  0.000728 -0.001216 -0.003528  0.008885
  7C   1dxy       0.002086  0.007965 -0.004292  0.000019  0.008629 -0.001613
  8H   1s        -0.071413 -0.302470  0.008856  0.012019  0.136794 -0.074210
  8H   2s        -0.039198 -0.117803  0.005156 -0.329548  0.794887 -0.484528
  8H   1pz       -0.001845  0.000425  0.004031  0.006244 -0.005824 -0.010617
  8H   1px        0.001528  0.012106 -0.002348 -0.002112  0.011537 -0.004184
  8H   1py       -0.002078 -0.005068 -0.003508  0.005656 -0.002679  0.005387
  9O   1s        -0.012556  0.044494 -0.002330  0.073618  0.024115 -0.031134
  9O   2s        -0.029747  0.094270 -0.005598  0.168584  0.042920 -0.066735
  9O   3s         0.008124  0.132369 -0.004893  0.445370  0.222957 -0.223433
  9O   1pz        0.153631 -0.221084 -0.430402  0.055957 -0.001485  0.001755
  9O   1px        0.050523  0.085159  0.180725 -0.093490 -0.138531 -0.080435
  9O   1py        0.131694 -0.204149  0.344955  0.150659  0.041608 -0.076542
  9O   2pz        0.098534 -0.138537 -0.287024  0.057345 -0.009026 -0.012207
  9O   2px        0.037871  0.027103  0.122282 -0.122097 -0.152391 -0.102142
  9O   2py        0.084540 -0.112860  0.230017  0.165370  0.032394 -0.075057
  9O   1dz2       0.001756  0.002201 -0.005316  0.001032  0.003638 -0.000285
  9O   1dxz       0.000379  0.000041  0.003140  0.001262 -0.001384  0.001510
  9O   1dyz       0.003703 -0.002532 -0.002718  0.002095  0.003526 -0.001186
  9O   1dx2y2    -0.001893 -0.002886 -0.004513 -0.001542 -0.005564  0.005755
  9O   1dxy       0.000816  0.006181  0.000351  0.001890  0.006309  0.002053
 10H   1s         0.020736 -0.150960  0.005557 -0.148629 -0.148953  0.024704
 10H   2s        -0.003114 -0.043637 -0.000330 -0.630240 -0.508349  0.092189
 10H   1pz        0.005416 -0.004351 -0.016111 -0.002344  0.000162 -0.006194
 10H   1px        0.004708 -0.011580  0.006827  0.008690  0.008853 -0.005387
 10H   1py        0.001547  0.005331  0.012355 -0.008847 -0.005290 -0.004366
 11H   1s        -0.015715 -0.136419  0.016340 -0.009900 -0.083536 -0.066504
 11H   2s        -0.017066 -0.070357  0.007987 -0.370889 -0.555449 -0.635398
 11H   1pz        0.001121 -0.002509 -0.005505  0.012316 -0.000538 -0.000260
 11H   1px       -0.000153 -0.005723  0.000122  0.008794  0.006575  0.004491
 11H   1py       -0.000358  0.001064  0.000710 -0.006233 -0.004686 -0.009365
 12H   1s         0.026849 -0.055112 -0.078543 -0.111357  0.037470  0.017318
 12H   2s         0.028518 -0.024003 -0.048915 -0.466315  0.331845 -0.484164
 12H   1pz       -0.000192 -0.002387 -0.003102 -0.001231  0.000805  0.000517
 12H   1px       -0.000585  0.005713  0.004535 -0.009556  0.003784 -0.009257
 12H   1py       -0.000300 -0.003752  0.003098 -0.002140  0.005245 -0.006151
 13H   1s         0.009435  0.096971 -0.043863 -0.013825  0.036841 -0.148665
 13H   2s         0.000042  0.046114 -0.043876 -0.224743  0.136639 -0.980858
 13H   1pz        0.000904 -0.004790 -0.003502  0.006802  0.000809 -0.004415
 13H   1px        0.001106  0.003266 -0.000706 -0.000245 -0.003318  0.001958
 13H   1py        0.000492  0.001920 -0.002224  0.005595 -0.001054  0.014339
 14H   1s        -0.027943  0.081589 -0.067733 -0.078246  0.031615  0.074111
 14H   2s        -0.007911  0.026520 -0.024014 -0.347556  0.315796  0.749909
 14H   1pz       -0.003666  0.001727  0.001053  0.000895  0.002487 -0.003879
 14H   1px       -0.009320 -0.001486  0.000781 -0.003035 -0.002510  0.004962
 14H   1py        0.002859 -0.002420  0.002826 -0.005593  0.006283  0.010101
                     24        25        26        27        28        29   
                   0.01506   0.02533   0.04250   0.05251   0.05912   0.06379
                   0.00000   0.00000   0.00000   0.00000   0.00000   0.00000
                  --------  --------  --------  --------  --------  --------
  0C   1s        -0.052409  0.030460  0.020028 -0.028924  0.080044  0.031285
  0C   2s         0.134586 -0.067746 -0.044728  0.063565 -0.155436 -0.083164
  0C   3s         0.738127 -0.503604 -0.604435  0.600501 -1.615707 -0.435748
  0C   1pz       -0.155968  0.113811 -0.089060 -0.104658  0.000722 -0.058758
  0C   1px        0.053918  0.085541 -0.023838 -0.303395 -0.039640 -0.071574
  0C   1py        0.008699  0.230652  0.274716  0.033542 -0.130742  0.046403
  0C   2pz       -0.351997  0.212336 -0.341863 -0.151894 -0.321535 -0.153107
  0C   2px        0.204297  0.202675  0.018973 -0.744969  0.065499 -0.103030
  0C   2py       -0.041607  0.514359  0.740062  0.067530 -0.347750  0.091386
  0C   1dz2       0.007398  0.005801  0.007795 -0.012952  0.006424 -0.002095
  0C   1dxz      -0.016128  0.014337 -0.005210 -0.019252 -0.012124 -0.015450
  0C   1dyz      -0.002874  0.017365  0.007525 -0.007136 -0.002499  0.015522
  0C   1dx2y2    -0.000020  0.013960  0.022899 -0.008053 -0.006696  0.009884
  0C   1dxy       0.009101 -0.007387 -0.019636 -0.014608  0.007364 -0.011651
  1C   1s        -0.070379 -0.035657 -0.023491  0.001862 -0.119019  0.031871
  1C   2s         0.188990  0.081947  0.034954 -0.004148  0.287749 -0.060943
  1C   3s         1.015311  0.656355  0.479482 -0.055625  2.037517 -0.511150
  1C   1pz       -0.022739  0.094180 -0.106980  0.044572 -0.014681 -0.172391
  1C   1px       -0.153863  0.063700 -0.034776 -0.034555 -0.055623 -0.092081
  1C   1py        0.039286  0.150358 -0.038579 -0.007234  0.042029  0.150246
  1C   2pz        0.018751  0.170470 -0.569536  0.239017 -0.184861 -0.451740
  1C   2px       -0.402624  0.157984 -0.070200 -0.076779 -0.110729 -0.298222
  1C   2py        0.078799  0.222323 -0.275879 -0.072992  0.146537  0.538758
  1C   1dz2       0.002310 -0.001960 -0.008694  0.014848  0.004837 -0.004255
  1C   1dxz       0.008810 -0.013321  0.014408  0.017423  0.002910  0.017348
  1C   1dyz       0.014995 -0.021264 -0.019776  0.002655  0.006600 -0.009503
  1C   1dx2y2     0.006091  0.002880  0.005295 -0.001752  0.000919 -0.018952
  1C   1dxy       0.023597  0.015446 -0.001831  0.002123  0.010686  0.012412
  2H   1s        -0.071733  0.064236  0.140222  0.122116 -0.005168  0.129830
  2H   2s        -0.538177  0.488325  0.820392  0.708948  0.253706  0.520418
  2H   1pz       -0.009673  0.001011 -0.005665 -0.004408 -0.008877 -0.015522
  2H   1px       -0.005884  0.009121  0.015417  0.001863  0.002405  0.008645
  2H   1py        0.006478 -0.000102  0.005218 -0.012683 -0.005321  0.003876
  3H   1s        -0.083158  0.150239  0.016369 -0.199681 -0.013361 -0.035064
  3H   2s        -0.474688  0.899612  0.198399 -1.251571  0.264154 -0.102113
  3H   1pz        0.003976 -0.008397 -0.003678  0.015654 -0.003558  0.000740
  3H   1px        0.007166 -0.010147 -0.003587  0.006967  0.000560 -0.000947
  3H   1py       -0.002240  0.001461  0.013453  0.006213 -0.006854  0.002236
  4C   1s        -0.037076 -0.016362 -0.014102  0.056460  0.011994 -0.119943
  4C   2s         0.120913  0.048665  0.043062 -0.134852 -0.029775  0.314160
  4C   3s        -0.066723  0.037220  0.089557 -0.952979 -0.072861  1.776501
  4C   1pz       -0.154899  0.020497  0.110929 -0.058672  0.069201 -0.049489
  4C   1px       -0.201752 -0.108450  0.049919  0.017300 -0.078109  0.198878
  4C   1py       -0.156424  0.114246  0.011779  0.016337 -0.096895 -0.016780
  4C   2pz       -0.303169  0.100311  0.617856 -0.332970  0.215076  0.034705
  4C   2px       -0.339296 -0.359210  0.173001  0.044634 -0.325415  0.690925
  4C   2py       -0.415298  0.140205  0.066245  0.037222 -0.323642 -0.060637
  4C   1dz2      -0.003008 -0.008867 -0.006558  0.010977 -0.000522  0.015197
  4C   1dxz      -0.024240  0.000115  0.011704  0.008681  0.009503  0.003051
  4C   1dyz      -0.013171  0.020067 -0.017527  0.007305 -0.016586  0.004325
  4C   1dx2y2    -0.020730 -0.004992  0.005423 -0.005311 -0.015204 -0.002215
  4C   1dxy      -0.016101 -0.009722  0.006935  0.000122 -0.000642  0.001270
  5H   1s        -0.147011 -0.097184  0.005476 -0.079021 -0.143091 -0.096777
  5H   2s        -0.963792 -0.447556 -0.043002 -0.143526 -1.063768 -0.436156
  5H   1pz       -0.000081 -0.003259 -0.010655 -0.002846  0.003237 -0.011951
  5H   1px        0.004093  0.000705 -0.001502 -0.000572  0.008648  0.006955
  5H   1py       -0.014243 -0.007859 -0.002085 -0.003544 -0.011550  0.006220
  6H   1s         0.130586 -0.087049  0.044049  0.093806 -0.011312  0.078253
  6H   2s         0.115543 -0.718776  0.304686  0.086650 -0.559888  0.684490
  6H   1pz        0.001546 -0.012756 -0.000631  0.004489 -0.006120  0.003612
  6H   1px       -0.002513 -0.003276  0.006686 -0.002277 -0.007990  0.005097
  6H   1py        0.007173  0.001144 -0.009218 -0.000412  0.000978  0.011472
  7C   1s        -0.012573 -0.004717  0.023661 -0.067922  0.062423  0.044050
  7C   2s         0.037343  0.020779 -0.047290  0.146174 -0.144613 -0.075021
  7C   3s         0.242596  0.012442 -0.637912  1.298099 -1.102031 -0.945992
  7C   1pz       -0.036149  0.118442  0.027513  0.050838 -0.024609 -0.026625
  7C   1px       -0.136556  0.029630 -0.039197  0.207458  0.197462  0.041941
  7C   1py       -0.040493  0.148694 -0.276727 -0.003030 -0.065581  0.189006
  7C   2pz       -0.094878  0.317597  0.198369 -0.120254  0.113717  0.124270
  7C   2px       -0.238716  0.087211 -0.176839  0.519571  0.510728 -0.117686
  7C   2py       -0.052199  0.318664 -0.712599  0.022317 -0.191830  0.464075
  7C   1dz2       0.012664  0.007551  0.005925 -0.012119 -0.002206  0.001189
  7C   1dxz       0.023757  0.002629 -0.005683 -0.007602 -0.007347 -0.013200
  7C   1dyz       0.014342 -0.013340  0.010324 -0.005742  0.013099 -0.004401
  7C   1dx2y2     0.005184 -0.009044  0.022993 -0.005740  0.005520 -0.006486
  7C   1dxy       0.002664  0.005430 -0.013422 -0.008336 -0.022616  0.012340
  8H   1s         0.054197  0.087655 -0.052227 -0.019722 -0.027576 -0.143820
  8H   2s        -0.025022  0.513279 -0.123015  0.278588  0.085382 -1.481762
  8H   1pz       -0.005881 -0.007769  0.008834 -0.004866  0.009446 -0.003061
  8H   1px       -0.011504  0.000919  0.002978  0.002485 -0.004235 -0.013740
  8H   1py       -0.013704 -0.006085  0.006840 -0.003602 -0.010266  0.011618
  9O   1s        -0.077085 -0.043310  0.025358 -0.010461 -0.000339 -0.020276
  9O   2s        -0.166140 -0.087915  0.043022 -0.015113  0.004625 -0.051345
  9O   3s        -0.575926 -0.378856  0.313767 -0.132572 -0.057050 -0.080453
  9O   1pz       -0.165098 -0.000490 -0.003640  0.024602 -0.017285 -0.011356
  9O   1px       -0.099300  0.082188  0.057603  0.131904 -0.044761 -0.003178
  9O   1py       -0.089808 -0.076823 -0.006523 -0.043858  0.039102 -0.038679
  9O   2pz       -0.186275 -0.050045  0.034463  0.054213 -0.065481  0.022003
  9O   2px       -0.135995  0.098750  0.126033  0.171880 -0.071937 -0.006230
  9O   2py       -0.106902 -0.128895  0.040589 -0.063858  0.037270 -0.022001
  9O   1dz2      -0.002613  0.000237  0.002666 -0.007494  0.001704 -0.005574
  9O   1dxz       0.006769  0.000661  0.002881 -0.003505  0.001759  0.002338
  9O   1dyz      -0.000585  0.001129  0.001307  0.000917 -0.002394 -0.002187
  9O   1dx2y2     0.006660 -0.000989 -0.003593  0.003050 -0.002110  0.006675
  9O   1dxy      -0.000745 -0.001269  0.001429 -0.004216 -0.000781  0.001900
 10H   1s         0.094417  0.107332 -0.041932  0.150854 -0.030368  0.046849
 10H   2s         0.308641  0.470648 -0.006725  0.480136 -0.172215  0.217694
 10H   1pz       -0.007040 -0.003192  0.001224  0.004582 -0.000075 -0.004857
 10H   1px       -0.009564 -0.000890  0.000586 -0.006127  0.001718 -0.010061
 10H   1py       -0.006168  0.001014  0.004976  0.001791 -0.003563 -0.003558
 11H   1s        -0.067539 -0.086491  0.132166  0.041793  0.206158 -0.037394
 11H   2s        -0.344019 -0.369970  0.674461  0.130333  1.213918 -0.074347
[...]
     43      -0.027943  -0.006218  -0.077999  -0.039217   0.196261   0.041053
     44      -0.207872  -0.112841  -0.315139  -0.137841   0.436330   0.113413
                 30         31         32         33         34         35    
      0      -0.002004  -0.039572  -0.014826   0.016358   0.000023   0.001610
      1      -0.007556   0.005602   0.003010   0.002773   0.044411  -0.004885
      2      -0.012895   0.000243  -0.000976   0.000393   0.010937   0.000572
      3      -0.006422  -0.019543  -0.016021   0.001815   0.009583  -0.031716
      4       0.046754  -0.007917   0.010103   0.007706   0.050160   0.054487
      5       0.046084  -0.015153   0.024434   0.017545   0.000417   0.031780
      6       0.120907   0.128329   0.094607  -0.084814  -0.340023  -0.022108
      7       0.145033   0.308525   0.186884  -0.172734  -0.361036   0.012946
      8       0.082352  -0.265147  -0.109206   0.127347  -0.346925   0.005350
      9      -0.131423  -0.034207  -0.054602   0.043611   0.367512  -0.011339
     10       0.082787  -0.329646  -0.116899   0.147301  -0.509770  -0.007988
     11       0.100351   0.196617   0.123969  -0.122482  -0.137890  -0.008136
     12      -0.006697   0.019949  -0.008653   0.033030  -0.007868   0.010347
     13      -0.011954  -0.008426   0.051863   0.018851  -0.012456  -0.010114
     14       0.017257  -0.004138   0.002601   0.018199   0.008117  -0.001905
     15      -0.330948   0.081077  -0.157294  -0.069973  -0.138538   0.685582
     16      -0.256425   0.085967  -0.121071  -0.040909  -0.121529  -0.544892
     17      -0.376903   0.108910  -0.148437  -0.173549  -0.051833  -0.147621
     18       0.359903  -0.076666   0.178133   0.083715   0.090893  -0.301250
     19      -0.390317   0.079453  -0.156894  -0.154106  -0.164297  -0.104618
     20      -0.208836   0.014271  -0.146781  -0.005068   0.003484  -0.230445
     21       0.000535   0.025896  -0.006713   0.038173  -0.001786   0.001840
     22      -0.021611  -0.009056   0.032132   0.013103  -0.000275  -0.001109
     23      -0.008664   0.001911   0.005467   0.003028  -0.000236  -0.005245
     24      -0.013872   0.020608  -0.167933  -0.054211   0.000984  -0.140565
     25       0.003743  -0.014860  -0.123548  -0.066442   0.005428   0.115962
     26      -0.070229   0.016837  -0.034462  -0.083807  -0.019120   0.030729
     27       0.002145  -0.002269   0.008306  -0.003017   0.000700   0.000096
     28      -0.002743   0.005825  -0.017155  -0.003661   0.000032   0.000284
     29      -0.002962   0.004330  -0.007306  -0.002789  -0.000956   0.000139
     30       0.025326  -0.042423   0.104156  -0.005752   0.008436   0.006792
     31       0.027410  -0.038199   0.090412  -0.008018   0.007446  -0.001031
     32       0.010678  -0.047587   0.116415   0.001147   0.012823  -0.000548
     33       0.184379  -0.088552  -0.215231  -0.332175   0.032196  -0.055835
     34       0.143240  -0.192494  -0.118977  -0.448211   0.039701   0.047456
     35       0.203181   0.185859  -0.361422   0.077045   0.004928   0.011532
     36      -0.149224   0.027313   0.188152   0.202683  -0.019867   0.052028
     37       0.304116   0.244727  -0.508678   0.049156   0.019769   0.016636
     38       0.050991  -0.116300  -0.020249  -0.242628   0.015398   0.038106
     39      -0.024541  -0.364039   0.172099  -0.525698   0.034142  -0.014068
     40      -0.051705   0.090756   0.039280   0.197237  -0.019486  -0.051063
     41      -0.197417  -0.086885   0.305693   0.068897  -0.036975   0.008538
     42       0.099275   0.542705   0.276746  -0.274489  -0.046271   0.012748
     43      -0.031468  -0.090804  -0.055338   0.049207   0.128087   0.054779
     44      -0.045004   0.128903   0.014767  -0.069316   0.342090  -0.010012
                 36         37         38         39         40         41    
      0      -0.000708  -0.006891  -0.024055  -0.010528   0.007138  -0.049165
      1      -0.000538   0.002454  -0.000484   0.002176  -0.005625   0.075702
      2       0.002064   0.013484   0.042826  -0.008163   0.002564  -0.014718
      3      -0.006576  -0.008070   0.009399   0.078351  -0.006410  -0.011249
      4       0.003334  -0.012173   0.002393   0.000941   0.000025   0.004284
      5      -0.000934  -0.014926   0.005184   0.036756  -0.002719  -0.001746
      6       0.020016   0.162797   0.517748   0.035396  -0.058696   0.579048
      7      -0.014005  -0.113388  -0.358181  -0.028177   0.040712  -0.388167
      8      -0.003592  -0.029196  -0.100840  -0.006987   0.011533  -0.121320
      9      -0.018496  -0.114393  -0.343662   0.110497  -0.037066   0.157952
     10      -0.008440  -0.050998  -0.155219   0.053164  -0.019093   0.092708
     11      -0.014886  -0.090305  -0.269407   0.087824  -0.030044   0.134043
     12       0.015850   0.055492  -0.015646   0.014650  -0.010859  -0.002759
     13      -0.012850  -0.045447   0.014018  -0.011840   0.007869   0.001721
     14      -0.005702  -0.012995   0.003935  -0.001942   0.002272   0.000539
     15       0.057923  -0.087481  -0.014232  -0.302805   0.028795   0.079256
     16      -0.048873   0.068974   0.012736   0.256669  -0.027165  -0.063871
     17      -0.012937   0.015342   0.006998   0.075880  -0.005477  -0.019857
     18       0.024741   0.187157  -0.097666  -0.638158   0.050391   0.051580
     19       0.010469   0.070138  -0.038228  -0.259529   0.021568   0.019477
     20       0.021669   0.153680  -0.077910  -0.518017   0.040356   0.042455
     21      -0.024317  -0.001477   0.000837  -0.010106  -0.073036  -0.006135
     22       0.013420   0.003427  -0.002117   0.004382   0.043972   0.003530
     23       0.043086  -0.014347   0.002114  -0.003083  -0.027691  -0.002204
     24      -0.194503  -0.663425   0.193081  -0.158196   0.106171   0.027504
     25       0.157929   0.539003  -0.158900   0.130318  -0.085632  -0.025200
     26       0.046700   0.148463  -0.042884   0.034288  -0.025081  -0.004950
     27       0.000029   0.000026  -0.000032  -0.000577   0.000608   0.000099
     28       0.000488   0.001341  -0.000473   0.000458  -0.000309  -0.000150
     29       0.000461   0.001113  -0.000561  -0.000004  -0.000115   0.000086
     30       0.006102   0.007015  -0.002627  -0.000071   0.000602   0.000568
     31      -0.004782  -0.010977   0.004247  -0.006437   0.002771   0.001335
     32       0.000217  -0.006314   0.001741  -0.001376   0.005411   0.000360
     33       0.543002  -0.084920   0.003296   0.063451   0.489761   0.042671
     34      -0.448734   0.068577  -0.002212  -0.054252  -0.407267  -0.034923
     35      -0.134016   0.021787  -0.001331  -0.015702  -0.134438  -0.012447
     36      -0.372632   0.151836  -0.023549   0.063419   0.497349   0.041202
     37      -0.115485   0.051253  -0.008387   0.022885   0.174901   0.014517
     38      -0.278970   0.111150  -0.016818   0.047753   0.391048   0.032639
     39       0.115734  -0.051762   0.010706  -0.010322  -0.108126  -0.008069
     40       0.397378  -0.162166   0.033924  -0.020181  -0.292114  -0.022131
     41      -0.085085   0.034209  -0.006439   0.002842   0.065104   0.004792
     42       0.005343   0.027408   0.108509  -0.016360   0.012149  -0.147430
     43       0.026684   0.134812   0.513160  -0.050005   0.045223  -0.607007
     44      -0.005347  -0.033503  -0.128366   0.012724  -0.011848   0.158952
                  42         43         44    
      0      -0.024657   0.065517   0.000068
      1      -0.018480   0.050246  -0.000016
      2      -0.009236   0.025651  -0.000037
      3      -0.001824   0.009026  -0.000517
      4      -0.000344   0.001105   0.000275
      5      -0.000896   0.005316  -0.000063
      6       0.052484  -0.128782  -0.000584
      7      -0.042156   0.105396   0.000086
      8      -0.013492   0.032960   0.000043
      9       0.208928  -0.566406   0.000635
     10       0.094957  -0.256822   0.000574
     11       0.170787  -0.465529  -0.000452
     12      -0.000669   0.000755   0.001840
     13       0.002711   0.000481  -0.002568
     14       0.000553   0.000649  -0.001331
     15       0.007470  -0.025389   0.003128
     16      -0.006137   0.018830   0.000521
     17      -0.001140   0.006547  -0.000991
     18       0.011799  -0.079094  -0.002070
     19       0.003815  -0.030703  -0.001806
     20       0.011708  -0.066125  -0.000635
     21       0.041335   0.016861  -0.000529
     22       0.076034   0.026987   0.000259
     23       0.011937   0.005230   0.000081
     24       0.017625  -0.001272  -0.008804
     25      -0.016791   0.000426   0.011430
     26      -0.004855  -0.000167   0.005555
     27      -0.000458  -0.000287   0.050241
     28      -0.000367   0.000008  -0.035404
     29       0.000103  -0.000433  -0.008240
     30       0.002032   0.000604  -0.799996
     31       0.000374  -0.000568   0.578925
     32      -0.000843  -0.000254   0.143915
     33       0.106846   0.029491   0.001826
     34      -0.068825  -0.017218  -0.001977
     35      -0.023467  -0.005871   0.001809
     36      -0.380482  -0.153187  -0.001696
     37      -0.113878  -0.046620  -0.000557
     38      -0.295828  -0.119173  -0.003008
     39      -0.222175  -0.078984   0.000194
     40      -0.728319  -0.259984  -0.000421
     41       0.173837   0.062029   0.000464
     42       0.033722  -0.090552  -0.000335
     43       0.168783  -0.452041  -0.000423
     44      -0.046438   0.123396   0.000166


-----------
IR SPECTRUM
-----------

 Mode    freq (cm**-1)   T**2         TX         TY         TZ
-------------------------------------------------------------------
   6:       125.47    0.122701  (  0.330008   0.101732   0.058706)
   7:       227.69    0.027648  ( -0.115663   0.052249   0.107427)
   8:       241.40    2.139551  (  0.479807   1.030150  -0.920938)
   9:       257.23    0.308234  ( -0.470507  -0.220466  -0.195582)
  10:       318.49   92.794251  ( -3.520092  -5.722928   6.902992)
  11:       374.19   17.270613  (  1.664452   2.250161  -3.071968)
  12:       462.18    7.777230  ( -0.642981   1.393674  -2.328407)
  13:       491.61   13.986219  (  2.049002   2.114669  -2.305642)
  14:       760.89    0.635697  (  0.468204  -0.234145  -0.601380)
  15:       800.91    4.279736  (  1.726195   0.056070   1.138791)
  16:       901.62    9.350562  (  1.780307   2.122714   1.294277)
  17:       948.04    9.795976  (  1.948268  -1.008310   2.232384)
  18:       974.98   21.443672  ( -3.208462  -2.707198  -1.954616)
  19:      1028.50    2.241682  ( -0.331606  -0.004763  -1.460033)
  20:      1062.50   61.488909  ( -5.885845  -3.105908  -4.147177)
  21:      1101.25   21.058878  ( -0.333707   1.382277  -4.363121)
  22:      1143.75   21.473312  ( -3.462199  -2.568216  -1.700222)
  23:      1217.28    5.805936  (  1.514201   0.690332   1.742576)
  24:      1271.27    6.390819  ( -1.657018  -1.400714   1.297348)
  25:      1294.57    1.958358  (  1.121543   0.821259   0.161346)
  26:      1336.69    1.678935  ( -0.589906   0.832573  -0.798604)
  27:      1345.74    9.664335  (  1.347964   1.315635  -2.473142)
  28:      1352.06    3.841174  (  0.272850   1.011048   1.656656)
  29:      1374.74   37.878707  ( -3.602202  -3.029288  -3.965635)
  30:      1411.27    0.366346  (  0.454181   0.311704   0.250811)
  31:      1422.26    0.091446  ( -0.083822   0.057286   0.284847)
  32:      1425.84   14.906245  (  3.328429  -1.247102   1.507495)
  33:      1426.37    3.597889  ( -1.751896   0.407527  -0.602220)
  34:      1439.91    5.270378  ( -0.283115  -2.277858  -0.039810)
  35:      2934.76   19.331422  ( -1.607841   3.026024   2.754896)
  36:      2953.80   15.809442  ( -1.470846   0.005859   3.694052)
  37:      2964.36   25.925181  (  2.868851  -3.761522  -1.883038)
  38:      2966.88   37.353892  ( -3.172909   0.095474   5.222779)
  39:      2993.54   24.292992  (  4.653427   0.085482   1.622129)
  40:      3037.83   29.399051  ( -4.585590   2.355584  -1.680072)
  41:      3046.42   35.580009  ( -3.348255   4.802413  -1.142815)
  42:      3062.91    8.689613  (  0.727343   2.854690  -0.106447)
  43:      3064.79   28.297313  (  3.933808   3.263188   1.474475)
  44:      3664.16    8.815503  ( -2.837875   0.857205  -0.164833)

The first frequency considered to be a vibration is 6
The total number of vibrations considered is 39


--------------------------
THERMOCHEMISTRY AT 298.15K
--------------------------

Temperature         ... 298.15 K
Pressure            ... 1.00 atm
Total Mass          ... 74.12 AMU

Throughout the following assumptions are being made:
  (1) The electronic state is orbitally nondegenerate
  (2) There are no thermally accessible electronically excited states
  (3) Hindered rotations indicated by low frequency modes are not
      treated as such but are treated as vibrations and this may
      cause some error
  (4) All equations used are the standard statistical mechanics
      equations for an ideal gas
  (5) All vibrations are strictly harmonic

freq.     125.47  E(vib)   ...       0.43 
freq.     227.69  E(vib)   ...       0.33 
freq.     241.40  E(vib)   ...       0.31 
freq.     257.23  E(vib)   ...       0.30 
freq.     318.49  E(vib)   ...       0.25 
freq.     374.19  E(vib)   ...       0.21 
freq.     462.18  E(vib)   ...       0.16 
freq.     491.61  E(vib)   ...       0.14 
freq.     760.89  E(vib)   ...       0.06 
freq.     800.91  E(vib)   ...       0.05 
freq.     901.62  E(vib)   ...       0.03 
freq.     948.04  E(vib)   ...       0.03 
freq.     974.98  E(vib)   ...       0.03 
freq.    1028.50  E(vib)   ...       0.02 
freq.    1062.50  E(vib)   ...       0.02 
freq.    1101.25  E(vib)   ...       0.02 
freq.    1143.75  E(vib)   ...       0.01 
freq.    1217.28  E(vib)   ...       0.01 
freq.    1271.27  E(vib)   ...       0.01 
freq.    1294.57  E(vib)   ...       0.01 
freq.    1336.69  E(vib)   ...       0.01 
freq.    1345.74  E(vib)   ...       0.01 
freq.    1352.06  E(vib)   ...       0.01 
freq.    1374.74  E(vib)   ...       0.01 
freq.    1411.27  E(vib)   ...       0.00 
freq.    1422.26  E(vib)   ...       0.00 
freq.    1425.84  E(vib)   ...       0.00 
freq.    1426.37  E(vib)   ...       0.00 
freq.    1439.91  E(vib)   ...       0.00 
freq.    2934.76  E(vib)   ...       0.00 
freq.    2953.80  E(vib)   ...       0.00 
freq.    2964.36  E(vib)   ...       0.00 
freq.    2966.88  E(vib)   ...       0.00 
freq.    2993.54  E(vib)   ...       0.00 
freq.    3037.83  E(vib)   ...       0.00 
freq.    3046.42  E(vib)   ...       0.00 
freq.    3062.91  E(vib)   ...       0.00 
freq.    3064.79  E(vib)   ...       0.00 
freq.    3664.16  E(vib)   ...       0.00 

------------
INNER ENERGY
------------

The inner energy is: U= E(el) + E(ZPE) + E(vib) + E(rot) + E(trans)
    E(el)   - is the total energy from the electronic structure calculation
              = E(kin-el) + E(nuc-el) + E(el-el) + E(nuc-nuc)
    E(ZPE)  - the the zero temperature vibrational energy from the frequency calculation
    E(vib)  - the the finite temperature correction to E(ZPE) due to population
              of excited vibrational states
    E(rot)  - is the rotational thermal energy
    E(trans)- is the translational thermal energy

Summary of contributions to the inner energy U:
Electronic energy                ...   -233.44451197 Eh
Zero point energy                ...      0.13265348 Eh      83.24 kcal/mol
Thermal vibrational correction   ...      0.00392276 Eh       2.46 kcal/mol
Thermal rotational correction    ...      0.00141627 Eh       0.89 kcal/mol
Thermal translational correction ...      0.00141627 Eh       0.89 kcal/mol
-----------------------------------------------------------------------
Total thermal energy                   -233.30510318 Eh


Summary of corrections to the electronic energy:
(perhaps to be used in another calculation)
Total thermal correction                  0.00675531 Eh       4.24 kcal/mol
Non-thermal (ZPE) correction              0.13265348 Eh      83.24 kcal/mol
-----------------------------------------------------------------------
Total correction                          0.13940879 Eh      87.48 kcal/mol


--------
ENTHALPY
--------

The enthalpy is H = U + kB*T
                kB is Boltzmann's constant
Total free energy                 ...   -233.30510318 Eh 
Thermal Enthalpy correction       ...      0.00094421 Eh       0.59 kcal/mol
-----------------------------------------------------------------------
Total Enthalpy                    ...   -233.30415898 Eh


Note: Only C1 symmetry has been detected, increase convergence thresholds 
      if your molecule has a higher symmetry. Symmetry factor of 1.0 is   
      used for the rotational entropy correction. 
 

Note: Rotational entropy computed according to Herzberg 
Infrared and Raman Spectra, Chapter V,1, Van Nostrand Reinhold, 1945 
Point Group:  C1, Symmetry Number:   1  
Rotational constants in cm-1:     0.263100     0.113244     0.087887 

Vibrational entropy computed according to the QRRHO of S. Grimme
Chem.Eur.J. 2012 18 9955


-------
ENTROPY
-------

The entropy contributions are T*S = T*(S(el)+S(vib)+S(rot)+S(trans))
     S(el)   - electronic entropy
     S(vib)  - vibrational entropy
     S(rot)  - rotational entropy
     S(trans)- translational entropy
The entropies will be listed as mutliplied by the temperature to get
units of energy

Electronic entropy                ...      0.00000000 Eh      0.00 kcal/mol
Vibrational entropy               ...      0.00639558 Eh      4.01 kcal/mol
Rotational entropy                ...      0.01231745 Eh      7.73 kcal/mol
Translational entropy             ...      0.01844715 Eh     11.58 kcal/mol
-----------------------------------------------------------------------
Final entropy term                ...      0.03716018 Eh     23.32 kcal/mol

In case the symmetry of your molecule has not been determined correctly
or in case you have a reason to use a different symmetry number we print 
out the resulting rotational entropy values for sn=1,12 :
 --------------------------------------------------------
|  sn= 1 | S(rot)=       0.01231745 Eh      7.73 kcal/mol|
|  sn= 2 | S(rot)=       0.01166300 Eh      7.32 kcal/mol|
|  sn= 3 | S(rot)=       0.01128016 Eh      7.08 kcal/mol|
|  sn= 4 | S(rot)=       0.01100854 Eh      6.91 kcal/mol|
|  sn= 5 | S(rot)=       0.01079785 Eh      6.78 kcal/mol|
|  sn= 6 | S(rot)=       0.01062571 Eh      6.67 kcal/mol|
|  sn= 7 | S(rot)=       0.01048016 Eh      6.58 kcal/mol|
|  sn= 8 | S(rot)=       0.01035408 Eh      6.50 kcal/mol|
|  sn= 9 | S(rot)=       0.01024287 Eh      6.43 kcal/mol|
|  sn=10 | S(rot)=       0.01014339 Eh      6.37 kcal/mol|
|  sn=11 | S(rot)=       0.01005340 Eh      6.31 kcal/mol|
|  sn=12 | S(rot)=       0.00997125 Eh      6.26 kcal/mol|
 --------------------------------------------------------


-------------------
GIBBS FREE ENERGY
-------------------

The Gibbs free energy is G = H - T*S

Total enthalpy                    ...   -233.30415898 Eh 
Total entropy correction          ...     -0.03716018 Eh    -23.32 kcal/mol
-----------------------------------------------------------------------
Final Gibbs free energy         ...   -233.34131916 Eh

For completeness - the Gibbs free energy minus the electronic energy
G-E(el)                           ...      0.10319282 Eh     64.75 kcal/mol


Timings for individual modules:

Sum of individual times         ...      107.637 sec (=   1.794 min)
GTO integral calculation        ...        3.796 sec (=   0.063 min)   3.5 %
SCF iterations                  ...       32.229 sec (=   0.537 min)  29.9 %
SCF Gradient evaluation         ...       16.278 sec (=   0.271 min)  15.1 %
Geometry relaxation             ...        0.454 sec (=   0.008 min)   0.4 %
Analytical frequency calculation...       54.880 sec (=   0.915 min)  51.0 %
                             ****ORCA TERMINATED NORMALLY****
TOTAL RUN TIME: 0 days 0 hours 1 minutes 48 seconds 937 msec
