
                                 *****************
                                 * O   R   C   A *
                                 *****************

           --- An Ab Initio, DFT and Semiempirical electronic structure package ---

                  #######################################################
                  #                        -***-                        #
                  #          Department of theory and spectroscopy      #
                  #               Directorship: Frank Neese             #
                  #        Max Planck Institute fuer Kohlenforschung    #
                  #                Kaiser Wilhelm Platz 1               #
                  #                 D-45470 Muelheim/Ruhr               #
                  #                      Germany                        #
                  #                                                     #
                  #                  All rights reserved                #
                  #                        -***-                        #
                  #######################################################


                         Program Version 4.2.1 -  RELEASE  -


 With contributions from (in alphabetic order):
   Daniel Aravena         : Magnetic Suceptibility
   Michael Atanasov       : Ab Initio Ligand Field Theory (pilot matlab implementation)
   Alexander A. Auer      : GIAO ZORA, VPT2
   Ute Becker             : Parallelization
   Giovanni Bistoni       : ED, misc. LED, open-shell LED, HFLD
   Martin Brehm           : Molecular dynamics
   Dmytro Bykov           : SCF Hessian
   Vijay G. Chilkuri      : MRCI spin determinant printing, contributions to CSF-ICE
   Dipayan Datta          : RHF DLPNO-CCSD density
   Achintya Kumar Dutta   : EOM-CC, STEOM-CC
   Dmitry Ganyushin       : Spin-Orbit,Spin-Spin,Magnetic field MRCI
   Miquel Garcia          : C-PCM Hessian, Gaussian charge scheme
   Yang Guo               : DLPNO-NEVPT2, CIM, IAO-localization
   Andreas Hansen         : Spin unrestricted coupled pair/coupled cluster methods
   Benjamin Helmich-Paris : CASSCF linear response (MC-RPA)
   Lee Huntington         : MR-EOM, pCC
   Robert Izsak           : Overlap fitted RIJCOSX, COSX-SCS-MP3, EOM
   Christian Kollmar      : KDIIS, OOCD, Brueckner-CCSD(T), CCSD density
   Simone Kossmann        : Meta GGA functionals, TD-DFT gradient, OOMP2, MP2 Hessian
   Martin Krupicka        : AUTO-CI
   Lucas Lang             : DCDCAS
   Dagmar Lenk            : GEPOL surface, SMD
   Dimitrios Liakos       : Extrapolation schemes; Compound Job, initial MDCI parallelization
   Dimitrios Manganas     : Further ROCIS development; embedding schemes
   Dimitrios Pantazis     : SARC Basis sets
   Taras Petrenko         : DFT Hessian,TD-DFT gradient, ASA, ECA, R-Raman, ABS, FL, XAS/XES, NRVS
   Peter Pinski           : DLPNO-MP2, DLPNO-MP2 Gradient
   Christoph Reimann      : Effective Core Potentials
   Marius Retegan         : Local ZFS, SOC
   Christoph Riplinger    : Optimizer, TS searches, QM/MM, DLPNO-CCSD(T), (RO)-DLPNO pert. Triples
   Tobias Risthaus        : Range-separated hybrids, TD-DFT gradient, RPA, STAB
   Michael Roemelt        : Original ROCIS implementation
   Masaaki Saitow         : Open-shell DLPNO-CCSD energy and density
   Barbara Sandhoefer     : DKH picture change effects
   Avijit Sen             : IP-ROCIS
   Kantharuban Sivalingam : CASSCF convergence, NEVPT2, FIC-MRCI
   Bernardo de Souza      : ESD, SOC TD-DFT
   Georgi Stoychev        : AutoAux, RI-MP2 NMR
   Willem Van den Heuvel  : Paramagnetic NMR
   Boris Wezisla          : Elementary symmetry handling
   Frank Wennmohs         : Technical directorship


 We gratefully acknowledge several colleagues who have allowed us to
 interface, adapt or use parts of their codes:
   Stefan Grimme, W. Hujo, H. Kruse,             : VdW corrections, initial TS optimization,
                  C. Bannwarth                     DFT functionals, gCP, sTDA/sTD-DF
   Ed Valeev, F. Pavosevic, A. Kumar             : LibInt (2-el integral package), F12 methods
   Garnet Chan, S. Sharma, J. Yang, R. Olivares  : DMRG
   Ulf Ekstrom                                   : XCFun DFT Library
   Mihaly Kallay                                 : mrcc  (arbitrary order and MRCC methods)
   Andreas Klamt, Michael Diedenhofen            : otool_cosmo (COSMO solvation model)
   Jiri Pittner, Ondrej Demel                    : Mk-CCSD
   Frank Weinhold                                : gennbo (NPA and NBO analysis)
   Christopher J. Cramer and Donald G. Truhlar   : smd solvation model
   Lars Goerigk                                  : TD-DFT with DH, B97 family of functionals
   V. Asgeirsson, H. Jonsson                     : NEB implementation
   FAccTs GmbH                                   : IRC, NEB, NEB-TS, Multilevel, MM, QM/MM, CI optimization
   S Lehtola, MJT Oliveira, MAL Marques          : LibXC Library


 Your calculation uses the libint2 library for the computation of 2-el integrals
 For citations please refer to: http://libint.valeyev.net

 Your ORCA version has been built with support for libXC version: 4.2.3
 For citations please refer to: https://tddft.org/programs/libxc/

 This ORCA versions uses:
   CBLAS   interface :  Fast vector & matrix operations
   LAPACKE interface :  Fast linear algebra routines
   SCALAPACK package :  Parallel linear algebra routines




***************************************
The coordinates will be read from file: init.xyz
***************************************


Your calculation utilizes the geometrical counterpoise correction gCP
Please cite in your paper:
H.Kruse, S. Grimme J.Chem.Phys., 136, (2012), 154101 
   

Your calculation utilizes the atom-pairwise dispersion correction
based on tight binding partial charges (D4)
Cite in your paper:
E.Caldeweyher, C.Bannwarth, S.Grimme, J.Chem.Phys., (2017), 147, 034112.
E.Caldeweyher, S.Ehlert, A.Hansen, H.Neugebauer, S.Grimme, J.Chem.Phys., (2018), in progress.
   

----- Orbital basis set information -----
Your calculation utilizes the basis: def2-SVP
   F. Weigend and R. Ahlrichs, Phys. Chem. Chem. Phys. 7, 3297 (2005).

----- AuxJ basis set information -----
Your calculation utilizes the auxiliary basis: def2/J
   F. Weigend, Phys. Chem. Chem. Phys. 8, 1057 (2006).

================================================================================
                                        WARNINGS
                       Please study these warnings very carefully!
================================================================================


WARNING: Geometry Optimization
  ===> : Switching off AutoStart
         For restart on a previous wavefunction, please use MOREAD

INFO   : the flag for use of LIBINT has been found!

================================================================================
                                       INPUT FILE
================================================================================
NAME = opt.inp
|  1> ! revPBE D4 gCP(DFT/TZ) def2-SVP Opt Freq TightOpt TightSCF Grid4 FinalGrid5 LargePrint
|  2> 
|  3> %pal
|  4>  nprocs 8
|  5> end
|  6> 
|  7> *xyzfile 0 1 init.xyz
|  8> 
|  9>                          ****END OF INPUT****
================================================================================

                       *****************************
                       * Geometry Optimization Run *
                       *****************************

Geometry optimization settings:
Update method            Update   .... BFGS
Choice of coordinates    CoordSys .... Z-matrix Internals
Initial Hessian          InHess   .... Almoef's Model

Convergence Tolerances:
Energy Change            TolE     ....  1.0000e-06 Eh
Max. Gradient            TolMAXG  ....  1.0000e-04 Eh/bohr
RMS Gradient             TolRMSG  ....  3.0000e-05 Eh/bohr
Max. Displacement        TolMAXD  ....  1.0000e-03 bohr
RMS Displacement         TolRMSD  ....  6.0000e-04 bohr
Strict Convergence                ....  False
------------------------------------------------------------------------------
                        ORCA OPTIMIZATION COORDINATE SETUP
------------------------------------------------------------------------------

The optimization will be done in new redundant internal coordinates
Making redundant internal coordinates   ...  (new redundants) done
Evaluating the initial hessian          ...  (Almloef) done
Evaluating the coordinates              ...  done
Calculating the B-matrix                .... done
Calculating the G-matrix                .... done
Diagonalizing the G-matrix              .... done
The first mode is                       ....   30
The number of degrees of freedom        ....   39

    -----------------------------------------------------------------
                    Redundant Internal Coordinates


    -----------------------------------------------------------------
         Definition                    Initial Value    Approx d2E/dq
    -----------------------------------------------------------------
      1. B(O   1,C   0)                  1.4075         0.524814   
      2. B(C   2,C   0)                  1.5399         0.360265   
      3. B(C   3,C   0)                  1.5399         0.360274   
      4. B(C   4,C   0)                  1.5355         0.366075   
      5. B(H   5,O   1)                  0.9934         0.459863   
      6. B(H   6,C   4)                  1.1114         0.332931   
      7. B(H   7,C   4)                  1.1114         0.332932   
      8. B(H   8,C   3)                  1.1115         0.332743   
      9. B(H   9,C   3)                  1.1111         0.333214   
     10. B(H  10,C   3)                  1.1112         0.333110   
     11. B(H  11,C   4)                  1.1116         0.332571   
     12. B(H  12,C   2)                  1.1112         0.333109   
     13. B(H  13,C   2)                  1.1111         0.333203   
     14. B(H  14,C   2)                  1.1115         0.332747   
     15. A(C   2,C   0,C   4)          109.3018         0.359862   
     16. A(C   3,C   0,C   4)          109.3018         0.359863   
     17. A(C   2,C   0,C   3)          110.3600         0.358884   
     18. A(O   1,C   0,C   2)          109.8793         0.380452   
     19. A(O   1,C   0,C   4)          108.0786         0.381509   
     20. A(O   1,C   0,C   3)          109.8791         0.380453   
     21. A(C   0,O   1,H   5)          108.0303         0.352287   
     22. A(H  12,C   2,H  14)          108.6097         0.283797   
     23. A(H  12,C   2,H  13)          108.2234         0.283857   
     24. A(C   0,C   2,H  12)          110.3568         0.318315   
     25. A(H  13,C   2,H  14)          108.3303         0.283809   
     26. A(C   0,C   2,H  14)          110.7223         0.318258   
     27. A(C   0,C   2,H  13)          110.5223         0.318329   
     28. A(H   8,C   3,H  10)          108.6095         0.283797   
     29. A(C   0,C   3,H  10)          110.3571         0.318316   
     30. A(H   8,C   3,H   9)          108.3297         0.283810   
     31. A(C   0,C   3,H   9)          110.5223         0.318332   
     32. A(C   0,C   3,H   8)          110.7220         0.318259   
     33. A(H   9,C   3,H  10)          108.2240         0.283859   
     34. A(H   6,C   4,H   7)          108.1052         0.283798   
     35. A(H   7,C   4,H  11)          108.5248         0.283750   
     36. A(H   6,C   4,H  11)          108.5246         0.283750   
     37. A(C   0,C   4,H   7)          110.3756         0.319119   
     38. A(C   0,C   4,H  11)          110.8569         0.319062   
     39. A(C   0,C   4,H   6)          110.3756         0.319119   
     40. D(H   5,O   1,C   0,C   3)    -60.8062         0.021854   
     41. D(H   5,O   1,C   0,C   4)    179.9993         0.021854   
     42. D(H   5,O   1,C   0,C   2)     60.8048         0.021854   
     43. D(H  12,C   2,C   0,C   4)    -59.9674         0.010412   
     44. D(H  14,C   2,C   0,C   4)     60.3169         0.010412   
     45. D(H  13,C   2,C   0,O   1)    -61.1979         0.010412   
     46. D(H  13,C   2,C   0,C   4)   -179.6403         0.010412   
     47. D(H  14,C   2,C   0,O   1)    178.7594         0.010412   
     48. D(H  12,C   2,C   0,O   1)     58.4750         0.010412   
     49. D(H  14,C   2,C   0,C   3)    -59.9175         0.010412   
     50. D(H  13,C   2,C   0,C   3)     60.1253         0.010412   
     51. D(H  12,C   2,C   0,C   3)    179.7982         0.010412   
     52. D(H   8,C   3,C   0,O   1)   -178.7597         0.010412   
     53. D(H   8,C   3,C   0,C   2)     59.9170         0.010412   
     54. D(H  10,C   3,C   0,C   4)     59.9667         0.010412   
     55. D(H  10,C   3,C   0,C   2)   -179.7989         0.010412   
     56. D(H  10,C   3,C   0,O   1)    -58.4756         0.010412   
     57. D(H   9,C   3,C   0,C   4)    179.6407         0.010412   
     58. D(H   9,C   3,C   0,C   2)    -60.1249         0.010412   
     59. D(H   9,C   3,C   0,O   1)     61.1984         0.010412   
     60. D(H   8,C   3,C   0,C   4)    -60.3174         0.010412   
     61. D(H  11,C   4,C   0,C   3)     60.4409         0.010727   
     62. D(H  11,C   4,C   0,C   2)    -60.4400         0.010727   
     63. D(H  11,C   4,C   0,O   1)   -179.9997         0.010727   
     64. D(H   7,C   4,C   0,C   3)    -59.8372         0.010727   
     65. D(H   7,C   4,C   0,C   2)    179.2820         0.010727   
     66. D(H   7,C   4,C   0,O   1)     59.7223         0.010727   
     67. D(H   6,C   4,C   0,C   3)   -179.2815         0.010727   
     68. D(H   6,C   4,C   0,C   2)     59.8377         0.010727   
     69. D(H   6,C   4,C   0,O   1)    -59.7220         0.010727   
    -----------------------------------------------------------------

Number of atoms                         .... 15
Number of degrees of freedom            .... 69

         *************************************************************
         *                GEOMETRY OPTIMIZATION CYCLE   1            *
         *************************************************************
---------------------------------
CARTESIAN COORDINATES (ANGSTROEM)
---------------------------------
  C     -8.078760    2.942950    0.086480
  O     -7.027390    3.794090   -0.302300
  C     -9.363120    3.314680   -0.677360
  C     -8.307650    3.053550    1.605220
  C     -7.679410    1.502050   -0.263020
  H     -7.286490    4.726030   -0.075890
  H     -7.497010    1.405120   -1.355010
  H     -6.745840    1.219270    0.269510
  H     -9.121090    2.369800    1.931180
  H     -8.591840    4.091510    1.881750
  H     -7.379740    2.788790    2.156280
  H     -8.480950    0.788040    0.025920
  H     -9.196820    3.238360   -1.773400
  H     -9.667190    4.357570   -0.443830
  H    -10.197700    2.636160   -0.397130

----------------------------
CARTESIAN COORDINATES (A.U.)
----------------------------
  NO LB      ZA    FRAG     MASS         X           Y           Z
   0 C     6.0000    0    12.011  -15.266644    5.561370    0.163424
   1 O     8.0000    0    15.999  -13.279843    7.169791   -0.571264
   2 C     6.0000    0    12.011  -17.693733    6.263837   -1.280025
   3 C     6.0000    0    12.011  -15.699183    5.770373    3.033426
   4 C     6.0000    0    12.011  -14.511982    2.838463   -0.497036
   5 H     1.0000    0     1.008  -13.769471    8.930902   -0.143411
   6 H     1.0000    0     1.008  -14.167296    2.655292   -2.560598
   7 H     1.0000    0     1.008  -12.747790    2.304086    0.509300
   8 H     1.0000    0     1.008  -17.236362    4.478273    3.649401
   9 H     1.0000    0     1.008  -16.236225    7.731833    3.555992
  10 H     1.0000    0     1.008  -13.945688    5.270049    4.074779
  11 H     1.0000    0     1.008  -16.026673    1.489180    0.048982
  12 H     1.0000    0     1.008  -17.379471    6.119614   -3.351240
  13 H     1.0000    0     1.008  -18.268342    8.234614   -0.838717
  14 H     1.0000    0     1.008  -19.270860    4.981620   -0.750467

--------------------------------
INTERNAL COORDINATES (ANGSTROEM)
--------------------------------
 C      0   0   0     0.000000000000     0.00000000     0.00000000
 O      1   0   0     1.407468672795     0.00000000     0.00000000
 C      1   2   0     1.539875107955   109.87931283     0.00000000
 C      1   2   3     1.539868234525   109.87912832   238.38901732
 C      1   2   3     1.535520590061   108.07856403   119.19454570
 H      2   1   3     0.993431659300   108.03028392    60.80475288
 H      5   1   2     1.111353834294   110.37556625   300.27799163
 H      5   1   2     1.111353082598   110.37562593    59.72231988
 H      4   1   2     1.111507362864   110.72202260   181.24030029
 H      4   1   2     1.111122746865   110.52234799    61.19835118
 H      4   1   2     1.111207428566   110.35709723   301.52435252
 H      5   1   2     1.111648764359   110.85689517   180.00034398
 H      3   1   2     1.111208402596   110.35679096    58.47504420
 H      3   1   2     1.111132025414   110.52226954   298.80211647
 H      3   1   2     1.111504394818   110.72234250   178.75935281

---------------------------
INTERNAL COORDINATES (A.U.)
---------------------------
 C      0   0   0     0.000000000000     0.00000000     0.00000000
 O      1   0   0     2.659730333657     0.00000000     0.00000000
 C      1   2   0     2.909942234478   109.87931283     0.00000000
 C      1   2   3     2.909929245578   109.87912832   238.38901732
 C      1   2   3     2.901713388212   108.07856403   119.19454570
 H      2   1   3     1.877313768844   108.03028392    60.80475288
 H      5   1   2     2.100154384699   110.37556625   300.27799163
 H      5   1   2     2.100152964199   110.37562593    59.72231988
 H      4   1   2     2.100444511649   110.72202260   181.24030029
 H      4   1   2     2.099717692744   110.52234799    61.19835118
 H      4   1   2     2.099877717968   110.35709723   301.52435252
 H      5   1   2     2.100711721750   110.85689517   180.00034398
 H      3   1   2     2.099879558619   110.35679096    58.47504420
 H      3   1   2     2.099735226661   110.52226954   298.80211647
 H      3   1   2     2.100438902856   110.72234250   178.75935281

---------------------
BASIS SET INFORMATION
---------------------
There are 3 groups of distinct atoms

 Group   1 Type C   : 7s4p1d contracted to 3s2p1d pattern {511/31/1}
 Group   2 Type O   : 7s4p1d contracted to 3s2p1d pattern {511/31/1}
 Group   3 Type H   : 4s1p contracted to 2s1p pattern {31/1}

Atom   0C    basis set group =>   1
Atom   1O    basis set group =>   2
Atom   2C    basis set group =>   1
Atom   3C    basis set group =>   1
Atom   4C    basis set group =>   1
Atom   5H    basis set group =>   3
Atom   6H    basis set group =>   3
Atom   7H    basis set group =>   3
Atom   8H    basis set group =>   3
Atom   9H    basis set group =>   3
Atom  10H    basis set group =>   3
Atom  11H    basis set group =>   3
Atom  12H    basis set group =>   3
Atom  13H    basis set group =>   3
Atom  14H    basis set group =>   3

-------------------------
BASIS SET IN INPUT FORMAT
-------------------------

 # Basis set for element : H 
 NewGTO H 
 S 3 
   1      13.0107010000      0.0334854848
   2       1.9622572000      0.2347218709
   3       0.4445379600      0.8137702853
 S 1 
   1       0.1219496200      1.0000000000
 P 1 
   1       0.8000000000      1.0000000000
  end;

 # Basis set for element : C 
 NewGTO C 
 S 5 
   1    1238.4016938000      0.0055173650
   2     186.2900499200      0.0410888285
   3      42.2511763460      0.1822538213
   4      11.6765579320      0.4682845944
   5       3.5930506482      0.4457581734
 S 1 
   1       0.4024514736      1.0000000000
 S 1 
   1       0.1309018267      1.0000000000
 P 3 
   1       9.4680970621      0.0568883320
   2       2.0103545142      0.3129405934
   3       0.5477100471      0.7606501651
 P 1 
   1       0.1526861379      1.0000000000
 D 1 
   1       0.8000000000      1.0000000000
  end;

 # Basis set for element : O 
 NewGTO O 
 S 5 
   1    2266.1767785000     -0.0053893504
   2     340.8701019100     -0.0402347214
   3      77.3631351670     -0.1800818421
   4      21.4796449400     -0.4682885766
   5       6.6589433124     -0.4469261716
 S 1 
   1       0.8097597567      1.0000000000
 S 1 
   1       0.2553077223      1.0000000000
 P 3 
   1      17.7215043170      0.0626302488
   2       3.8635505440      0.3333113849
   3       1.0480920883      0.7414863830
 P 1 
   1       0.2764154441      1.0000000000
 D 1 
   1       1.2000000000      1.0000000000
  end;

---------------------------------
AUXILIARY/J BASIS SET INFORMATION
---------------------------------
There are 3 groups of distinct atoms

 Group   1 Type C   : 12s5p4d2f1g contracted to 6s4p3d1f1g pattern {711111/2111/211/2/1}
 Group   2 Type O   : 12s5p4d2f1g contracted to 6s4p3d1f1g pattern {711111/2111/211/2/1}
 Group   3 Type H   : 5s2p1d contracted to 3s1p1d pattern {311/2/1}

Atom   0C    basis set group =>   1
Atom   1O    basis set group =>   2
Atom   2C    basis set group =>   1
Atom   3C    basis set group =>   1
Atom   4C    basis set group =>   1
Atom   5H    basis set group =>   3
Atom   6H    basis set group =>   3
Atom   7H    basis set group =>   3
Atom   8H    basis set group =>   3
Atom   9H    basis set group =>   3
Atom  10H    basis set group =>   3
Atom  11H    basis set group =>   3
Atom  12H    basis set group =>   3
Atom  13H    basis set group =>   3
Atom  14H    basis set group =>   3

-------------------------------------
AUXILIARY/J BASIS SET IN INPUT FORMAT
-------------------------------------

 # Auxiliary/J basis set for element : H 
 NewAuxJGTO H 
 S 3 
   1      15.6752927000      0.1007184237
   2       3.6063578000      0.3404257499
   3       1.2080016000      0.6491996172
 S 1 
   1       0.4726794000      1.0000000000
 S 1 
   1       0.2018100000      1.0000000000
 P 2 
   1       2.0281365000      0.5596620919
   2       0.5358730000      0.5596620919
 D 1 
   1       2.2165124000      1.0000000000
  end;

 # Auxiliary/J basis set for element : C 
 NewAuxJGTO C 
 S 7 
   1    1861.0916331000      0.0134602335
   2     642.9939764000      0.0299160374
   3     235.1105725000      0.1008649584
   4      90.7028894000      0.2370970548
   5      36.7794552000      0.3924037254
   6      15.6046273000      0.3195862154
   7       6.8907294000      0.0530104441
 S 1 
   1       3.1478850000     -1.0000000000
 S 1 
   1       1.4777287000      1.0000000000
 S 1 
   1       0.7076466000      1.0000000000
 S 1 
   1       0.3430122000      1.0000000000
 S 1 
   1       0.1669453000      1.0000000000
 P 2 
   1      13.5472892000     -0.6769313712
   2       5.4669419000     -0.3779500978
 P 1 
   1       2.1751721000      1.0000000000
 P 1 
   1       0.8582194000      1.0000000000
 P 1 
   1       0.3376720000      1.0000000000
 D 2 
   1       5.9287253000     -0.3533329857
   2       1.9809209000     -0.7456525731
 D 1 
   1       0.8055417000     -1.0000000000
 D 1 
   1       0.3531244000     -1.0000000000
 F 2 
   1       1.6755626000      0.6311076882
   2       0.5997536000      0.4968166032
 G 1 
   1       1.0024600000     -1.0000000000
  end;

 # Auxiliary/J basis set for element : O 
 NewAuxJGTO O 
 S 7 
   1    2876.8216605000      0.0168151159
   2    1004.7443032000      0.0340137548
   3     369.7579954000      0.1194951309
   4     142.9442404000      0.2664627624
   5      57.8366425000      0.4202764046
   6      24.3864983000      0.2765077335
   7      10.6622662000      0.0057008815
 S 1 
   1       4.8070437000     -1.0000000000
 S 1 
   1       2.2210770000      1.0000000000
 S 1 
   1       1.0447795000      1.0000000000
 S 1 
   1       0.4968425000      1.0000000000
 S 1 
   1       0.2371384000      1.0000000000
 P 2 
   1      64.2613382000     -0.2731534179
   2      16.3006076000     -0.8168011598
 P 1 
   1       4.3550542000      1.0000000000
 P 1 
   1       1.2019554000      1.0000000000
 P 1 
   1       0.3354196000      1.0000000000
 D 2 
   1       9.2146611000     -0.4661230638
   2       2.8435251000     -0.6600908911
 D 1 
   1       0.9955759000     -1.0000000000
 D 1 
   1       0.3649441000     -1.0000000000
 F 2 
   1       2.6420115000      0.5931563945
   2       0.7345613000      0.5931563945
 G 1 
   1       1.3931000000     -1.0000000000
  end;



           ************************************************************
           *        Program running with 8 parallel MPI-processes     *
           *              working on a common directory               *
           ************************************************************
------------------------------------------------------------------------------
                           ORCA GTO INTEGRAL CALCULATION
                           -- RI-GTO INTEGRALS CHOSEN --
------------------------------------------------------------------------------

                         BASIS SET STATISTICS AND STARTUP INFO

Gaussian basis set:
 # of primitive gaussian shells          ...  110
 # of primitive gaussian functions       ...  190
 # of contracted shells                  ...   60
 # of contracted basis functions         ...  120
 Highest angular momentum                ...    2
 Maximum contraction depth               ...    5
Auxiliary gaussian basis set:
 # of primitive gaussian shells          ...  200
 # of primitive gaussian functions       ...  510
 # of contracted shells                  ...  125
 # of contracted aux-basis functions     ...  355
 Highest angular momentum                ...    4
 Maximum contraction depth               ...    7
Ratio of auxiliary to basis functions    ...  2.96
Integral package used                  ... LIBINT
 One Electron integrals                  ... done
 Ordering auxiliary basis shells         ... done
 Integral threshhold             Thresh  ...  2.500e-11
 Primitive cut-off               TCut    ...  2.500e-12
 Pre-screening matrix                    ... done
 Shell pair data                         ... 
 Ordering of the shell pairs             ... done (   0.000 sec) 1822 of 1830 pairs
 Determination of significant pairs      ... done (   0.000 sec)
 Creation of shell pair data             ... done (   0.000 sec)
 Storage of shell pair data              ... done (   0.002 sec)
 Shell pair data done in (   0.003 sec)
 Computing two index integrals           ... done
 Cholesky decomposition of the V-matrix  ... done


Timings:
 Total evaluation time                   ...   0.153 sec (  0.003 min)
 One electron matrix time                ...   0.014 sec (  0.000 min) =  9.0%
 Schwartz matrix evaluation time         ...   0.106 sec (  0.002 min) = 69.3%
 Two index repulsion integral time       ...   0.004 sec (  0.000 min) =  2.7%
 Cholesky decomposition of V             ...   0.006 sec (  0.000 min) =  4.2%
 Three index repulsion integral time     ...   0.000 sec (  0.000 min) =  0.0%



           ************************************************************
           *        Program running with 8 parallel MPI-processes     *
           *              working on a common directory               *
           ************************************************************
-------------------------------------------------------------------------------
                                 ORCA SCF
-------------------------------------------------------------------------------

------------
SCF SETTINGS
------------
Hamiltonian:
 Density Functional     Method          .... DFT(GTOs)
 Exchange Functional    Exchange        .... PBE
   PBE kappa parameter   XKappa         ....  1.245000
   PBE mue parameter    XMuePBE         ....  0.219520
 Correlation Functional Correlation     .... PBE
   PBE beta parameter  CBetaPBE         ....  0.066725
 LDA part of GGA corr.  LDAOpt          .... PW91-LDA
 Gradients option       PostSCFGGA      .... off
   Density functional embedding theory  .... OFF
   NL short-range parameter             ....  3.700000
 RI-approximation to the Coulomb term is turned on
   Number of auxiliary basis functions  .... 355


General Settings:
 Integral files         IntName         .... opt
 Hartree-Fock type      HFTyp           .... RHF
 Total Charge           Charge          ....    0
 Multiplicity           Mult            ....    1
 Number of Electrons    NEL             ....   42
 Basis Dimension        Dim             ....  120
 Nuclear Repulsion      ENuc            ....    198.6242412463 Eh

Convergence Acceleration:
 DIIS                   CNVDIIS         .... on
   Start iteration      DIISMaxIt       ....    12
   Startup error        DIISStart       ....  0.200000
   # of expansion vecs  DIISMaxEq       ....     5
   Bias factor          DIISBfac        ....   1.050
   Max. coefficient     DIISMaxC        ....  10.000
 Newton-Raphson         CNVNR           .... off
 SOSCF                  CNVSOSCF        .... on
   Start iteration      SOSCFMaxIt      ....   150
   Startup grad/error   SOSCFStart      ....  0.003300
 Level Shifting         CNVShift        .... on
   Level shift para.    LevelShift      ....    0.2500
   Turn off err/grad.   ShiftErr        ....    0.0010
 Zerner damping         CNVZerner       .... off
 Static damping         CNVDamp         .... on
   Fraction old density DampFac         ....    0.7000
   Max. Damping (<1)    DampMax         ....    0.9800
   Min. Damping (>=0)   DampMin         ....    0.0000
   Turn off err/grad.   DampErr         ....    0.1000
 Fernandez-Rico         CNVRico         .... off

SCF Procedure:
 Maximum # iterations   MaxIter         ....   125
 SCF integral mode      SCFMode         .... Direct
   Integral package                     .... LIBINT
 Reset frequency        DirectResetFreq ....    20
 Integral Threshold     Thresh          ....  2.500e-11 Eh
 Primitive CutOff       TCut            ....  2.500e-12 Eh

Convergence Tolerance:
 Convergence Check Mode ConvCheckMode   .... Total+1el-Energy
 Convergence forced     ConvForced      .... 0
 Energy Change          TolE            ....  1.000e-08 Eh
 1-El. energy change                    ....  1.000e-05 Eh
 Orbital Gradient       TolG            ....  1.000e-05
 Orbital Rotation angle TolX            ....  1.000e-05
 DIIS Error             TolErr          ....  5.000e-07


Diagonalization of the overlap matrix:
Smallest eigenvalue                        ... 1.783e-03
Time for diagonalization                   ...    0.004 sec
Threshold for overlap eigenvalues          ... 1.000e-08
Number of eigenvalues below threshold      ... 0
Time for construction of square roots      ...    0.003 sec
Total time needed                          ...    0.008 sec

-------------------
DFT GRID GENERATION
-------------------

General Integration Accuracy     IntAcc      ...  4.670
Radial Grid Type                 RadialGrid  ... Gauss-Chebyshev
Angular Grid (max. acc.)         AngularGrid ... Lebedev-302
Angular grid pruning method      GridPruning ... 3 (G Style)
Weight generation scheme         WeightScheme... Becke
Basis function cutoff            BFCut       ...    1.0000e-11
Integration weight cutoff        WCut        ...    1.0000e-14
Grids for H and He will be reduced by one unit

# of grid points (after initial pruning)     ...  65000 (   0.0 sec)
# of grid points (after weights+screening)   ...  59419 (   0.0 sec)
nearest neighbour list constructed           ...    0.0 sec
Grid point re-assignment to atoms done       ...    0.0 sec
Grid point division into batches done        ...    0.2 sec
Reduced shell lists constructed in    0.3 sec

Total number of grid points                  ...    59419
Total number of batches                      ...      934
Average number of points per batch           ...       63
Average number of grid points per atom       ...     3961
Average number of shells per batch           ...    53.14 (88.56%)
Average number of basis functions per batch  ...   106.95 (89.12%)
Average number of large shells per batch     ...    46.11 (86.78%)
Average number of large basis fcns per batch ...    91.31 (85.38%)
Maximum spatial batch extension              ...  15.66,  7.03, 13.77 au
Average spatial batch extension              ...   0.20,  0.17,  0.19 au

Time for grid setup =    0.328 sec

------------------------------
INITIAL GUESS: MODEL POTENTIAL
------------------------------
Loading Hartree-Fock densities                     ... done
Calculating cut-offs                               ... done
Setting up the integral package                    ... done
Initializing the effective Hamiltonian             ... done
Starting the Coulomb interaction                   ... done (   0.0 sec)
Reading the grid                                   ... done
Mapping shells                                     ... done
Starting the XC term evaluation                    ... done (   0.1 sec)
  promolecular density results
     # of electrons  =     41.995467418
     EX              =    -31.741015287
     EC              =     -1.363026170
     EX+EC           =    -33.104041456
Transforming the Hamiltonian                       ... done (   0.0 sec)
Diagonalizing the Hamiltonian                      ... done (   0.0 sec)
Back transforming the eigenvectors                 ... done (   0.0 sec)
Now organizing SCF variables                       ... done
                      ------------------
                      INITIAL GUESS DONE (   0.5 sec)
                      ------------------
----------------------
INITIAL GUESS ORBITALS
----------------------
                      0         1         2         3         4         5   
                 -18.95724 -10.08014 -10.07988 -10.07987 -10.05938  -1.05266
                   2.00000   2.00000   2.00000   2.00000   2.00000   2.00000
                  --------  --------  --------  --------  --------  --------
  0C   1s        -0.000235 -0.000142  0.000016  0.000562  0.987860  0.103910
  0C   2s         0.003079 -0.000082  0.000006  0.000198  0.053418 -0.206264
  0C   3s        -0.031731 -0.001267  0.000052  0.001791 -0.073713 -0.025221
  0C   1pz        0.000086  0.000317  0.001150  0.000233  0.000155  0.028084
  0C   1px       -0.000310 -0.000456  0.000514 -0.000501 -0.000367 -0.077993
  0C   1py       -0.000496  0.000931 -0.000120  0.000369 -0.000125 -0.069759
  0C   2pz        0.003269 -0.000457 -0.000583  0.000494 -0.002914  0.001443
  0C   2px       -0.008130  0.001135 -0.000316 -0.001391  0.007425 -0.005755
  0C   2py       -0.004283  0.000600  0.000025 -0.001493  0.004541 -0.010512
  0C   1dz2      -0.000036  0.000682  0.001208  0.000838 -0.000283  0.007458
  0C   1dxz      -0.000086  0.000211 -0.001036  0.000550 -0.000157  0.005232
  0C   1dyz      -0.000069 -0.000590  0.000367 -0.000070 -0.000148  0.004938
  0C   1dx2y2     0.000126  0.001059 -0.000566  0.000542 -0.000088 -0.000084
  0C   1dxy       0.000142  0.000681  0.000350 -0.000448  0.000477 -0.014314
  1O   1s         0.988561 -0.000065  0.000003  0.000097 -0.000237 -0.271875
  1O   2s        -0.043143 -0.000526  0.000031  0.001056 -0.000852 -0.561417
  1O   3s         0.032947  0.000750 -0.000066 -0.002244  0.003331 -0.282167
  1O   1pz       -0.000785  0.000052  0.000260  0.000113 -0.000201 -0.043309
  1O   1px        0.001607 -0.000048  0.000111 -0.000272  0.000587  0.091288
  1O   1py       -0.000372  0.000263 -0.000030 -0.000037  0.000615 -0.009595
  1O   2pz        0.002263 -0.000500 -0.001586 -0.000715 -0.000887 -0.007993
  1O   2px       -0.006240  0.000477 -0.000678  0.001574  0.001857  0.021806
  1O   2py       -0.005439 -0.002444  0.000169 -0.000372 -0.000251  0.018247
  1O   1dz2       0.000249 -0.000043 -0.000216 -0.000021  0.000756  0.004318
  1O   1dxz      -0.000044  0.000038  0.000221 -0.000004  0.000725  0.003781
  1O   1dyz      -0.000396 -0.000008  0.000053 -0.000013  0.000308  0.000468
  1O   1dx2y2     0.000694 -0.000123  0.000132 -0.000042 -0.000208  0.000173
  1O   1dxy       0.000571  0.000060 -0.000012  0.000046 -0.001014 -0.003325
  2C   1s        -0.000067 -0.037176  0.677778 -0.717376  0.001031  0.023123
  2C   2s         0.000421 -0.003458  0.037616 -0.037760 -0.002159 -0.042114
  2C   3s         0.005283  0.007875 -0.033526  0.026198  0.022566 -0.010828
  2C   1pz        0.000180  0.000074 -0.000124  0.000413 -0.000604 -0.008289
  2C   1px        0.000432 -0.000035 -0.000565  0.000524 -0.001233 -0.022036
  2C   1py       -0.000058  0.000173  0.000099 -0.000099  0.000231 -0.000041
  2C   2pz        0.000308 -0.000670 -0.004226 -0.002146  0.004289  0.000666
  2C   2px        0.003011  0.001860 -0.000520  0.000848  0.007088 -0.010220
  2C   2py        0.000058 -0.004267  0.001039 -0.000781 -0.001550 -0.001524
  2C   1dz2      -0.000139 -0.000157 -0.000106 -0.000255  0.000252  0.000929
  2C   1dxz       0.000120 -0.000009 -0.000487  0.000349 -0.000953 -0.002176
  2C   1dyz       0.000118 -0.000061  0.000144 -0.000089  0.000213  0.000298
  2C   1dx2y2     0.000293 -0.000097 -0.000295  0.000364 -0.000871 -0.002338
  2C   1dxy      -0.000019 -0.000273  0.000164 -0.000193  0.000433  0.000480
  3C   1s        -0.000067 -0.037320 -0.718263 -0.676830  0.001031  0.023124
  3C   2s         0.000421 -0.003466 -0.039743 -0.035513 -0.002159 -0.042117
  3C   3s         0.005283  0.007882  0.034989  0.024208  0.022567 -0.010802
  3C   1pz       -0.000450  0.000012 -0.000561 -0.000643  0.001353  0.021826
  3C   1px        0.000141 -0.000063  0.000267  0.000006 -0.000328 -0.008111
  3C   1py        0.000014  0.000180 -0.000024  0.000027  0.000007 -0.003486
  3C   2pz       -0.002453 -0.001776 -0.003210  0.000755 -0.008335  0.006990
  3C   2px        0.001734  0.001348 -0.002809  0.002269  0.001251 -0.007290
  3C   2py        0.000373 -0.004140 -0.000247 -0.001079 -0.000106 -0.002251
  3C   1dz2       0.000201  0.000012  0.000644  0.000459 -0.001311 -0.002959
  3C   1dxz      -0.000268 -0.000085  0.000014 -0.000334  0.000482  0.001576
  3C   1dyz      -0.000123  0.000290  0.000018  0.000085 -0.000086  0.000294
  3C   1dx2y2     0.000047 -0.000111  0.000043 -0.000021 -0.000061 -0.000153
  3C   1dxy      -0.000065 -0.000091 -0.000008  0.000012  0.000035 -0.000189
  4C   1s        -0.000082  0.986191 -0.001636 -0.052821  0.000802  0.022626
  4C   2s         0.000549  0.053606 -0.000028 -0.000770 -0.001759 -0.046170
  4C   3s         0.007897 -0.043098 -0.000192 -0.006782  0.019313 -0.001233
  4C   1pz        0.000088 -0.000150  0.000206  0.000065 -0.000274 -0.002598
  4C   1px       -0.000042  0.000133  0.000091 -0.000132  0.000245 -0.000322
  4C   1py        0.000603 -0.000772 -0.000020  0.000099 -0.001401 -0.024020
  4C   2pz        0.000331 -0.000934 -0.004357 -0.001593  0.001719 -0.001188
  4C   2px        0.000123  0.001619 -0.001898  0.003295 -0.002006  0.002268
  4C   2py        0.003388 -0.001619  0.000437 -0.001951  0.006921 -0.001209
  4C   1dz2      -0.000106  0.000338 -0.000206 -0.000067  0.000632  0.001643
  4C   1dxz       0.000091  0.000079  0.000137  0.000014  0.000088  0.000193
  4C   1dyz       0.000043 -0.000297 -0.000243 -0.000061 -0.000492 -0.000731
  4C   1dx2y2    -0.000337  0.000569  0.000056 -0.000102  0.001122  0.002646
  4C   1dxy       0.000026  0.000340 -0.000134  0.000203  0.000492  0.000180
  5H   1s         0.001179  0.000965  0.000024  0.000824  0.001256 -0.147386
  5H   2s        -0.001209  0.000021 -0.000017 -0.000583  0.001862  0.005565
  5H   1pz       -0.000734 -0.000117 -0.000103 -0.000095  0.000333  0.005060
  5H   1px        0.001028  0.000212 -0.000040  0.000209 -0.000890 -0.004390
  5H   1py       -0.002258 -0.000164  0.000011 -0.000017 -0.000682  0.026494
  6H   1s         0.000029 -0.003098 -0.000668  0.000404 -0.000381 -0.009528
  6H   2s        -0.000162  0.007564 -0.001843 -0.000092 -0.000542 -0.002289
  6H   1pz        0.000060 -0.002824  0.000040  0.000111  0.000053 -0.001723
  6H   1px       -0.000056  0.000314  0.000147 -0.000218 -0.000016  0.000064
  6H   1py        0.000347  0.000133  0.000084  0.000065  0.000292 -0.001360
  7H   1s         0.000029 -0.003098  0.000691  0.000364 -0.000381 -0.009527
  7H   2s        -0.000162  0.007565  0.001833 -0.000199 -0.000542 -0.002289
  7H   1pz        0.000069  0.001568  0.000126  0.000100  0.000033  0.000784
  7H   1px       -0.000052  0.002345 -0.000086 -0.000215 -0.000025  0.001223
  7H   1py        0.000346 -0.000369 -0.000099  0.000071  0.000294 -0.001647
  8H   1s         0.000003 -0.000516  0.001508  0.002414 -0.000085 -0.006532
  8H   2s        -0.000282 -0.001635 -0.007073 -0.004510 -0.000350 -0.003576
  8H   1pz        0.000263 -0.000042 -0.000257 -0.000331 -0.000554  0.000551
  8H   1px       -0.000111 -0.000065  0.001612  0.001289  0.000123 -0.001071
  8H   1py        0.000011  0.000283  0.001223  0.001367 -0.000032 -0.001050
  9H   1s        -0.000044  0.000489  0.001908  0.002603 -0.000512 -0.009019
  9H   2s         0.000573  0.000879 -0.006382 -0.004026 -0.001428 -0.000815
  9H   1pz       -0.000305  0.000107 -0.000180 -0.000302 -0.000229  0.001214
  9H   1px        0.000059  0.000003  0.000739  0.000329  0.000021 -0.000571
  9H   1py       -0.000065 -0.000121 -0.001958 -0.001909  0.000042  0.001404
 10H   1s         0.000002 -0.000561  0.002557  0.001893 -0.000563 -0.007671
 10H   2s        -0.000166 -0.001872 -0.004694 -0.005981 -0.000790  0.000999
 10H   1pz       -0.000330 -0.000007 -0.000724 -0.000795 -0.000225  0.001278
 10H   1px        0.000063 -0.000054 -0.001853 -0.001695  0.000056  0.001195
 10H   1py       -0.000010  0.000282  0.000616  0.000507 -0.000019 -0.000304
 11H   1s        -0.000154 -0.002663  0.000031  0.001058  0.000021 -0.005503
 11H   2s        -0.000698  0.008344  0.000043  0.001517 -0.000303  0.000886
 11H   1pz       -0.000040  0.000866  0.000296 -0.000028  0.000132  0.000157
 11H   1px        0.000010 -0.002230  0.000139  0.000058 -0.000141 -0.000599
 11H   1py       -0.000307 -0.001441 -0.000031  0.000082  0.000581 -0.001044
 12H   1s         0.000002 -0.000561 -0.002442  0.002038 -0.000563 -0.007670
 12H   2s        -0.000166 -0.001871  0.004339 -0.006244 -0.000790  0.001001
 12H   1pz        0.000159  0.000097 -0.001856  0.001984  0.000096 -0.001762
 12H   1px        0.000289 -0.000005  0.000580 -0.000495  0.000205 -0.000211
 12H   1py       -0.000066  0.000270 -0.000296  0.000219 -0.000055  0.000043
 13H   1s        -0.000044  0.000488 -0.001754  0.002709 -0.000512 -0.009018
 13H   2s         0.000573  0.000881  0.006138 -0.004389 -0.001428 -0.000812
 13H   1pz        0.000135 -0.000092  0.000783 -0.000460  0.000136 -0.000073
 13H   1px        0.000263 -0.000089 -0.000432  0.000303  0.000190 -0.001166
 13H   1py       -0.000115 -0.000098  0.001773 -0.002002  0.000001  0.001551
 14H   1s         0.000003 -0.000516 -0.001365  0.002498 -0.000085 -0.006530
 14H   2s        -0.000282 -0.001634  0.006800 -0.004913 -0.000350 -0.003574
 14H   1pz       -0.000080  0.000128  0.000794 -0.000556  0.000250  0.000264
 14H   1px       -0.000269  0.000013 -0.001277  0.001283  0.000494 -0.001204
 14H   1py        0.000050  0.000263 -0.001205  0.001459 -0.000124 -0.001017
                      6         7         8         9        10        11   
                  -0.83741  -0.74773  -0.74758  -0.63257  -0.56229  -0.52814
                   2.00000   2.00000   2.00000   2.00000   2.00000   2.00000
                  --------  --------  --------  --------  --------  --------
  0C   1s        -0.150796 -0.000578 -0.000003  0.143828 -0.085220  0.004859
  0C   2s         0.301688  0.004246  0.000014 -0.334255  0.200014 -0.009886
  0C   3s         0.162274 -0.016212 -0.000028 -0.036447  0.043417 -0.012671
  0C   1pz        0.023605 -0.059841 -0.149886  0.043679  0.097928 -0.029994
  0C   1px       -0.068885  0.100062 -0.069148 -0.106394 -0.225013  0.000480
  0C   1py       -0.072098 -0.120618  0.016986 -0.048219 -0.053441 -0.261191
  0C   2pz        0.011123 -0.032715 -0.080634  0.016219  0.058525 -0.023185
  0C   2px       -0.030924  0.052835 -0.037246 -0.037483 -0.129744  0.003670
  0C   2py       -0.028147 -0.073684  0.009128 -0.009619 -0.012488 -0.188971
  0C   1dz2       0.003867 -0.007555 -0.007831  0.002065 -0.000458  0.003668
  0C   1dxz       0.002469 -0.003837  0.006859  0.006336  0.005404  0.000682
  0C   1dyz       0.002600  0.003270 -0.002779  0.003539  0.002300 -0.001535
  0C   1dx2y2     0.000325 -0.007339  0.003752 -0.009299 -0.010897  0.005443
  0C   1dxy      -0.007567 -0.001472 -0.002553 -0.006862 -0.002637  0.000278
  1O   1s        -0.094172  0.009786  0.000012  0.039025 -0.029075  0.055832
  1O   2s        -0.203569  0.021832  0.000021  0.084556 -0.067876  0.116549
  1O   3s        -0.119162  0.016204  0.000049  0.048816 -0.035449  0.166757
  1O   1pz        0.000655 -0.015384 -0.039248 -0.024838  0.041860 -0.113184
  1O   1px       -0.022251  0.019720 -0.018115  0.139181 -0.016202  0.239040
  1O   1py       -0.084230 -0.055297  0.004420  0.345478  0.300523 -0.023873
  1O   2pz        0.004835 -0.006341 -0.016089 -0.018929  0.019320 -0.054383
  1O   2px       -0.015907  0.007863 -0.007434  0.074119 -0.011757  0.114612
  1O   2py       -0.021981 -0.023842  0.001800  0.134131  0.121371 -0.012426
  1O   1dz2      -0.000164 -0.000920 -0.002331  0.001158 -0.000631  0.000369
  1O   1dxz      -0.000738  0.001118  0.002530  0.002704 -0.001761  0.005567
  1O   1dyz      -0.001669 -0.000462  0.001132  0.004594  0.002944 -0.000300
  1O   1dx2y2     0.001962 -0.002963  0.001565 -0.005411  0.000119 -0.008328
  1O   1dxy       0.003233  0.001983  0.000095 -0.009272 -0.005841  0.001903
  2C   1s        -0.120627  0.113616 -0.185649 -0.054139  0.044651 -0.006959
  2C   2s         0.248716 -0.244691  0.399461  0.111575 -0.102707  0.014949
  2C   3s         0.016044 -0.016082  0.038760  0.024368 -0.051108  0.029296
  2C   1pz        0.032358 -0.018013 -0.020287 -0.037929  0.178820 -0.070996
  2C   1px        0.038956  0.009866  0.003110 -0.107401  0.114515 -0.074420
  2C   1py       -0.024966 -0.022824 -0.001482  0.015730 -0.078471 -0.206012
  2C   2pz        0.004424 -0.003858 -0.017676 -0.016541  0.039391 -0.018186
  2C   2px       -0.003957  0.013731 -0.009662 -0.026127  0.045541 -0.014303
  2C   2py       -0.007485 -0.014240  0.002586  0.004053 -0.018845 -0.048320
  2C   1dz2      -0.000001 -0.001906 -0.001751  0.001208 -0.000573  0.000392
  2C   1dxz       0.004218 -0.001754  0.000045 -0.003924  0.007298 -0.003820
  2C   1dyz      -0.001834 -0.000217 -0.000093  0.000501 -0.003742 -0.004832
  2C   1dx2y2     0.001991 -0.000554  0.001172 -0.004796  0.001549  0.000842
  2C   1dxy      -0.003418 -0.001675 -0.000972  0.002123 -0.002053  0.000418
  3C   1s        -0.120632  0.113156  0.185927 -0.054141  0.044644 -0.006941
  3C   2s         0.248732 -0.243700 -0.400059  0.111579 -0.102685  0.014923
  3C   3s         0.015967 -0.016015 -0.038822  0.024385 -0.051062  0.029138
  3C   1pz       -0.054410 -0.000318 -0.010166  0.107793 -0.213624  0.062290
  3C   1px       -0.001168  0.018080 -0.017143 -0.040025 -0.066965 -0.012614
  3C   1py       -0.015040 -0.024858  0.004900 -0.000939 -0.033572 -0.221317
  3C   2pz       -0.001171 -0.010512 -0.018915  0.030867 -0.062663  0.013249
  3C   2px       -0.006560  0.010639 -0.007218 -0.004202 -0.001641  0.000222
  3C   2py       -0.006825 -0.013483  0.001562 -0.001359 -0.007160 -0.051910
  3C   1dz2       0.005595 -0.001428 -0.000671 -0.005947  0.007926 -0.001832
  3C   1dxz      -0.000180 -0.001620  0.002060  0.002829  0.000507  0.000259
  3C   1dyz       0.002219  0.002204 -0.000808 -0.000117  0.001971  0.002967
  3C   1dx2y2    -0.000228 -0.000269 -0.000021 -0.000914 -0.001923  0.003880
  3C   1dxy      -0.000698 -0.000544  0.000162  0.000627  0.001884  0.003419
  4C   1s        -0.129104 -0.206373 -0.000259 -0.087032  0.007568  0.034009
  4C   2s         0.263519  0.445433  0.000562  0.190595 -0.012574 -0.083673
  4C   3s         0.027426  0.036254  0.000053  0.038779  0.015695 -0.102336
  4C   1pz        0.017913 -0.006863 -0.031619 -0.019670  0.069566  0.074115
  4C   1px       -0.026404  0.014582 -0.014600  0.003414 -0.145241 -0.114889
  4C   1py        0.049867 -0.001475  0.003616 -0.158118  0.021134  0.182578
  4C   2pz        0.003005 -0.007446 -0.017642 -0.004502  0.019334  0.019665
  4C   2px       -0.005557  0.011626 -0.008131 -0.003035 -0.038698 -0.029911
  4C   2py        0.003736 -0.018409  0.001999 -0.051700  0.012602  0.050723
  4C   1dz2      -0.001986 -0.000901 -0.001579  0.003279 -0.002671 -0.003459
  4C   1dxz      -0.000849  0.000105  0.000816 -0.000152 -0.003342 -0.001989
  4C   1dyz       0.002827  0.000152 -0.002858 -0.002384  0.002445  0.002172
  4C   1dx2y2    -0.003371 -0.001644  0.000230  0.006715 -0.000131 -0.003369
  4C   1dxy      -0.004252  0.000467 -0.001510  0.002040 -0.003658 -0.002089
  5H   1s        -0.088201 -0.024123 -0.000029  0.202346  0.171496 -0.037775
  5H   2s        -0.001963  0.002650  0.000004  0.028829  0.025938  0.007267
  5H   1pz        0.003669  0.000277 -0.002028 -0.007913 -0.004316 -0.002920
  5H   1px       -0.004835  0.000139 -0.000937  0.011955  0.005035  0.008186
  5H   1py        0.012526  0.002952  0.000236 -0.020848 -0.017378  0.007541
  6H   1s         0.064057  0.140195  0.012451  0.089990 -0.070822 -0.104487
  6H   2s         0.008082  0.017828 -0.008859  0.017303 -0.015916 -0.008629
  6H   1pz        0.009265  0.016968  0.000450  0.009191 -0.004761 -0.007942
  6H   1px       -0.001908 -0.002434 -0.000333 -0.001450 -0.002737 -0.001195
  6H   1py        0.001404  0.001032  0.000157 -0.003410 -0.001223  0.003527
  7H   1s         0.064054  0.140223 -0.012103  0.089986 -0.070832 -0.104378
  7H   2s         0.008078  0.017799  0.008896  0.017294 -0.015919 -0.008611
  7H   1pz       -0.004138 -0.008665 -0.000018 -0.005335  0.004835  0.006563
  7H   1px       -0.008105 -0.014288  0.000507 -0.008166  0.001701  0.005506
  7H   1py        0.002937  0.003964 -0.000199 -0.001749 -0.002320  0.001870
  8H   1s         0.066523 -0.074012 -0.119862  0.080062 -0.034390  0.122477
  8H   2s         0.002056 -0.012242 -0.019541  0.015191 -0.000700  0.025786
  8H   1pz       -0.003483  0.002426  0.003722 -0.000233 -0.004317 -0.002349
  8H   1px        0.006723 -0.006644 -0.011332  0.005214 -0.004728  0.007685
  8H   1py        0.005430 -0.006120 -0.009464  0.005242 -0.003191  0.000454
  9H   1s         0.059128 -0.086952 -0.119885  0.067033 -0.082212 -0.128406
  9H   2s         0.009659 -0.004481 -0.020073  0.013573 -0.010153 -0.033377
  9H   1pz       -0.002815  0.002209  0.003110  0.000734 -0.003373  0.005777
  9H   1px        0.002261 -0.002436 -0.004064  0.000801 -0.004007 -0.003695
  9H   1py       -0.008167  0.009303  0.014347 -0.006557  0.007110  0.004121
 10H   1s         0.061000 -0.065664 -0.131528  0.054485 -0.143344  0.056029
 10H   2s         0.009060 -0.017189 -0.011370  0.007911 -0.028540  0.009675
 10H   1pz       -0.005290  0.003952  0.007232  0.000435  0.002859 -0.001038
 10H   1px       -0.007097  0.007678  0.013326 -0.006393  0.009260 -0.004966
 10H   1py        0.002001 -0.002471 -0.003821  0.001242 -0.004237 -0.005102
 11H   1s         0.070542  0.131234  0.000165  0.123078  0.061692 -0.037434
 11H   2s         0.004549  0.022123  0.000034  0.014462  0.004704  0.002926
 11H   1pz       -0.002403 -0.004620 -0.000323 -0.003624  0.000533  0.003110
 11H   1px        0.006906  0.012486 -0.000131  0.009120  0.000012 -0.006340
 11H   1py        0.006914  0.010079  0.000049  0.005188  0.004709  0.001539
 12H   1s         0.060995 -0.065992  0.131365  0.054483 -0.143342  0.056002
 12H   2s         0.009049 -0.017219  0.011320  0.007911 -0.028531  0.009639
 12H   1pz        0.009055 -0.008776  0.015292  0.004776 -0.009571  0.003444
 12H   1px       -0.000464  0.001817 -0.002897 -0.004385  0.003513 -0.002899
 12H   1py        0.000362 -0.001022  0.001241  0.000747 -0.002816 -0.005613
 13H   1s         0.059125 -0.087249  0.119669  0.067030 -0.082219 -0.128319
 13H   2s         0.009659 -0.004534  0.020065  0.013579 -0.010147 -0.033355
 13H   1pz       -0.001454  0.002187 -0.003773 -0.002289  0.006471 -0.000088
 13H   1px        0.002891 -0.002461  0.003749 -0.000597  0.000546 -0.006410
 13H   1py       -0.008323  0.009342 -0.014248 -0.006211  0.005984  0.004785
 14H   1s         0.066515 -0.074308  0.119680  0.080060 -0.034403  0.122559
 14H   2s         0.002052 -0.012286  0.019517  0.015191 -0.000698  0.025819
 14H   1pz       -0.001860  0.002349 -0.004425 -0.002805  0.005688 -0.004228
 14H   1px        0.007473 -0.006711  0.010987  0.004025 -0.000102  0.006818
 14H   1py        0.005245 -0.006134  0.009530  0.005537 -0.004337  0.000677
                     12        13        14        15        16        17   
                  -0.52464  -0.48605  -0.47331  -0.46180  -0.44549  -0.44030
                   2.00000   2.00000   2.00000   2.00000   2.00000   2.00000
                  --------  --------  --------  --------  --------  --------
  0C   1s         0.000002  0.023445 -0.000002  0.023540 -0.000001  0.005084
  0C   2s         0.000009 -0.057623  0.000011 -0.058400  0.000006 -0.011657
  0C   3s        -0.000049 -0.013270 -0.000013 -0.032962 -0.000046 -0.035661
  0C   1pz       -0.249237  0.013156 -0.061906 -0.015872  0.009477 -0.008624
  0C   1px       -0.115221 -0.018680 -0.028641  0.065786  0.004384  0.059740
  0C   1py        0.028413  0.039152  0.007067  0.127122 -0.001093  0.166126
  0C   2pz       -0.144850  0.019290 -0.023838  0.016527  0.000760  0.009860
  0C   2px       -0.067030 -0.045077 -0.010969 -0.030614  0.000373 -0.011075
  0C   2py        0.016508 -0.013416  0.002711  0.020976 -0.000076  0.041245
  0C   1dz2       0.005521 -0.008956  0.000507 -0.005494  0.000394 -0.003570
  0C   1dxz      -0.004698 -0.018303 -0.005689 -0.001243 -0.000333 -0.002222
  0C   1dyz       0.002543  0.001646 -0.021011 -0.008711  0.000197 -0.007272
  0C   1dx2y2    -0.002517  0.015096 -0.005092 -0.001122 -0.000177  0.002550
  0C   1dxy       0.002049 -0.001316 -0.009035  0.021358  0.000152  0.016671
  1O   1s         0.000024  0.050433  0.000001  0.017578 -0.000002 -0.033949
  1O   2s         0.000043  0.108704  0.000005  0.038868 -0.000003 -0.070954
  1O   3s         0.000116  0.151817 -0.000012  0.081347 -0.000010 -0.073668
  1O   1pz       -0.172870 -0.081859 -0.151749  0.040097  0.008014  0.158368
  1O   1px       -0.079825  0.127264 -0.070136 -0.130963  0.003706 -0.333614
  1O   1py        0.019729 -0.201472  0.017370 -0.178716 -0.000910  0.036061
  1O   2pz       -0.088543 -0.044406 -0.095272  0.028535  0.004610  0.092089
  1O   2px       -0.040903  0.068780 -0.044031 -0.083569  0.002132 -0.196215
  1O   2py        0.010090 -0.110424  0.010915 -0.088301 -0.000525  0.012023
  1O   1dz2      -0.004577  0.000595 -0.004279  0.000659  0.000120 -0.001903
  1O   1dxz       0.005118  0.001680  0.004105 -0.002237 -0.000162 -0.005811
  1O   1dyz       0.002818 -0.001999 -0.000108 -0.002018 -0.000189  0.000930
  1O   1dx2y2     0.003215 -0.000617  0.002380  0.005876 -0.000111  0.005987
  1O   1dxy       0.000441  0.003972 -0.000781  0.002827 -0.000062 -0.001987
  2C   1s         0.027815  0.003411 -0.000747  0.003925  0.000091  0.000760
  2C   2s        -0.068018 -0.010953  0.001316 -0.011940  0.000178 -0.002609
  2C   3s        -0.063385 -0.017467  0.004584 -0.019082 -0.003629  0.001068
  2C   1pz       -0.025448  0.258554 -0.028363 -0.043707 -0.231709 -0.001085
  2C   1px        0.229465 -0.166251  0.155400 -0.038879  0.075748 -0.089246
  2C   1py       -0.082865  0.009101  0.264741 -0.014129 -0.176134 -0.233658
  2C   2pz       -0.002382  0.108826 -0.008616 -0.033204 -0.078997 -0.007666
  2C   2px        0.067125 -0.068534  0.068059 -0.006402  0.023053 -0.023899
  2C   2py       -0.032073  0.011063  0.122309 -0.004867 -0.058886 -0.080521
  2C   1dz2       0.000158 -0.006741  0.000770 -0.000946  0.011129 -0.000083
  2C   1dxz       0.001789  0.000035  0.001815 -0.001301 -0.000546 -0.001158
  2C   1dyz      -0.000501 -0.001086  0.002799  0.000590 -0.001298 -0.002030
  2C   1dx2y2     0.005392 -0.001240 -0.002546  0.001010  0.004643  0.007819
  2C   1dxy      -0.003814  0.003720 -0.006770  0.003858  0.003648  0.011650
  3C   1s        -0.027824  0.003411  0.000744  0.003922 -0.000089  0.000758
  3C   2s         0.068048 -0.010949 -0.001311 -0.011922 -0.000185 -0.002598
  3C   3s         0.063363 -0.017433 -0.004498 -0.019069  0.003661  0.001040
  3C   1pz        0.172447 -0.035952  0.049874  0.054210 -0.056061  0.024388
  3C   1px       -0.161564 -0.302384 -0.145473  0.006362 -0.208815 -0.077460
  3C   1py        0.065897  0.042793 -0.267195 -0.025384  0.209064 -0.236573
  3C   2pz        0.055108 -0.014885  0.023038  0.024844 -0.021443  0.007863
  3C   2px       -0.042771 -0.125720 -0.061433  0.020427 -0.069477 -0.016752
  3C   2py        0.026011  0.025214 -0.123941 -0.011513  0.070349 -0.082282
  3C   1dz2      -0.005012 -0.001873 -0.001468 -0.001754 -0.002135  0.000227
  3C   1dxz       0.002437 -0.004492 -0.001281 -0.001393 -0.007174 -0.003160
  3C   1dyz      -0.001326 -0.000378 -0.003375 -0.002932  0.005186 -0.008918
  3C   1dx2y2    -0.003081 -0.003815  0.002806  0.000658 -0.008810  0.006068
  3C   1dxy       0.002190  0.004861  0.006399  0.002192 -0.000418  0.008713
  4C   1s         0.000007 -0.001536 -0.000000  0.005224 -0.000001  0.012113
  4C   2s        -0.000011  0.002405 -0.000001 -0.016538  0.000004 -0.033412
  4C   3s        -0.000009 -0.007179 -0.000005  0.002051  0.000013 -0.004912
  4C   1pz       -0.233342 -0.030651  0.181470  0.128830  0.260622 -0.089292
  4C   1px       -0.107948  0.051308  0.083953 -0.345809  0.120522  0.170348
  4C   1py        0.026764 -0.060629 -0.020734 -0.271942 -0.029801 -0.092136
  4C   2pz       -0.069652 -0.026229  0.091871  0.045978  0.086878 -0.030348
  4C   2px       -0.032201  0.054625  0.042489 -0.122450  0.040165  0.055998
  4C   2py        0.007990 -0.008395 -0.010513 -0.093329 -0.009931 -0.038990
  4C   1dz2       0.002176 -0.000194 -0.003433 -0.007667 -0.007873  0.004788
  4C   1dxz      -0.003316 -0.000797  0.002807 -0.005041  0.006786  0.002906
  4C   1dyz      -0.004907 -0.001316 -0.002053 -0.004913 -0.003291 -0.000745
  4C   1dx2y2    -0.002349  0.001796  0.001461 -0.000559  0.003673  0.003055
  4C   1dxy      -0.001757  0.002542 -0.001483  0.014487 -0.002780 -0.001550
  5H   1s        -0.000033 -0.125967  0.000006 -0.091918  0.000004  0.070240
  5H   2s         0.000006 -0.018265 -0.000010 -0.028339  0.000005 -0.006859
  5H   1pz       -0.005272  0.001660 -0.006500  0.004407  0.001360  0.002592
  5H   1px       -0.002434 -0.000719 -0.003005 -0.008092  0.000629 -0.008328
  5H   1py        0.000608  0.011599  0.000744  0.005823 -0.000156 -0.011007
  6H   1s         0.147729  0.028351 -0.122805 -0.134655 -0.192005  0.090112
  6H   2s         0.026047 -0.002160 -0.012716 -0.029657 -0.048935  0.020978
  6H   1pz        0.006533  0.002409 -0.004835 -0.006468 -0.007866  0.004873
  6H   1px       -0.005371  0.000889  0.003761 -0.009123  0.005845  0.003545
  6H   1py        0.002958 -0.001331 -0.000430 -0.007768 -0.001420 -0.001871
  7H   1s        -0.147800  0.028359  0.122833 -0.134609  0.192012  0.090132
  7H   2s        -0.026077 -0.002156  0.012721 -0.029659  0.048936  0.020980
  7H   1pz       -0.000478 -0.002436 -0.000134  0.009503 -0.000287 -0.006091
  7H   1px        0.008173 -0.001352 -0.006056 -0.001740 -0.009614 -0.001526
  7H   1py       -0.003648 -0.000776  0.001000 -0.009594  0.002353 -0.000617
  8H   1s         0.115099  0.139855  0.215633  0.030541  0.006408  0.183573
  8H   2s         0.020813  0.028734  0.030455  0.023524  0.001756  0.057848
  8H   1pz        0.000188 -0.004350 -0.003337  0.000307 -0.001748 -0.002919
  8H   1px        0.003913 -0.000224  0.009413  0.001464 -0.006174  0.007723
  8H   1py        0.008372  0.008136  0.003680 -0.000392  0.006970  0.001982
  9H   1s         0.125798  0.076249 -0.150658 -0.016027  0.193945 -0.172096
  9H   2s         0.013710  0.007266 -0.019203  0.000362  0.050013 -0.045408
  9H   1pz        0.001003 -0.001960  0.003502  0.001314 -0.004713  0.002771
  9H   1px       -0.001586 -0.007424 -0.007552 -0.000424 -0.002197 -0.005148
  9H   1py       -0.009420 -0.005146  0.004387 -0.000266 -0.008781  0.005041
 10H   1s        -0.023286 -0.212013 -0.024093  0.020768 -0.207873  0.001429
 10H   2s        -0.011883 -0.026209 -0.003920 -0.003925 -0.053554 -0.004440
 10H   1pz        0.005703  0.007230  0.002432  0.000543  0.005990  0.000393
 10H   1px       -0.003678  0.006526 -0.002302 -0.001852  0.008352 -0.002606
 10H   1py        0.001311 -0.003150 -0.008305  0.000042  0.001910 -0.007906
 11H   1s        -0.000008  0.009211 -0.000039  0.367384 -0.000015 -0.078017
 11H   2s         0.000005  0.029353 -0.000017  0.090899 -0.000004 -0.016837
 11H   1pz       -0.006096 -0.000500  0.005597 -0.004121  0.008260 -0.000388
 11H   1px       -0.002822  0.001003  0.002586  0.011665  0.003819 -0.000595
 11H   1py        0.000698 -0.000324 -0.000641  0.011114 -0.000945 -0.005800
 12H   1s         0.023314 -0.212010  0.024078  0.020780  0.207868  0.001409
 12H   2s         0.011886 -0.026202  0.003936 -0.003917  0.053538 -0.004450
 12H   1pz        0.000578 -0.010061  0.001347  0.001062  0.009711  0.000241
 12H   1px        0.006580 -0.001470  0.004050 -0.001612 -0.001092 -0.002677
 12H   1py       -0.002032 -0.001174  0.007872 -0.000014 -0.003705 -0.007889
 13H   1s        -0.125875  0.076260  0.150663 -0.015997 -0.193935 -0.172091
 13H   2s        -0.013728  0.007268  0.019179  0.000375 -0.049994 -0.045398
 13H   1pz        0.001192  0.005872 -0.004303 -0.000559 -0.002989  0.003073
 13H   1px        0.002596 -0.003804  0.007183 -0.001288 -0.001365 -0.005009
 13H   1py        0.009172 -0.006044 -0.004295 -0.000053  0.009661  0.005006
 14H   1s        -0.114987  0.139884 -0.215627  0.030492 -0.006416  0.183575
 14H   2s        -0.020779  0.028739 -0.030504  0.023519 -0.001753  0.057871
 14H   1pz        0.001503  0.004427  0.004305 -0.001369 -0.007054 -0.003611
 14H   1px       -0.003124  0.003835 -0.008965  0.000686  0.002103  0.007402
 14H   1py       -0.008565  0.007133 -0.003793 -0.000200 -0.005962  0.002063
                     18        19        20        21        22        23   
                  -0.43240  -0.40460  -0.36280  -0.03815  -0.00453   0.00624
                   2.00000   2.00000   2.00000   0.00000   0.00000   0.00000
                  --------  --------  --------  --------  --------  --------
  0C   1s         0.000002  0.004142 -0.000001  0.030210  0.033663 -0.009225
  0C   2s        -0.000016 -0.013804  0.000004 -0.082022 -0.115611  0.039459
  0C   3s         0.000012  0.040145  0.000006 -0.683328 -0.011575  0.038555
  0C   1pz       -0.207967  0.127941  0.181772 -0.045476  0.075534 -0.025845
  0C   1px       -0.096159 -0.227054  0.084049  0.112870 -0.197844  0.025833
  0C   1py        0.023788  0.200731 -0.020796  0.058706 -0.139611 -0.120864
  0C   2pz       -0.048827  0.021665  0.028336 -0.077525  0.109626 -0.029138
  0C   2px       -0.022574 -0.037862  0.013083  0.195248 -0.277737  0.003177
  0C   2py        0.005588  0.036130 -0.003236  0.109056 -0.166092 -0.238860
  0C   1dz2      -0.007790  0.016697  0.018725  0.006955 -0.016715  0.007588
  0C   1dxz       0.005505  0.004795 -0.020171  0.003204 -0.013613  0.003585
  0C   1dyz      -0.008134 -0.004387 -0.008475  0.003156 -0.009876 -0.008171
  0C   1dx2y2     0.002518  0.020428 -0.012466  0.003522  0.002543  0.010730
  0C   1dxy      -0.004867 -0.003394 -0.000469 -0.010959  0.029160  0.011150
  1O   1s         0.000001  0.042609  0.000001 -0.070062  0.061716 -0.025785
  1O   2s         0.000005  0.088841  0.000000 -0.165743  0.138977 -0.048537
  1O   3s        -0.000006  0.125687  0.000013 -0.368244  0.397662 -0.226225
  1O   1pz       -0.211840 -0.136825 -0.525068 -0.051050  0.073437 -0.024341
  1O   1px       -0.097941  0.264661 -0.242777  0.082345 -0.176593  0.003002
  1O   1py        0.024227 -0.126261  0.060059 -0.113304 -0.071857 -0.200434
  1O   2pz       -0.128822 -0.080986 -0.350369 -0.052409  0.073126 -0.016624
  1O   2px       -0.059556  0.161557 -0.162007  0.074948 -0.177456 -0.022681
  1O   2py        0.014739 -0.054890  0.040077 -0.154831 -0.077846 -0.237188
  1O   1dz2      -0.004936  0.004084 -0.004883 -0.000823  0.003779 -0.002894
  1O   1dxz       0.005057  0.002493  0.003821  0.002115  0.000999  0.001275
  1O   1dyz       0.001181 -0.002313 -0.003609  0.001122  0.002132  0.000948
  1O   1dx2y2     0.003045  0.003598  0.001920 -0.005384  0.002873 -0.007085
  1O   1dxy      -0.000334  0.002012 -0.002404 -0.000954 -0.006997  0.000827
  2C   1s        -0.016631 -0.022697  0.036646  0.058992  0.052712 -0.025499
  2C   2s         0.043617  0.060123 -0.098783 -0.145555 -0.141483  0.068990
  2C   3s         0.045592  0.044514 -0.084777 -0.533971 -0.574945  0.257956
  2C   1pz        0.257009  0.002362 -0.108229  0.025830  0.092467 -0.065263
  2C   1px        0.042527  0.205869 -0.209212  0.140046 -0.085166 -0.018658
  2C   1py       -0.137740 -0.107400  0.010104 -0.038893 -0.088799 -0.225384
  2C   2pz        0.098913  0.017937 -0.054545  0.132170  0.216686 -0.168826
  2C   2px        0.036125  0.081225 -0.078757  0.366263 -0.137885 -0.033922
  2C   2py       -0.043558 -0.043438  0.036022 -0.110272 -0.210580 -0.415135
  2C   1dz2      -0.011627  0.011153  0.002734 -0.004477  0.016486 -0.011199
  2C   1dxz       0.001772  0.006494 -0.003565 -0.010954  0.001945  0.001073
  2C   1dyz      -0.003001 -0.001162 -0.000057  0.005072  0.000003  0.002256
  2C   1dx2y2     0.006306  0.005021 -0.000607 -0.003718 -0.014452 -0.007101
  2C   1dxy       0.003163  0.003460  0.006368  0.011605 -0.018538 -0.007815
  3C   1s         0.016635 -0.022697 -0.036647  0.059006  0.052732 -0.025487
  3C   2s        -0.043632  0.060124  0.098788 -0.145584 -0.141522  0.068918
  3C   3s        -0.045603  0.044473  0.084751 -0.534403 -0.575354  0.258027
  3C   1pz        0.219694 -0.176678 -0.227782 -0.129065 -0.010573  0.012945
  3C   1px        0.177872  0.123068  0.053844  0.068377 -0.132836  0.017538
  3C   1py        0.083240 -0.086901  0.028342 -0.021226 -0.077033 -0.234258
  3C   2pz        0.097670 -0.080586 -0.100436 -0.379741 -0.071695  0.053912
  3C   2px        0.054789  0.035649  0.007091  0.129352 -0.271295  0.069244
  3C   2py        0.021068 -0.032153 -0.018287 -0.051544 -0.177742 -0.440385
  3C   1dz2      -0.003100  0.008122  0.004491 -0.015018  0.001013 -0.002030
  3C   1dxz       0.011720  0.008076 -0.002365 -0.003858  0.020148 -0.006319
  3C   1dyz       0.000076 -0.006599  0.004274 -0.007355  0.013223  0.008144
  3C   1dx2y2     0.001304  0.005481 -0.002490 -0.000638 -0.002732 -0.010901
  3C   1dxy      -0.006960  0.000580 -0.003298  0.004402 -0.015458 -0.003676
  4C   1s         0.000001  0.038275  0.000000  0.062015  0.051645 -0.017191
  4C   2s        -0.000009 -0.100902  0.000002 -0.161767 -0.133301  0.026746
  4C   3s         0.000011 -0.115857 -0.000000 -0.480178 -0.599466  0.455450
  4C   1pz        0.205649 -0.089602 -0.035303 -0.003705  0.071501 -0.030775
  4C   1px        0.095086  0.121347 -0.016325  0.029570 -0.158412  0.008227
  4C   1py       -0.023521 -0.292795  0.004038  0.087220 -0.015562 -0.234434
  4C   2pz        0.078247 -0.044123  0.004754  0.026689  0.162467 -0.074055
  4C   2px        0.036173  0.062005  0.002199  0.022261 -0.350471  0.048912
  4C   2py       -0.008941 -0.135116 -0.000541  0.322433  0.002464 -0.446216
  4C   1dz2      -0.009269  0.005983  0.005432  0.000445  0.014009 -0.003908
  4C   1dxz       0.007103  0.000811 -0.004041  0.001457  0.003198  0.000045
  4C   1dyz      -0.007453 -0.001920  0.004864 -0.006878  0.004960  0.006540
  4C   1dx2y2     0.003505  0.009010 -0.001942  0.002478  0.013244 -0.010000
  4C   1dxy      -0.004825 -0.000790  0.003043  0.013709 -0.020227 -0.009832
  5H   1s        -0.000003 -0.144367 -0.000005  0.153806 -0.056333  0.165932
  5H   2s        -0.000004 -0.036300 -0.000001  0.578967 -0.212137  0.644206
  5H   1pz       -0.007240 -0.000162 -0.019121  0.003079  0.004102  0.002491
  5H   1px       -0.003348  0.003597 -0.008841 -0.004035 -0.010335 -0.002398
  5H   1py        0.000829  0.013122  0.002188  0.010594 -0.005924  0.012068
  6H   1s        -0.165688  0.084377  0.048558  0.010422  0.108903 -0.040048
  6H   2s        -0.049167  0.044097  0.043547  0.246925  0.603799 -0.283299
  6H   1pz       -0.005604  0.003992  0.001376 -0.005954 -0.010458  0.004789
  6H   1px        0.005537  0.002381 -0.000916 -0.000309 -0.004880  0.000026
  6H   1py       -0.000651 -0.006163  0.001748  0.005807 -0.002405 -0.009064
  7H   1s         0.165679  0.084382 -0.048557  0.010370  0.108817 -0.039884
  7H   2s         0.049167  0.044101 -0.043545  0.246754  0.603503 -0.282372
  7H   1pz        0.000763 -0.005460 -0.000149  0.005068  0.009820 -0.004726
  7H   1px       -0.007776 -0.001989  0.001483  0.004794  0.004497 -0.004369
  7H   1py        0.001203 -0.005083 -0.001888  0.004545 -0.004724 -0.007975
  8H   1s        -0.119782 -0.057321 -0.081458  0.094829 -0.132999 -0.038293
  8H   2s        -0.034998 -0.025727 -0.051118  0.498248 -0.291477 -0.508482
  8H   1pz        0.007261 -0.003040 -0.004838 -0.003571 -0.006069  0.001106
  8H   1px       -0.001264  0.000958 -0.003358 -0.006889  0.001039  0.010689
  8H   1py       -0.003435 -0.006027 -0.002635 -0.009605  0.001573  0.001765
  9H   1s         0.056574 -0.131111  0.008500  0.033042  0.086724  0.081994
  9H   2s         0.018947 -0.061425 -0.000330  0.410687  0.450290  0.563865
  9H   1pz        0.004500 -0.001450 -0.005321 -0.008719  0.003776 -0.001155
  9H   1px        0.007209  0.001488  0.001262  0.001073 -0.009674  0.000226
  9H   1py       -0.001954  0.005807  0.001253  0.012250  0.003872  0.009297
 10H   1s         0.193390  0.071320 -0.038893  0.016288  0.113854 -0.073811
 10H   2s         0.060570  0.035213 -0.041124  0.260064  0.617382 -0.410826
 10H   1pz       -0.000923 -0.005920 -0.002806 -0.004943  0.006917 -0.003634
 10H   1px       -0.007185 -0.000034  0.003015  0.008188  0.005675 -0.006305
 10H   1py        0.005632 -0.001724  0.000203 -0.002588 -0.008231 -0.002515
 11H   1s        -0.000001  0.022020  0.000001  0.093230 -0.125623 -0.074982
 11H   2s         0.000002  0.016981  0.000003  0.533297 -0.296847 -0.521414
 11H   1pz        0.006210 -0.002967 -0.001984  0.004094  0.001421 -0.005809
 11H   1px        0.002871  0.005146 -0.000917 -0.009564 -0.001319  0.011927
 11H   1py       -0.000711 -0.005133  0.000227 -0.002841  0.007089 -0.002553
 12H   1s        -0.193414  0.071319  0.038890  0.016275  0.113868 -0.073891
 12H   2s        -0.060580  0.035217  0.041132  0.259950  0.617498 -0.411587
 12H   1pz       -0.007048  0.003434  0.000467 -0.003542 -0.010173  0.006580
 12H   1px        0.003500  0.004291 -0.004097  0.008835 -0.002228 -0.001589
 12H   1py       -0.004720 -0.002794  0.000065 -0.002741 -0.006276 -0.003684
 13H   1s        -0.056541 -0.131124 -0.008494  0.033081  0.086669  0.082068
 13H   2s        -0.018926 -0.061425  0.000325  0.410639  0.449940  0.564181
 13H   1pz        0.008633  0.000874 -0.002634  0.006965  0.005636  0.002285
 13H   1px       -0.001137  0.002563 -0.004941  0.008329 -0.008814  0.001813
 13H   1py        0.000450  0.005542 -0.000342  0.010449  0.003660  0.008900
 14H   1s         0.119776 -0.057324  0.081455  0.094785 -0.132980 -0.038358
 14H   2s         0.035009 -0.025723  0.051122  0.498285 -0.291420 -0.508886
 14H   1pz        0.004264  0.000068 -0.005087  0.005656  0.003332 -0.008427
 14H   1px        0.006591  0.002395 -0.001232 -0.002628  0.005387  0.006282
 14H   1py        0.002119 -0.006383  0.003771 -0.010658  0.000497  0.002857
                     24        25        26        27        28        29   
                   0.02132   0.03597   0.03938   0.04412   0.06921   0.06946
                   0.00000   0.00000   0.00000   0.00000   0.00000   0.00000
                  --------  --------  --------  --------  --------  --------
  0C   1s        -0.000015  0.007033 -0.000033 -0.000449 -0.054762  0.000304
  0C   2s         0.000070 -0.026355  0.000105 -0.017615  0.110127 -0.000601
  0C   3s        -0.000042  0.076904  0.000448  0.339141  1.421280 -0.007893
  0C   1pz        0.147548 -0.045769 -0.113355  0.044150  0.016156  0.069386
  0C   1px        0.068273  0.057341 -0.052511 -0.101065 -0.075365  0.032536
  0C   1py       -0.016916 -0.167945  0.013017 -0.022572 -0.167533 -0.006994
  0C   2pz        0.274447 -0.120427 -0.321657  0.152507  0.119129  0.161186
  0C   2px        0.126903  0.153056 -0.149420 -0.329734 -0.409767  0.077167
  0C   2py       -0.031330 -0.434182  0.036819 -0.000307 -0.622105 -0.014988
  0C   1dz2      -0.015266  0.016902  0.007225  0.001442 -0.005743 -0.004629
  0C   1dxz       0.009081  0.019277 -0.004308  0.007964 -0.019509  0.010873
  0C   1dyz      -0.022893 -0.011995  0.010899 -0.004850  0.001803  0.025286
  0C   1dx2y2     0.003356  0.001749 -0.001575 -0.007839  0.022158  0.008279
  0C   1dxy      -0.012555  0.015734  0.005955  0.010761 -0.004261  0.010208
  1O   1s        -0.000025  0.034648 -0.000042  0.058140  0.012366 -0.000061
  1O   2s        -0.000051  0.074624 -0.000115  0.126202  0.021229 -0.000098
  1O   3s        -0.000198  0.277895 -0.000140  0.441603  0.177325 -0.000968
  1O   1pz        0.020437  0.040353  0.068507  0.017285  0.029573 -0.067926
  1O   1px        0.009495 -0.058683  0.031714 -0.017373 -0.061107 -0.030983
  1O   1py       -0.002438  0.115113 -0.008027  0.080556  0.015643  0.007694
  1O   2pz       -0.021287  0.054508  0.060322  0.040583  0.041417 -0.058116
  1O   2px       -0.009800 -0.080618  0.027887 -0.059576 -0.097004 -0.026212
  1O   2py        0.002311  0.150435 -0.007231  0.113840 -0.026849  0.006819
  1O   1dz2       0.001473  0.001230 -0.000347  0.003192 -0.004061  0.004064
  1O   1dxz      -0.002008  0.001894  0.001146 -0.001175  0.000367 -0.004528
  1O   1dyz      -0.002360 -0.000255  0.003302 -0.001051  0.001623 -0.002543
  1O   1dx2y2    -0.001374 -0.001043  0.000946  0.007445 -0.007906 -0.002803
  1O   1dxy      -0.000770  0.000061  0.001376 -0.000829  0.000163 -0.000408
  2C   1s        -0.014741 -0.041768  0.118666  0.064598  0.013956 -0.018414
  2C   2s         0.046619  0.098428 -0.278792 -0.149424 -0.017359  0.040721
  2C   3s        -0.002055  0.532437 -1.787556 -1.153890 -0.572843  0.294067
  2C   1pz        0.225627 -0.127351  0.062385 -0.096802  0.046113  0.148652
  2C   1px        0.078937  0.104486  0.079100  0.160045 -0.086734 -0.139194
  2C   1py        0.029194 -0.051164 -0.053376 -0.042581 -0.063929 -0.255381
  2C   2pz        0.453147 -0.337902  0.048899 -0.267241  0.020769  0.351554
  2C   2px        0.179188  0.273584  0.088863  0.245646 -0.350566 -0.276482
  2C   2py        0.116560 -0.151084 -0.134609 -0.033455  0.018903 -0.648620
  2C   1dz2       0.014006 -0.025949 -0.008619 -0.003252  0.018426  0.010277
  2C   1dxz      -0.007395 -0.006449 -0.003616 -0.000104  0.008354  0.001000
  2C   1dyz       0.000336 -0.001306  0.002164 -0.003238 -0.006680  0.010551
  2C   1dx2y2     0.002010 -0.012112 -0.004008 -0.006107 -0.002821 -0.017221
  2C   1dxy       0.013492 -0.012587 -0.004414 -0.001394 -0.014470 -0.024254
  3C   1s         0.014689 -0.041923 -0.118627  0.064502  0.014176  0.018279
  3C   2s        -0.046448  0.098829  0.278704 -0.149124 -0.017806 -0.040563
  3C   3s         0.002405  0.534456  1.786849 -1.153081 -0.576364 -0.287993
  3C   1pz        0.196273 -0.007860  0.109016 -0.067482  0.024719  0.036067
  3C   1px        0.116143  0.159613 -0.000221  0.173543 -0.094156  0.225906
  3C   1py       -0.077679 -0.064791  0.033920 -0.046018 -0.058775  0.234892
  3C   2pz        0.399015 -0.020985  0.123497 -0.022706  0.255895  0.131224
  3C   2px        0.214783  0.419744 -0.010034  0.358355 -0.236453  0.503831
  3C   2py       -0.214426 -0.187108  0.115368 -0.061430 -0.001124  0.593231
  3C   1dz2       0.007172 -0.010040  0.005039 -0.002211  0.012237  0.002252
  3C   1dxz      -0.010045 -0.016670  0.006326  0.000961  0.018232 -0.014130
  3C   1dyz       0.011842  0.019375 -0.005398  0.005086  0.009495 -0.013446
  3C   1dx2y2    -0.011141 -0.016310  0.005319 -0.004781  0.004513  0.009408
  3C   1dxy      -0.004577 -0.000880  0.002404  0.002394 -0.008159  0.025314
  4C   1s        -0.000026  0.119607 -0.000042 -0.073621  0.040110 -0.000228
  4C   2s         0.000067 -0.286727  0.000138  0.167265 -0.073238  0.000427
  4C   3s         0.000469 -1.735635  0.000340  1.149829 -1.012035  0.005648
  4C   1pz        0.293527 -0.011757 -0.001804 -0.056667 -0.164473 -0.011928
  4C   1px        0.135776  0.030563 -0.000872  0.097236  0.365394 -0.008056
  4C   1py       -0.033689  0.020653  0.000206 -0.102532  0.039977  0.001255
  4C   2pz        0.644147 -0.019883 -0.102811 -0.093670 -0.497895 -0.103318
  4C   2px        0.297928  0.019609 -0.047390  0.155414  1.037371 -0.055067
  4C   2py       -0.073806 -0.094457  0.011799 -0.189534 -0.153095  0.012966
  4C   1dz2       0.021827  0.002375 -0.012938  0.002159 -0.026891 -0.008184
  4C   1dxz      -0.017682  0.000174  0.009691 -0.002521 -0.018325  0.007087
  4C   1dyz       0.013723  0.003351 -0.011277  0.006299  0.001467 -0.004324
  4C   1dx2y2    -0.009145  0.001348  0.004687  0.003615 -0.012103  0.003771
  4C   1dxy       0.009700 -0.008541 -0.007109 -0.014983  0.013397 -0.003384
  5H   1s         0.000107 -0.088400  0.000163 -0.175504  0.047961 -0.000323
  5H   2s         0.000366 -0.448125  0.000797 -0.613606 -0.027484  0.000033
  5H   1pz        0.000303 -0.000769 -0.001403  0.002639 -0.001982 -0.000965
  5H   1px        0.000141  0.000337 -0.000644 -0.006884  0.004141 -0.000475
  5H   1py       -0.000026 -0.005332  0.000168 -0.004742 -0.000544  0.000112
  6H   1s         0.176221  0.071906 -0.110002 -0.021316 -0.118738 -0.055190
  6H   2s         0.959746  0.660813 -0.167099 -0.649961 -0.582259 -0.113151
  6H   1pz       -0.011737 -0.008648 -0.001405  0.010373  0.009765  0.000076
  6H   1px        0.006643  0.004667 -0.004753  0.000377  0.013711 -0.003785
  6H   1py       -0.002483 -0.005912  0.006331 -0.005479 -0.001458  0.003111
  7H   1s        -0.176294  0.071992  0.109937 -0.021193 -0.118092  0.056575
  7H   2s        -0.960282  0.660881  0.166759 -0.649843 -0.580925  0.119926
  7H   1pz       -0.001936  0.000822 -0.005650 -0.007848 -0.016796 -0.003192
  7H   1px       -0.012970  0.009053  0.001486 -0.008047  0.001472  0.002240
  7H   1py        0.004041 -0.007000 -0.005521 -0.003398  0.001542 -0.002751
  8H   1s        -0.046332 -0.009762 -0.063815  0.043932 -0.120638  0.216830
  8H   2s        -0.072785  0.023686 -0.714977  0.771498 -0.338476  1.282945
  8H   1pz        0.005380 -0.004320 -0.004983 -0.001124 -0.007952  0.015097
  8H   1px        0.003830  0.004935  0.005386 -0.008183  0.002635 -0.010319
  8H   1py       -0.002773 -0.007647  0.008545 -0.008123  0.000160 -0.007492
  9H   1s         0.072058  0.151948 -0.127656  0.070363  0.005115 -0.136477
  9H   2s         0.308534  0.297126 -0.954325  0.739708  0.164156 -0.599753
  9H   1pz        0.010444  0.008036 -0.006927  0.004220  0.006069 -0.004803
  9H   1px        0.001304  0.001457  0.001173 -0.003035 -0.004928  0.010491
  9H   1py        0.002130  0.000009 -0.011543  0.009665 -0.000810 -0.003371
 10H   1s        -0.107028 -0.172496 -0.014866  0.018262  0.103604 -0.076763
 10H   2s        -0.662832 -0.873889 -0.750539  0.002218  0.390651 -0.453816
 10H   1pz        0.001655 -0.012539 -0.002839  0.002226  0.012162 -0.003610
 10H   1px       -0.010917 -0.005489 -0.011809 -0.001024 -0.001527 -0.000957
 10H   1py        0.002077 -0.002597  0.004570  0.002095  0.002283  0.012445
 11H   1s        -0.000018  0.008822  0.000011 -0.122490  0.209357 -0.001219
 11H   2s        -0.000161  0.696234 -0.000119 -0.495434  1.571414 -0.009021
[...]
     43      -0.144561   0.020633   0.174192   0.294716   0.065997  -0.240417
     44      -0.039388   0.179728  -0.335291  -0.086997  -0.286135  -0.257196
                 30         31         32         33         34         35    
      0       0.001152  -0.001824  -0.024109   0.046400  -0.032430   0.000973
      1      -0.000297  -0.006787   0.005767  -0.074934  -0.049438  -0.000245
      2       0.002393   0.000111  -0.052524  -0.029921   0.009309   0.002126
      3      -0.000284  -0.002366   0.001688  -0.018294   0.000474  -0.000029
      4       0.000069   0.001824  -0.000397   0.011103   0.007113   0.000009
      5      -0.000598   0.001304   0.003820   0.009735   0.000603  -0.000066
      6      -0.012619  -0.013835   0.025241   0.001442  -0.000404  -0.029589
      7      -0.034951  -0.009944  -0.011047  -0.009411  -0.019226   0.016898
      8       0.012181   0.019234  -0.008783  -0.019475   0.012471  -0.011499
      9       0.020604  -0.024356  -0.022053   0.014951  -0.011319   0.009150
     10       0.033000  -0.007104   0.010207  -0.012886  -0.016518  -0.012038
     11       0.004694  -0.003519   0.015630   0.009361  -0.011122  -0.032989
     12      -0.003633   0.034219  -0.011167   0.000608  -0.027983  -0.000069
     13       0.000870   0.011353   0.002843   0.032626   0.009787  -0.000033
     14      -0.007688  -0.014441  -0.024216   0.003527   0.014040  -0.000180
     15      -0.003573   0.025594   0.007807   0.196181   0.062358  -0.000963
     16       0.000922   0.011891  -0.001495   0.084364   0.028634   0.000254
     17      -0.007854  -0.010530   0.015159  -0.081149  -0.025567  -0.002095
     18       0.044151  -0.459144   0.159069  -0.210758   0.391121   0.000272
     19       0.074804   0.039320   0.312542  -0.007487  -0.080232  -0.001058
     20      -0.000683  -0.093089  -0.008021  -0.027240   0.087813   0.000569
     21      -0.035008  -0.225042  -0.137453  -0.116760   0.181601  -0.000699
     22      -0.076755  -0.017485  -0.318076  -0.029018  -0.028682   0.001155
     23       0.017580   0.411757   0.058057   0.174344  -0.365014   0.000154
     24       0.123093   0.085688   0.191951  -0.295756  -0.069998  -0.276432
     25       0.009246  -0.187275  -0.278716   0.302493  -0.032075  -0.238278
     26       0.227075  -0.120287  -0.055856  -0.089336  -0.192266   0.116018
     27      -0.345092   0.338084   0.273489  -0.191778   0.276730  -0.126804
     28      -0.020774   0.082182   0.121761  -0.125057   0.011703   0.459705
     29      -0.236883   0.041514  -0.122025   0.254880   0.214601   0.105869
     30      -0.081044  -0.037280  -0.098390   0.177549   0.033670   0.293523
     31      -0.480526   0.211678   0.001226   0.182630   0.361403  -0.080696
     32      -0.062619   0.135777   0.156334  -0.193066   0.088517   0.158370
     33       0.052812   0.160611   0.201392   0.124912  -0.126052   0.000650
     34      -0.012861  -0.172168  -0.050036  -0.132516   0.149470   0.000442
     35       0.114925  -0.094947   0.434696  -0.074213   0.075620   0.000115
     36       0.047746  -0.107840   0.183493   0.275409  -0.013930  -0.064291
     37       0.488213   0.231894  -0.020744   0.157073   0.373261   0.023830
     38      -0.010823  -0.018013   0.024231   0.021795  -0.013757   0.332802
     39       0.046466   0.195439  -0.282174  -0.325661   0.019727   0.121702
     40       0.093537   0.117579  -0.120503  -0.090789   0.075479  -0.454186
     41      -0.404140  -0.267483   0.106159  -0.039224  -0.341721  -0.113560
     42       0.089364   0.130507  -0.143624  -0.098439   0.096780   0.286281
     43      -0.060480  -0.197823   0.267750   0.251879  -0.073477   0.234098
     44       0.234918  -0.021893   0.163456   0.333700   0.167901  -0.090277
                 36         37         38         39         40         41    
      0      -0.001424  -0.000037   0.000059  -0.000036   0.000486   0.001510
      1      -0.000097   0.002020  -0.000005   0.003240  -0.000093   0.000360
      2       0.000637   0.000248   0.000152   0.000385   0.000965  -0.000677
      3       0.000186   0.000068  -0.000070  -0.000124  -0.000181  -0.000344
      4      -0.000032   0.000010   0.000015  -0.000725   0.000031  -0.000400
      5      -0.000090  -0.000031  -0.000154  -0.000024  -0.000372   0.000122
      6       0.029422  -0.006228  -0.015154   0.013217  -0.031461   0.033390
      7      -0.016549   0.004304  -0.060855   0.060160  -0.007273   0.010029
      8       0.012022  -0.002416  -0.017118   0.020635   0.051614  -0.053405
      9       0.008511  -0.001831   0.001904  -0.002234   0.062859   0.060116
     10      -0.011415   0.003282   0.064455   0.063390   0.000777   0.002990
     11      -0.032543   0.007030  -0.011073  -0.011814   0.010495   0.009788
     12       0.002736   0.015816   0.001020  -0.004555  -0.013746  -0.025233
     13      -0.008701  -0.044708  -0.000259  -0.001729   0.002940  -0.011233
     14      -0.002252  -0.012379   0.002289   0.001933  -0.027995   0.011393
     15       0.000988  -0.001796   0.001465  -0.005030   0.000754   0.000356
     16       0.004238  -0.000958  -0.000374  -0.002396  -0.000135   0.002602
     17       0.000034   0.000730   0.003214   0.002036   0.001661   0.000101
     18      -0.018630  -0.093275   0.002312   0.005035  -0.042092   0.016657
     19       0.003627   0.027243  -0.000663  -0.002709   0.012900  -0.008916
     20       0.114375   0.562285  -0.016503  -0.030035   0.226683  -0.132265
     21      -0.098117  -0.482785  -0.013357   0.025393   0.202678   0.098105
     22       0.023284   0.123569   0.003375  -0.007742  -0.052877  -0.028887
     23      -0.057410  -0.279279  -0.008239   0.014471   0.112211   0.062684
     24      -0.267048   0.050133  -0.337547  -0.316038  -0.265141  -0.267077
     25      -0.229614   0.043589  -0.272351  -0.253670  -0.231611  -0.233600
     26       0.111505  -0.020970   0.144158   0.135079   0.119727   0.121524
     27      -0.122312   0.027381   0.133330   0.132610  -0.014538  -0.009637
     28       0.443658  -0.098649  -0.463216  -0.465326   0.092903   0.076869
     29       0.103693  -0.025137  -0.115588  -0.119064   0.023861   0.020544
     30       0.288637  -0.057005   0.181563   0.210780  -0.472488  -0.445451
     31      -0.078590   0.015570  -0.033851  -0.043744   0.128291   0.120821
     32       0.158659  -0.032312   0.100354   0.117865  -0.271127  -0.256029
     33       0.085506   0.394961  -0.000164   0.025543   0.002636   0.184763
     34       0.077905   0.358545   0.000120   0.022239   0.005049   0.171768
     35      -0.030626  -0.141598  -0.000518  -0.009260  -0.006508  -0.065613
     36       0.062195  -0.011381  -0.038817   0.044148   0.088681  -0.091143
     37      -0.022551   0.004248  -0.001506  -0.002317  -0.032711   0.033558
     38      -0.334857   0.065948   0.201250  -0.237903  -0.528533   0.545342
     39      -0.120648   0.028165  -0.133376   0.137108   0.019605  -0.016547
     40       0.446443  -0.098359   0.460423  -0.469184  -0.093245   0.084145
     41       0.110542  -0.023077   0.113499  -0.112633  -0.013542   0.009693
     42      -0.281147   0.052531   0.350718  -0.333752   0.266650  -0.296073
     43      -0.229859   0.043317   0.268056  -0.253838   0.214423  -0.237582
     44       0.089286  -0.016536  -0.112369   0.107092  -0.076524   0.084114
                  42         43         44    
      0       0.001066   0.002563   0.001748
      1      -0.000260   0.000489  -0.001455
      2       0.002293  -0.001135  -0.000975
      3      -0.000155  -0.000580   0.014281
      4       0.000037  -0.000404  -0.059074
      5      -0.000332   0.000222  -0.013438
      6      -0.011259   0.011682  -0.000045
      7      -0.001208   0.006550   0.000532
      8       0.018753  -0.016301  -0.000005
      9       0.021438   0.020453   0.000021
     10      -0.001219   0.004495   0.000516
     11       0.003487   0.002639   0.000136
     12       0.036870   0.075471  -0.000435
     13      -0.008920   0.033355   0.000275
     14       0.079110  -0.031371   0.000233
     15      -0.000014  -0.000939  -0.246120
     16      -0.000007  -0.000048   0.941229
     17      -0.000015   0.000431   0.222705
     18       0.119866  -0.050851   0.000238
     19      -0.041364   0.028629   0.000718
     20      -0.650275   0.373055   0.000195
     21      -0.566237  -0.308440   0.000067
     22       0.151837   0.092239   0.000756
     23      -0.312747  -0.189544  -0.000173
     24      -0.082348  -0.112086   0.001852
     25      -0.073043  -0.095807   0.001290
     26       0.037263   0.051328  -0.002218
     27      -0.009059   0.002201   0.000182
     28       0.043659   0.002620  -0.001978
     29       0.010780   0.001204   0.001340
     30      -0.166944  -0.138838  -0.000013
     31       0.043891   0.038322  -0.000479
     32      -0.097740  -0.081022   0.000253
     33       0.003956  -0.549753   0.000079
     34      -0.003420  -0.515238  -0.001241
     35       0.013782   0.195202  -0.000179
     36       0.031612  -0.026206  -0.000236
     37      -0.010388   0.010413  -0.000418
     38      -0.197475   0.163683  -0.000237
     39       0.010555   0.000543  -0.001057
     40      -0.044959   0.003677  -0.001686
     41      -0.008399  -0.001753  -0.001351
     42       0.087754  -0.119157   0.002985
     43       0.071511  -0.093273   0.001007
     44      -0.024871   0.034016   0.000242


-----------
IR SPECTRUM
-----------

 Mode    freq (cm**-1)   T**2         TX         TY         TZ
-------------------------------------------------------------------
   6:       210.61    1.315662  ( -0.481633   0.119862  -1.034081)
   7:       266.23    3.285323  ( -0.764364   0.185822  -1.632955)
   8:       276.34    0.024705  ( -0.114106  -0.074997   0.077850)
   9:       313.86   70.174034  (  3.495312  -0.876794   7.562279)
  10:       335.82    1.285427  ( -0.285024  -1.097068  -0.025125)
  11:       338.64   25.472057  (  2.107829  -0.528869   4.555152)
  12:       410.69    0.463697  ( -0.612773  -0.145216   0.259072)
  13:       455.90    8.125495  ( -0.977498  -2.673980   0.140795)
  14:       461.52   12.529725  ( -1.482512   0.360270  -3.194071)
  15:       742.93    1.473507  (  0.885867   0.766395  -0.318411)
  16:       883.47    0.023868  (  0.066641  -0.014780   0.138595)
  17:       898.55    4.968180  (  1.490135   1.578678  -0.505423)
  18:       913.95   30.944161  (  4.295619   3.138276  -1.625744)
  19:       921.77    0.003970  (  0.035036   0.000100   0.052369)
  20:       990.38    7.872375  (  1.683411   2.181961  -0.526829)
  21:      1005.07    1.123893  ( -0.435949   0.115810  -0.959390)
  22:      1126.09   57.166569  (  4.576280   5.843300  -1.442246)
  23:      1192.64   51.423528  ( -5.779665  -3.584358   2.274066)
  24:      1214.51   25.526471  ( -2.122233   0.518184  -4.555665)
  25:      1313.65   18.462521  ( -3.559547  -1.933125   1.433589)
  26:      1335.40   12.508983  ( -1.486553   0.363768  -3.188545)
  27:      1350.15   31.238971  ( -4.853556   1.369886   2.409435)
  28:      1364.07    4.233300  (  0.728899  -1.843447  -0.551099)
  29:      1400.77    0.034106  (  0.071632  -0.014388   0.169610)
  30:      1409.69    0.001660  (  0.016264  -0.005376   0.036966)
  31:      1414.49    0.095787  (  0.251713  -0.121253  -0.133138)
  32:      1427.93    2.171804  (  0.614885  -0.144564   1.331473)
  33:      1439.36    4.058113  (  0.814882   1.834385  -0.170627)
  34:      1447.93    6.398075  (  1.846277   1.590634  -0.677658)
  35:      2954.63   19.705170  ( -1.842521   0.434254  -4.015185)
  36:      2959.37   28.104348  (  3.428434  -3.533128  -1.966518)
  37:      2975.97    9.690892  (  0.599062  -2.992197  -0.615445)
  38:      3036.05    2.844679  ( -0.712158   0.197132  -1.516130)
  39:      3042.11   49.389895  (  0.489790   6.988142   0.562026)
  40:      3060.23    3.434159  (  0.848966  -0.168452   1.638609)
  41:      3062.18   12.569492  (  3.204557   0.087284  -1.514163)
  42:      3066.41   28.178667  (  2.223252  -0.536096   4.790451)
  43:      3072.59   32.353640  (  4.983899   1.733097  -2.123855)
  44:      3680.60    6.749894  (  0.371469   2.568173   0.128027)

The first frequency considered to be a vibration is 6
The total number of vibrations considered is 39


--------------------------
THERMOCHEMISTRY AT 298.15K
--------------------------

Temperature         ... 298.15 K
Pressure            ... 1.00 atm
Total Mass          ... 74.12 AMU

Throughout the following assumptions are being made:
  (1) The electronic state is orbitally nondegenerate
  (2) There are no thermally accessible electronically excited states
  (3) Hindered rotations indicated by low frequency modes are not
      treated as such but are treated as vibrations and this may
      cause some error
  (4) All equations used are the standard statistical mechanics
      equations for an ideal gas
  (5) All vibrations are strictly harmonic

freq.     210.61  E(vib)   ...       0.34 
freq.     266.23  E(vib)   ...       0.29 
freq.     276.34  E(vib)   ...       0.28 
freq.     313.86  E(vib)   ...       0.25 
freq.     335.82  E(vib)   ...       0.24 
freq.     338.64  E(vib)   ...       0.23 
freq.     410.69  E(vib)   ...       0.19 
freq.     455.90  E(vib)   ...       0.16 
freq.     461.52  E(vib)   ...       0.16 
freq.     742.93  E(vib)   ...       0.06 
freq.     883.47  E(vib)   ...       0.04 
freq.     898.55  E(vib)   ...       0.03 
freq.     913.95  E(vib)   ...       0.03 
freq.     921.77  E(vib)   ...       0.03 
freq.     990.38  E(vib)   ...       0.02 
freq.    1005.07  E(vib)   ...       0.02 
freq.    1126.09  E(vib)   ...       0.01 
freq.    1192.64  E(vib)   ...       0.01 
freq.    1214.51  E(vib)   ...       0.01 
freq.    1313.65  E(vib)   ...       0.01 
freq.    1335.40  E(vib)   ...       0.01 
freq.    1350.15  E(vib)   ...       0.01 
freq.    1364.07  E(vib)   ...       0.01 
freq.    1400.77  E(vib)   ...       0.00 
freq.    1409.69  E(vib)   ...       0.00 
freq.    1414.49  E(vib)   ...       0.00 
freq.    1427.93  E(vib)   ...       0.00 
freq.    1439.36  E(vib)   ...       0.00 
freq.    1447.93  E(vib)   ...       0.00 
freq.    2954.63  E(vib)   ...       0.00 
freq.    2959.37  E(vib)   ...       0.00 
freq.    2975.97  E(vib)   ...       0.00 
freq.    3036.05  E(vib)   ...       0.00 
freq.    3042.11  E(vib)   ...       0.00 
freq.    3060.23  E(vib)   ...       0.00 
freq.    3062.18  E(vib)   ...       0.00 
freq.    3066.41  E(vib)   ...       0.00 
freq.    3072.59  E(vib)   ...       0.00 
freq.    3680.60  E(vib)   ...       0.00 

------------
INNER ENERGY
------------

The inner energy is: U= E(el) + E(ZPE) + E(vib) + E(rot) + E(trans)
    E(el)   - is the total energy from the electronic structure calculation
              = E(kin-el) + E(nuc-el) + E(el-el) + E(nuc-nuc)
    E(ZPE)  - the the zero temperature vibrational energy from the frequency calculation
    E(vib)  - the the finite temperature correction to E(ZPE) due to population
              of excited vibrational states
    E(rot)  - is the rotational thermal energy
    E(trans)- is the translational thermal energy

Summary of contributions to the inner energy U:
Electronic energy                ...   -233.44864969 Eh
Zero point energy                ...      0.13161557 Eh      82.59 kcal/mol
Thermal vibrational correction   ...      0.00394354 Eh       2.47 kcal/mol
Thermal rotational correction    ...      0.00141627 Eh       0.89 kcal/mol
Thermal translational correction ...      0.00141627 Eh       0.89 kcal/mol
-----------------------------------------------------------------------
Total thermal energy                   -233.31025804 Eh


Summary of corrections to the electronic energy:
(perhaps to be used in another calculation)
Total thermal correction                  0.00677608 Eh       4.25 kcal/mol
Non-thermal (ZPE) correction              0.13161557 Eh      82.59 kcal/mol
-----------------------------------------------------------------------
Total correction                          0.13839165 Eh      86.84 kcal/mol


--------
ENTHALPY
--------

The enthalpy is H = U + kB*T
                kB is Boltzmann's constant
Total free energy                 ...   -233.31025804 Eh 
Thermal Enthalpy correction       ...      0.00094421 Eh       0.59 kcal/mol
-----------------------------------------------------------------------
Total Enthalpy                    ...   -233.30931383 Eh


Note: Only C1 symmetry has been detected, increase convergence thresholds 
      if your molecule has a higher symmetry. Symmetry factor of 1.0 is   
      used for the rotational entropy correction. 
 

Note: Rotational entropy computed according to Herzberg 
Infrared and Raman Spectra, Chapter V,1, Van Nostrand Reinhold, 1945 
Point Group:  C1, Symmetry Number:   1  
Rotational constants in cm-1:     0.154741     0.153907     0.147882 

Vibrational entropy computed according to the QRRHO of S. Grimme
Chem.Eur.J. 2012 18 9955


-------
ENTROPY
-------

The entropy contributions are T*S = T*(S(el)+S(vib)+S(rot)+S(trans))
     S(el)   - electronic entropy
     S(vib)  - vibrational entropy
     S(rot)  - rotational entropy
     S(trans)- translational entropy
The entropies will be listed as mutliplied by the temperature to get
units of energy

Electronic entropy                ...      0.00000000 Eh      0.00 kcal/mol
Vibrational entropy               ...      0.00609443 Eh      3.82 kcal/mol
Rotational entropy                ...      0.01217753 Eh      7.64 kcal/mol
Translational entropy             ...      0.01844715 Eh     11.58 kcal/mol
-----------------------------------------------------------------------
Final entropy term                ...      0.03671911 Eh     23.04 kcal/mol

In case the symmetry of your molecule has not been determined correctly
or in case you have a reason to use a different symmetry number we print 
out the resulting rotational entropy values for sn=1,12 :
 --------------------------------------------------------
|  sn= 1 | S(rot)=       0.01217753 Eh      7.64 kcal/mol|
|  sn= 2 | S(rot)=       0.01152308 Eh      7.23 kcal/mol|
|  sn= 3 | S(rot)=       0.01114024 Eh      6.99 kcal/mol|
|  sn= 4 | S(rot)=       0.01086862 Eh      6.82 kcal/mol|
|  sn= 5 | S(rot)=       0.01065793 Eh      6.69 kcal/mol|
|  sn= 6 | S(rot)=       0.01048579 Eh      6.58 kcal/mol|
|  sn= 7 | S(rot)=       0.01034024 Eh      6.49 kcal/mol|
|  sn= 8 | S(rot)=       0.01021416 Eh      6.41 kcal/mol|
|  sn= 9 | S(rot)=       0.01010296 Eh      6.34 kcal/mol|
|  sn=10 | S(rot)=       0.01000348 Eh      6.28 kcal/mol|
|  sn=11 | S(rot)=       0.00991349 Eh      6.22 kcal/mol|
|  sn=12 | S(rot)=       0.00983133 Eh      6.17 kcal/mol|
 --------------------------------------------------------


-------------------
GIBBS FREE ENERGY
-------------------

The Gibbs free energy is G = H - T*S

Total enthalpy                    ...   -233.30931383 Eh 
Total entropy correction          ...     -0.03671911 Eh    -23.04 kcal/mol
-----------------------------------------------------------------------
Final Gibbs free energy         ...   -233.34603293 Eh

For completeness - the Gibbs free energy minus the electronic energy
G-E(el)                           ...      0.10261676 Eh     64.39 kcal/mol


Timings for individual modules:

Sum of individual times         ...       96.403 sec (=   1.607 min)
GTO integral calculation        ...        2.967 sec (=   0.049 min)   3.1 %
SCF iterations                  ...       26.858 sec (=   0.448 min)  27.9 %
SCF Gradient evaluation         ...       12.068 sec (=   0.201 min)  12.5 %
Geometry relaxation             ...        0.343 sec (=   0.006 min)   0.4 %
Analytical frequency calculation...       54.167 sec (=   0.903 min)  56.2 %
                             ****ORCA TERMINATED NORMALLY****
TOTAL RUN TIME: 0 days 0 hours 1 minutes 37 seconds 486 msec
