
                                 *****************
                                 * O   R   C   A *
                                 *****************

           --- An Ab Initio, DFT and Semiempirical electronic structure package ---

                  #######################################################
                  #                        -***-                        #
                  #          Department of theory and spectroscopy      #
                  #               Directorship: Frank Neese             #
                  #        Max Planck Institute fuer Kohlenforschung    #
                  #                Kaiser Wilhelm Platz 1               #
                  #                 D-45470 Muelheim/Ruhr               #
                  #                      Germany                        #
                  #                                                     #
                  #                  All rights reserved                #
                  #                        -***-                        #
                  #######################################################


                         Program Version 4.2.1 -  RELEASE  -


 With contributions from (in alphabetic order):
   Daniel Aravena         : Magnetic Suceptibility
   Michael Atanasov       : Ab Initio Ligand Field Theory (pilot matlab implementation)
   Alexander A. Auer      : GIAO ZORA, VPT2
   Ute Becker             : Parallelization
   Giovanni Bistoni       : ED, misc. LED, open-shell LED, HFLD
   Martin Brehm           : Molecular dynamics
   Dmytro Bykov           : SCF Hessian
   Vijay G. Chilkuri      : MRCI spin determinant printing, contributions to CSF-ICE
   Dipayan Datta          : RHF DLPNO-CCSD density
   Achintya Kumar Dutta   : EOM-CC, STEOM-CC
   Dmitry Ganyushin       : Spin-Orbit,Spin-Spin,Magnetic field MRCI
   Miquel Garcia          : C-PCM Hessian, Gaussian charge scheme
   Yang Guo               : DLPNO-NEVPT2, CIM, IAO-localization
   Andreas Hansen         : Spin unrestricted coupled pair/coupled cluster methods
   Benjamin Helmich-Paris : CASSCF linear response (MC-RPA)
   Lee Huntington         : MR-EOM, pCC
   Robert Izsak           : Overlap fitted RIJCOSX, COSX-SCS-MP3, EOM
   Christian Kollmar      : KDIIS, OOCD, Brueckner-CCSD(T), CCSD density
   Simone Kossmann        : Meta GGA functionals, TD-DFT gradient, OOMP2, MP2 Hessian
   Martin Krupicka        : AUTO-CI
   Lucas Lang             : DCDCAS
   Dagmar Lenk            : GEPOL surface, SMD
   Dimitrios Liakos       : Extrapolation schemes; Compound Job, initial MDCI parallelization
   Dimitrios Manganas     : Further ROCIS development; embedding schemes
   Dimitrios Pantazis     : SARC Basis sets
   Taras Petrenko         : DFT Hessian,TD-DFT gradient, ASA, ECA, R-Raman, ABS, FL, XAS/XES, NRVS
   Peter Pinski           : DLPNO-MP2, DLPNO-MP2 Gradient
   Christoph Reimann      : Effective Core Potentials
   Marius Retegan         : Local ZFS, SOC
   Christoph Riplinger    : Optimizer, TS searches, QM/MM, DLPNO-CCSD(T), (RO)-DLPNO pert. Triples
   Tobias Risthaus        : Range-separated hybrids, TD-DFT gradient, RPA, STAB
   Michael Roemelt        : Original ROCIS implementation
   Masaaki Saitow         : Open-shell DLPNO-CCSD energy and density
   Barbara Sandhoefer     : DKH picture change effects
   Avijit Sen             : IP-ROCIS
   Kantharuban Sivalingam : CASSCF convergence, NEVPT2, FIC-MRCI
   Bernardo de Souza      : ESD, SOC TD-DFT
   Georgi Stoychev        : AutoAux, RI-MP2 NMR
   Willem Van den Heuvel  : Paramagnetic NMR
   Boris Wezisla          : Elementary symmetry handling
   Frank Wennmohs         : Technical directorship


 We gratefully acknowledge several colleagues who have allowed us to
 interface, adapt or use parts of their codes:
   Stefan Grimme, W. Hujo, H. Kruse,             : VdW corrections, initial TS optimization,
                  C. Bannwarth                     DFT functionals, gCP, sTDA/sTD-DF
   Ed Valeev, F. Pavosevic, A. Kumar             : LibInt (2-el integral package), F12 methods
   Garnet Chan, S. Sharma, J. Yang, R. Olivares  : DMRG
   Ulf Ekstrom                                   : XCFun DFT Library
   Mihaly Kallay                                 : mrcc  (arbitrary order and MRCC methods)
   Andreas Klamt, Michael Diedenhofen            : otool_cosmo (COSMO solvation model)
   Jiri Pittner, Ondrej Demel                    : Mk-CCSD
   Frank Weinhold                                : gennbo (NPA and NBO analysis)
   Christopher J. Cramer and Donald G. Truhlar   : smd solvation model
   Lars Goerigk                                  : TD-DFT with DH, B97 family of functionals
   V. Asgeirsson, H. Jonsson                     : NEB implementation
   FAccTs GmbH                                   : IRC, NEB, NEB-TS, Multilevel, MM, QM/MM, CI optimization
   S Lehtola, MJT Oliveira, MAL Marques          : LibXC Library


 Your calculation uses the libint2 library for the computation of 2-el integrals
 For citations please refer to: http://libint.valeyev.net

 Your ORCA version has been built with support for libXC version: 4.2.3
 For citations please refer to: https://tddft.org/programs/libxc/

 This ORCA versions uses:
   CBLAS   interface :  Fast vector & matrix operations
   LAPACKE interface :  Fast linear algebra routines
   SCALAPACK package :  Parallel linear algebra routines




***************************************
The coordinates will be read from file: init.xyz
***************************************


Your calculation utilizes the geometrical counterpoise correction gCP
Please cite in your paper:
H.Kruse, S. Grimme J.Chem.Phys., 136, (2012), 154101 
   

Your calculation utilizes the atom-pairwise dispersion correction
based on tight binding partial charges (D4)
Cite in your paper:
E.Caldeweyher, C.Bannwarth, S.Grimme, J.Chem.Phys., (2017), 147, 034112.
E.Caldeweyher, S.Ehlert, A.Hansen, H.Neugebauer, S.Grimme, J.Chem.Phys., (2018), in progress.
   

----- Orbital basis set information -----
Your calculation utilizes the basis: def2-SVP
   F. Weigend and R. Ahlrichs, Phys. Chem. Chem. Phys. 7, 3297 (2005).

----- AuxJ basis set information -----
Your calculation utilizes the auxiliary basis: def2/J
   F. Weigend, Phys. Chem. Chem. Phys. 8, 1057 (2006).

================================================================================
                                        WARNINGS
                       Please study these warnings very carefully!
================================================================================


WARNING: Geometry Optimization
  ===> : Switching off AutoStart
         For restart on a previous wavefunction, please use MOREAD

INFO   : the flag for use of LIBINT has been found!

================================================================================
                                       INPUT FILE
================================================================================
NAME = opt.inp
|  1> ! revPBE D4 gCP(DFT/TZ) def2-SVP Opt Freq TightOpt TightSCF Grid4 FinalGrid5 LargePrint
|  2> 
|  3> %pal
|  4>  nprocs 8
|  5> end
|  6> 
|  7> *xyzfile 0 1 init.xyz
|  8> 
|  9>                          ****END OF INPUT****
================================================================================

                       *****************************
                       * Geometry Optimization Run *
                       *****************************

Geometry optimization settings:
Update method            Update   .... BFGS
Choice of coordinates    CoordSys .... Z-matrix Internals
Initial Hessian          InHess   .... Almoef's Model

Convergence Tolerances:
Energy Change            TolE     ....  1.0000e-06 Eh
Max. Gradient            TolMAXG  ....  1.0000e-04 Eh/bohr
RMS Gradient             TolRMSG  ....  3.0000e-05 Eh/bohr
Max. Displacement        TolMAXD  ....  1.0000e-03 bohr
RMS Displacement         TolRMSD  ....  6.0000e-04 bohr
Strict Convergence                ....  False
------------------------------------------------------------------------------
                        ORCA OPTIMIZATION COORDINATE SETUP
------------------------------------------------------------------------------

The optimization will be done in new redundant internal coordinates
Making redundant internal coordinates   ...  (new redundants) done
Evaluating the initial hessian          ...  (Almloef) done
Evaluating the coordinates              ...  done
Calculating the B-matrix                .... done
Calculating the G-matrix                .... done
Diagonalizing the G-matrix              .... done
The first mode is                       ....   21
The number of degrees of freedom        ....   30

    -----------------------------------------------------------------
                    Redundant Internal Coordinates


    -----------------------------------------------------------------
         Definition                    Initial Value    Approx d2E/dq
    -----------------------------------------------------------------
      1. B(O   1,C   0)                  1.4032         0.533060   
      2. B(H   2,C   0)                  1.1151         0.328355   
      3. B(C   3,C   0)                  1.5300         0.373583   
      4. B(C   4,C   0)                  1.5277         0.376780   
      5. B(H   5,O   1)                  0.9930         0.460634   
      6. B(H   6,C   4)                  1.1108         0.333657   
      7. B(H   7,C   4)                  1.1112         0.333063   
      8. B(H   8,C   3)                  1.1109         0.333443   
      9. B(H   9,C   3)                  1.1106         0.333873   
     10. B(H  10,C   3)                  1.1112         0.333172   
     11. B(H  11,C   4)                  1.1111         0.333298   
     12. A(O   1,C   0,C   4)          108.9770         0.384464   
     13. A(O   1,C   0,H   2)          110.0487         0.336710   
     14. A(C   3,C   0,C   4)          110.7861         0.363884   
     15. A(H   2,C   0,C   3)          109.4948         0.319456   
     16. A(O   1,C   0,C   3)          109.8979         0.383895   
     17. A(H   2,C   0,C   4)          107.6040         0.319901   
     18. A(C   0,O   1,H   5)          106.8128         0.353318   
     19. A(C   0,C   3,H  10)          110.4880         0.320216   
     20. A(H   8,C   3,H   9)          108.4173         0.283990   
     21. A(C   0,C   3,H   9)          109.8499         0.320327   
     22. A(C   0,C   3,H   8)          110.2775         0.320259   
     23. A(H   9,C   3,H  10)          108.7226         0.283954   
     24. A(H   8,C   3,H  10)          109.0386         0.283897   
     25. A(H   6,C   4,H   7)          108.6948         0.283911   
     26. A(H   6,C   4,H  11)          108.4676         0.283942   
     27. A(C   0,C   4,H   7)          110.5116         0.320646   
     28. A(C   0,C   4,H  11)          110.3181         0.320683   
     29. A(H   7,C   4,H  11)          108.9955         0.283864   
     30. A(C   0,C   4,H   6)          109.8059         0.320739   
     31. D(H   5,O   1,C   0,C   3)    -79.1157         0.022577   
     32. D(H   5,O   1,C   0,C   4)    159.3122         0.022577   
     33. D(H   5,O   1,C   0,H   2)     41.5409         0.022577   
     34. D(H  10,C   3,C   0,C   4)     60.9414         0.011144   
     35. D(H   8,C   3,C   0,C   4)    -59.6751         0.011144   
     36. D(H   9,C   3,C   0,O   1)     60.4037         0.011144   
     37. D(H   9,C   3,C   0,C   4)   -179.1119         0.011144   
     38. D(H   8,C   3,C   0,H   2)     58.8501         0.011144   
     39. D(H   9,C   3,C   0,H   2)    -60.5867         0.011144   
     40. D(H  10,C   3,C   0,H   2)    179.4666         0.011144   
     41. D(H  10,C   3,C   0,O   1)    -59.5431         0.011144   
     42. D(H   8,C   3,C   0,O   1)    179.8405         0.011144   
     43. D(H   6,C   4,C   0,C   3)    179.4358         0.011325   
     44. D(H   6,C   4,C   0,H   2)     59.7704         0.011325   
     45. D(H   6,C   4,C   0,O   1)    -59.5337         0.011325   
     46. D(H  11,C   4,C   0,C   3)     59.9392         0.011325   
     47. D(H  11,C   4,C   0,H   2)    -59.7262         0.011325   
     48. D(H  11,C   4,C   0,O   1)   -179.0303         0.011325   
     49. D(H   7,C   4,C   0,C   3)    -60.6652         0.011325   
     50. D(H   7,C   4,C   0,H   2)    179.6694         0.011325   
     51. D(H   7,C   4,C   0,O   1)     60.3653         0.011325   
    -----------------------------------------------------------------

Number of atoms                         .... 12
Number of degrees of freedom            .... 51

         *************************************************************
         *                GEOMETRY OPTIMIZATION CYCLE   1            *
         *************************************************************
---------------------------------
CARTESIAN COORDINATES (ANGSTROEM)
---------------------------------
  C     -7.904870    2.495420   -0.107370
  O     -6.723660    3.052490   -0.620650
  H     -8.780480    2.835280   -0.708450
  C     -8.090440    2.920590    1.350600
  C     -7.827710    0.974070   -0.222820
  H     -6.926800    3.997600   -0.847590
  H     -7.703380    0.683250   -1.287600
  H     -6.963810    0.582930    0.356450
  H     -9.025770    2.485140    1.762570
  H     -8.160590    4.027100    1.414730
  H     -7.230470    2.581400    1.967100
  H     -8.761020    0.510130    0.162060

----------------------------
CARTESIAN COORDINATES (A.U.)
----------------------------
  NO LB      ZA    FRAG     MASS         X           Y           Z
   0 C     6.0000    0    12.011  -14.938039    4.715660   -0.202900
   1 O     8.0000    0    15.999  -12.705876    5.768370   -1.172859
   2 H     1.0000    0     1.008  -16.592703    5.357903   -1.338776
   3 C     6.0000    0    12.011  -15.288716    5.519115    2.552264
   4 C     6.0000    0    12.011  -14.792228    1.840726   -0.421069
   5 H     1.0000    0     1.008  -13.089755    7.554369   -1.601713
   6 H     1.0000    0     1.008  -14.557279    1.291155   -2.433211
   7 H     1.0000    0     1.008  -13.159694    1.101578    0.673593
   8 H     1.0000    0     1.008  -17.056233    4.696234    3.330775
   9 H     1.0000    0     1.008  -15.421280    7.610116    2.673452
  10 H     1.0000    0     1.008  -13.663608    4.878139    3.717280
  11 H     1.0000    0     1.008  -16.555928    0.964006    0.306249

--------------------------------
INTERNAL COORDINATES (ANGSTROEM)
--------------------------------
 C      0   0   0     0.000000000000     0.00000000     0.00000000
 O      1   0   0     1.403225002414     0.00000000     0.00000000
 H      1   2   0     1.115121006035   110.04870567     0.00000000
 C      1   2   3     1.529994207407   109.89786513   239.34336869
 C      1   2   3     1.527674111386   108.97702690   117.77125610
 H      2   1   3     0.992975596528   106.81277834    41.54090265
 H      5   1   2     1.110761301856   109.80585411   300.46627013
 H      5   1   2     1.111245896505   110.51164005    60.36529423
 H      4   1   2     1.110935728249   110.27748565   179.84045423
 H      4   1   2     1.110584557564   109.84992403    60.40365196
 H      4   1   2     1.111157282746   110.48796227   300.45692758
 H      5   1   2     1.111053776421   110.31810128   180.96974567

---------------------------
INTERNAL COORDINATES (A.U.)
---------------------------
 C      0   0   0     0.000000000000     0.00000000     0.00000000
 O      1   0   0     2.651710958834     0.00000000     0.00000000
 H      1   2   0     2.107273307588   110.04870567     0.00000000
 C      1   2   3     2.891270038486   109.89786513   239.34336869
 C      1   2   3     2.886885692402   108.97702690   117.77125610
 H      2   1   3     1.876451935105   106.81277834    41.54090265
 H      5   1   2     2.099034660665   109.80585411   300.46627013
 H      5   1   2     2.099950411839   110.51164005    60.36529423
 H      4   1   2     2.099364278779   110.27748565   179.84045423
 H      4   1   2     2.098700662358   109.84992403    60.40365196
 H      4   1   2     2.099782956102   110.48796227   300.45692758
 H      5   1   2     2.099587357495   110.31810128   180.96974567

---------------------
BASIS SET INFORMATION
---------------------
There are 3 groups of distinct atoms

 Group   1 Type C   : 7s4p1d contracted to 3s2p1d pattern {511/31/1}
 Group   2 Type O   : 7s4p1d contracted to 3s2p1d pattern {511/31/1}
 Group   3 Type H   : 4s1p contracted to 2s1p pattern {31/1}

Atom   0C    basis set group =>   1
Atom   1O    basis set group =>   2
Atom   2H    basis set group =>   3
Atom   3C    basis set group =>   1
Atom   4C    basis set group =>   1
Atom   5H    basis set group =>   3
Atom   6H    basis set group =>   3
Atom   7H    basis set group =>   3
Atom   8H    basis set group =>   3
Atom   9H    basis set group =>   3
Atom  10H    basis set group =>   3
Atom  11H    basis set group =>   3

-------------------------
BASIS SET IN INPUT FORMAT
-------------------------

 # Basis set for element : H 
 NewGTO H 
 S 3 
   1      13.0107010000      0.0334854848
   2       1.9622572000      0.2347218709
   3       0.4445379600      0.8137702853
 S 1 
   1       0.1219496200      1.0000000000
 P 1 
   1       0.8000000000      1.0000000000
  end;

 # Basis set for element : C 
 NewGTO C 
 S 5 
   1    1238.4016938000      0.0055173650
   2     186.2900499200      0.0410888285
   3      42.2511763460      0.1822538213
   4      11.6765579320      0.4682845944
   5       3.5930506482      0.4457581734
 S 1 
   1       0.4024514736      1.0000000000
 S 1 
   1       0.1309018267      1.0000000000
 P 3 
   1       9.4680970621      0.0568883320
   2       2.0103545142      0.3129405934
   3       0.5477100471      0.7606501651
 P 1 
   1       0.1526861379      1.0000000000
 D 1 
   1       0.8000000000      1.0000000000
  end;

 # Basis set for element : O 
 NewGTO O 
 S 5 
   1    2266.1767785000     -0.0053893504
   2     340.8701019100     -0.0402347214
   3      77.3631351670     -0.1800818421
   4      21.4796449400     -0.4682885766
   5       6.6589433124     -0.4469261716
 S 1 
   1       0.8097597567      1.0000000000
 S 1 
   1       0.2553077223      1.0000000000
 P 3 
   1      17.7215043170      0.0626302488
   2       3.8635505440      0.3333113849
   3       1.0480920883      0.7414863830
 P 1 
   1       0.2764154441      1.0000000000
 D 1 
   1       1.2000000000      1.0000000000
  end;

---------------------------------
AUXILIARY/J BASIS SET INFORMATION
---------------------------------
There are 3 groups of distinct atoms

 Group   1 Type C   : 12s5p4d2f1g contracted to 6s4p3d1f1g pattern {711111/2111/211/2/1}
 Group   2 Type O   : 12s5p4d2f1g contracted to 6s4p3d1f1g pattern {711111/2111/211/2/1}
 Group   3 Type H   : 5s2p1d contracted to 3s1p1d pattern {311/2/1}

Atom   0C    basis set group =>   1
Atom   1O    basis set group =>   2
Atom   2H    basis set group =>   3
Atom   3C    basis set group =>   1
Atom   4C    basis set group =>   1
Atom   5H    basis set group =>   3
Atom   6H    basis set group =>   3
Atom   7H    basis set group =>   3
Atom   8H    basis set group =>   3
Atom   9H    basis set group =>   3
Atom  10H    basis set group =>   3
Atom  11H    basis set group =>   3

-------------------------------------
AUXILIARY/J BASIS SET IN INPUT FORMAT
-------------------------------------

 # Auxiliary/J basis set for element : H 
 NewAuxJGTO H 
 S 3 
   1      15.6752927000      0.1007184237
   2       3.6063578000      0.3404257499
   3       1.2080016000      0.6491996172
 S 1 
   1       0.4726794000      1.0000000000
 S 1 
   1       0.2018100000      1.0000000000
 P 2 
   1       2.0281365000      0.5596620919
   2       0.5358730000      0.5596620919
 D 1 
   1       2.2165124000      1.0000000000
  end;

 # Auxiliary/J basis set for element : C 
 NewAuxJGTO C 
 S 7 
   1    1861.0916331000      0.0134602335
   2     642.9939764000      0.0299160374
   3     235.1105725000      0.1008649584
   4      90.7028894000      0.2370970548
   5      36.7794552000      0.3924037254
   6      15.6046273000      0.3195862154
   7       6.8907294000      0.0530104441
 S 1 
   1       3.1478850000     -1.0000000000
 S 1 
   1       1.4777287000      1.0000000000
 S 1 
   1       0.7076466000      1.0000000000
 S 1 
   1       0.3430122000      1.0000000000
 S 1 
   1       0.1669453000      1.0000000000
 P 2 
   1      13.5472892000     -0.6769313712
   2       5.4669419000     -0.3779500978
 P 1 
   1       2.1751721000      1.0000000000
 P 1 
   1       0.8582194000      1.0000000000
 P 1 
   1       0.3376720000      1.0000000000
 D 2 
   1       5.9287253000     -0.3533329857
   2       1.9809209000     -0.7456525731
 D 1 
   1       0.8055417000     -1.0000000000
 D 1 
   1       0.3531244000     -1.0000000000
 F 2 
   1       1.6755626000      0.6311076882
   2       0.5997536000      0.4968166032
 G 1 
   1       1.0024600000     -1.0000000000
  end;

 # Auxiliary/J basis set for element : O 
 NewAuxJGTO O 
 S 7 
   1    2876.8216605000      0.0168151159
   2    1004.7443032000      0.0340137548
   3     369.7579954000      0.1194951309
   4     142.9442404000      0.2664627624
   5      57.8366425000      0.4202764046
   6      24.3864983000      0.2765077335
   7      10.6622662000      0.0057008815
 S 1 
   1       4.8070437000     -1.0000000000
 S 1 
   1       2.2210770000      1.0000000000
 S 1 
   1       1.0447795000      1.0000000000
 S 1 
   1       0.4968425000      1.0000000000
 S 1 
   1       0.2371384000      1.0000000000
 P 2 
   1      64.2613382000     -0.2731534179
   2      16.3006076000     -0.8168011598
 P 1 
   1       4.3550542000      1.0000000000
 P 1 
   1       1.2019554000      1.0000000000
 P 1 
   1       0.3354196000      1.0000000000
 D 2 
   1       9.2146611000     -0.4661230638
   2       2.8435251000     -0.6600908911
 D 1 
   1       0.9955759000     -1.0000000000
 D 1 
   1       0.3649441000     -1.0000000000
 F 2 
   1       2.6420115000      0.5931563945
   2       0.7345613000      0.5931563945
 G 1 
   1       1.3931000000     -1.0000000000
  end;



           ************************************************************
           *        Program running with 8 parallel MPI-processes     *
           *              working on a common directory               *
           ************************************************************
------------------------------------------------------------------------------
                           ORCA GTO INTEGRAL CALCULATION
                           -- RI-GTO INTEGRALS CHOSEN --
------------------------------------------------------------------------------

                         BASIS SET STATISTICS AND STARTUP INFO

Gaussian basis set:
 # of primitive gaussian shells          ...   88
 # of primitive gaussian functions       ...  152
 # of contracted shells                  ...   48
 # of contracted basis functions         ...   96
 Highest angular momentum                ...    2
 Maximum contraction depth               ...    5
Auxiliary gaussian basis set:
 # of primitive gaussian shells          ...  160
 # of primitive gaussian functions       ...  408
 # of contracted shells                  ...  100
 # of contracted aux-basis functions     ...  284
 Highest angular momentum                ...    4
 Maximum contraction depth               ...    7
Ratio of auxiliary to basis functions    ...  2.96
Integral package used                  ... LIBINT
 One Electron integrals                  ... done
 Ordering auxiliary basis shells         ... done
 Integral threshhold             Thresh  ...  2.500e-11
 Primitive cut-off               TCut    ...  2.500e-12
 Pre-screening matrix                    ... done
 Shell pair data                         ... 
 Ordering of the shell pairs             ... done (   0.000 sec) 1171 of 1176 pairs
 Determination of significant pairs      ... done (   0.000 sec)
 Creation of shell pair data             ... done (   0.000 sec)
 Storage of shell pair data              ... done (   0.001 sec)
 Shell pair data done in (   0.002 sec)
 Computing two index integrals           ... done
 Cholesky decomposition of the V-matrix  ... done


Timings:
 Total evaluation time                   ...   0.143 sec (  0.002 min)
 One electron matrix time                ...   0.010 sec (  0.000 min) =  6.8%
 Schwartz matrix evaluation time         ...   0.106 sec (  0.002 min) = 74.1%
 Two index repulsion integral time       ...   0.003 sec (  0.000 min) =  1.8%
 Cholesky decomposition of V             ...   0.003 sec (  0.000 min) =  2.4%
 Three index repulsion integral time     ...   0.000 sec (  0.000 min) =  0.0%



           ************************************************************
           *        Program running with 8 parallel MPI-processes     *
           *              working on a common directory               *
           ************************************************************
-------------------------------------------------------------------------------
                                 ORCA SCF
-------------------------------------------------------------------------------

------------
SCF SETTINGS
------------
Hamiltonian:
 Density Functional     Method          .... DFT(GTOs)
 Exchange Functional    Exchange        .... PBE
   PBE kappa parameter   XKappa         ....  1.245000
   PBE mue parameter    XMuePBE         ....  0.219520
 Correlation Functional Correlation     .... PBE
   PBE beta parameter  CBetaPBE         ....  0.066725
 LDA part of GGA corr.  LDAOpt          .... PW91-LDA
 Gradients option       PostSCFGGA      .... off
   Density functional embedding theory  .... OFF
   NL short-range parameter             ....  3.700000
 RI-approximation to the Coulomb term is turned on
   Number of auxiliary basis functions  .... 284


General Settings:
 Integral files         IntName         .... opt
 Hartree-Fock type      HFTyp           .... RHF
 Total Charge           Charge          ....    0
 Multiplicity           Mult            ....    1
 Number of Electrons    NEL             ....   34
 Basis Dimension        Dim             ....   96
 Nuclear Repulsion      ENuc            ....    134.4330606422 Eh

Convergence Acceleration:
 DIIS                   CNVDIIS         .... on
   Start iteration      DIISMaxIt       ....    12
   Startup error        DIISStart       ....  0.200000
   # of expansion vecs  DIISMaxEq       ....     5
   Bias factor          DIISBfac        ....   1.050
   Max. coefficient     DIISMaxC        ....  10.000
 Newton-Raphson         CNVNR           .... off
 SOSCF                  CNVSOSCF        .... on
   Start iteration      SOSCFMaxIt      ....   150
   Startup grad/error   SOSCFStart      ....  0.003300
 Level Shifting         CNVShift        .... on
   Level shift para.    LevelShift      ....    0.2500
   Turn off err/grad.   ShiftErr        ....    0.0010
 Zerner damping         CNVZerner       .... off
 Static damping         CNVDamp         .... on
   Fraction old density DampFac         ....    0.7000
   Max. Damping (<1)    DampMax         ....    0.9800
   Min. Damping (>=0)   DampMin         ....    0.0000
   Turn off err/grad.   DampErr         ....    0.1000
 Fernandez-Rico         CNVRico         .... off

SCF Procedure:
 Maximum # iterations   MaxIter         ....   125
 SCF integral mode      SCFMode         .... Direct
   Integral package                     .... LIBINT
 Reset frequency        DirectResetFreq ....    20
 Integral Threshold     Thresh          ....  2.500e-11 Eh
 Primitive CutOff       TCut            ....  2.500e-12 Eh

Convergence Tolerance:
 Convergence Check Mode ConvCheckMode   .... Total+1el-Energy
 Convergence forced     ConvForced      .... 0
 Energy Change          TolE            ....  1.000e-08 Eh
 1-El. energy change                    ....  1.000e-05 Eh
 Orbital Gradient       TolG            ....  1.000e-05
 Orbital Rotation angle TolX            ....  1.000e-05
 DIIS Error             TolErr          ....  5.000e-07


Diagonalization of the overlap matrix:
Smallest eigenvalue                        ... 2.438e-03
Time for diagonalization                   ...    0.002 sec
Threshold for overlap eigenvalues          ... 1.000e-08
Number of eigenvalues below threshold      ... 0
Time for construction of square roots      ...    0.002 sec
Total time needed                          ...    0.004 sec

-------------------
DFT GRID GENERATION
-------------------

General Integration Accuracy     IntAcc      ...  4.670
Radial Grid Type                 RadialGrid  ... Gauss-Chebyshev
Angular Grid (max. acc.)         AngularGrid ... Lebedev-302
Angular grid pruning method      GridPruning ... 3 (G Style)
Weight generation scheme         WeightScheme... Becke
Basis function cutoff            BFCut       ...    1.0000e-11
Integration weight cutoff        WCut        ...    1.0000e-14
Grids for H and He will be reduced by one unit

# of grid points (after initial pruning)     ...  52000 (   0.0 sec)
# of grid points (after weights+screening)   ...  48371 (   0.0 sec)
nearest neighbour list constructed           ...    0.0 sec
Grid point re-assignment to atoms done       ...    0.0 sec
Grid point division into batches done        ...    0.2 sec
Reduced shell lists constructed in    0.2 sec

Total number of grid points                  ...    48371
Total number of batches                      ...      761
Average number of points per batch           ...       63
Average number of grid points per atom       ...     4031
Average number of shells per batch           ...    42.23 (87.97%)
Average number of basis functions per batch  ...    84.87 (88.40%)
Average number of large shells per batch     ...    37.65 (89.16%)
Average number of large basis fcns per batch ...    75.03 (88.41%)
Maximum spatial batch extension              ...  12.78, 10.98, 14.01 au
Average spatial batch extension              ...   0.21,  0.20,  0.22 au

Time for grid setup =    0.253 sec

------------------------------
INITIAL GUESS: MODEL POTENTIAL
------------------------------
Loading Hartree-Fock densities                     ... done
Calculating cut-offs                               ... done
Setting up the integral package                    ... done
Initializing the effective Hamiltonian             ... done
Starting the Coulomb interaction                   ... done (   0.0 sec)
Reading the grid                                   ... done
Mapping shells                                     ... done
Starting the XC term evaluation                    ... done (   0.1 sec)
  promolecular density results
     # of electrons  =     33.996182759
     EX              =    -26.003065258
     EC              =     -1.098122082
     EX+EC           =    -27.101187340
Transforming the Hamiltonian                       ... done (   0.0 sec)
Diagonalizing the Hamiltonian                      ... done (   0.0 sec)
Back transforming the eigenvectors                 ... done (   0.0 sec)
Now organizing SCF variables                       ... done
                      ------------------
                      INITIAL GUESS DONE (   0.4 sec)
                      ------------------
----------------------
INITIAL GUESS ORBITALS
----------------------
                      0         1         2         3         4         5   
                 -18.95754 -10.08060 -10.08045 -10.06565  -1.05272  -0.82239
                   2.00000   2.00000   2.00000   2.00000   2.00000   2.00000
                  --------  --------  --------  --------  --------  --------
  0C   1s         0.000188  0.000698 -0.001233  0.987869  0.102716 -0.152525
  0C   2s        -0.001915  0.000917 -0.001211  0.051526 -0.206199  0.311264
  0C   3s         0.024118 -0.003507  0.004333 -0.053205 -0.002816  0.118159
  0C   1pz       -0.000488 -0.000331 -0.001265 -0.000486  0.038087  0.070440
  0C   1px        0.000213  0.000116  0.000108 -0.000853 -0.094215 -0.045895
  0C   1py        0.000562 -0.001426 -0.000503  0.000361 -0.047511 -0.074342
  0C   2pz       -0.001114  0.002204  0.001503 -0.007450  0.011296  0.040339
  0C   2px        0.007602  0.000998 -0.001695  0.001790 -0.011795 -0.005809
  0C   2py        0.000045  0.001905  0.002145  0.004361 -0.007189 -0.031337
  0C   1dz2       0.000163 -0.000804 -0.001214 -0.000220  0.005426  0.003193
  0C   1dxz       0.000271 -0.000066  0.000392  0.000557  0.010592 -0.000172
  0C   1dyz       0.000088  0.000225 -0.000709 -0.000582  0.005165  0.005605
  0C   1dx2y2    -0.000364 -0.001258  0.000192  0.000600 -0.005273 -0.006137
  0C   1dxy      -0.000250 -0.000082  0.000007 -0.000052 -0.012688 -0.003595
  1O   1s        -0.988619  0.000069 -0.000085 -0.000188 -0.273727 -0.085433
  1O   2s         0.042350  0.000647 -0.000952 -0.000282 -0.565531 -0.186160
  1O   3s        -0.028936 -0.001423  0.002499  0.000437 -0.283714 -0.103720
  1O   1pz        0.000267  0.000038 -0.000252 -0.000366 -0.019734  0.041579
  1O   1px       -0.001653 -0.000011  0.000075  0.000556  0.096884 -0.030789
  1O   1py        0.000778 -0.000245  0.000017  0.000421 -0.030597 -0.084414
  1O   2pz       -0.002903 -0.000406  0.001520  0.000045 -0.010925  0.013470
  1O   2px        0.005855  0.000152 -0.000672  0.003322  0.025153 -0.022898
  1O   2py        0.003392  0.002054  0.000109 -0.000867  0.012052 -0.021170
  1O   1dz2      -0.000324  0.000065  0.000147  0.000750  0.004130  0.000276
  1O   1dxz       0.000179  0.000021 -0.000140  0.000805  0.003770 -0.002421
  1O   1dyz      -0.000283  0.000002  0.000011  0.000409  0.002697 -0.000061
  1O   1dx2y2    -0.000807  0.000097 -0.000059 -0.000636 -0.001686  0.002513
  1O   1dxy      -0.000375 -0.000102 -0.000034 -0.000635 -0.001762  0.003043
  2H   1s        -0.000962  0.000143 -0.000176 -0.003166 -0.030117  0.078987
  2H   2s        -0.002205 -0.000062  0.000061  0.008348 -0.003739  0.004945
  2H   1pz        0.000180  0.000062  0.000505 -0.001255 -0.003169  0.006588
  2H   1px       -0.000548 -0.000002 -0.000094 -0.002436 -0.005261  0.007729
  2H   1py       -0.000090  0.000612  0.000092  0.000750  0.001464 -0.004633
  3C   1s         0.000084  0.053772  0.986212  0.001948  0.022704 -0.147249
  3C   2s        -0.000723  0.004277  0.052531 -0.002371 -0.040684  0.306077
  3C   3s        -0.004285 -0.008862 -0.043788  0.018676 -0.025886  0.030179
  3C   1pz        0.000495  0.000079  0.001009  0.001590  0.021923 -0.053592
  3C   1px       -0.000158  0.000030 -0.000101 -0.000263 -0.008636  0.001332
  3C   1py        0.000079 -0.000184  0.000205  0.000343  0.002453 -0.029793
  3C   2pz        0.001524  0.001092  0.001711 -0.006768  0.013768 -0.002117
  3C   2px       -0.001031 -0.001073 -0.000399  0.001647 -0.006869 -0.009419
  3C   2py        0.001340  0.004031  0.001647 -0.001747  0.001781 -0.007948
  3C   1dz2      -0.000174  0.000016 -0.000754 -0.001290 -0.003067  0.004956
  3C   1dxz       0.000218  0.000042  0.000117  0.000253  0.001465 -0.000082
  3C   1dyz      -0.000070 -0.000203 -0.000358 -0.000522 -0.001118  0.004372
  3C   1dx2y2    -0.000033  0.000139  0.000017 -0.000007 -0.000036 -0.001165
  3C   1dxy       0.000128  0.000064  0.000038  0.000066  0.000235 -0.000399
  4C   1s         0.000085 -0.986200  0.053879  0.001486  0.022182 -0.155035
  4C   2s        -0.000627 -0.052728  0.001469 -0.001878 -0.044572  0.319774
  4C   3s        -0.006907  0.044031  0.004001  0.014946 -0.007442  0.044436
  4C   1pz        0.000012 -0.000033 -0.000199 -0.000022  0.001093  0.015687
  4C   1px       -0.000095 -0.000075  0.000001  0.000033 -0.005660 -0.010279
  4C   1py       -0.000596  0.000985 -0.000074 -0.001666 -0.023260  0.060719
  4C   2pz       -0.000677  0.001603  0.003514  0.000957 -0.001811  0.003814
  4C   2px       -0.000247 -0.000000  0.000187  0.000180  0.003029 -0.006498
  4C   2py       -0.002665  0.002117  0.001788  0.005739 -0.005204  0.008869
  4C   1dz2       0.000116 -0.000421  0.000099  0.000765  0.001753 -0.002888
  4C   1dxz      -0.000080  0.000012 -0.000012 -0.000024  0.000194 -0.000048
  4C   1dyz      -0.000017  0.000089  0.000205  0.000008  0.000004  0.002144
  4C   1dx2y2     0.000258 -0.000703 -0.000038  0.001264  0.002619 -0.005769
  4C   1dxy      -0.000143 -0.000118  0.000001  0.000154 -0.000834 -0.002143
  5H   1s        -0.001236 -0.000712 -0.000503  0.001597 -0.148723 -0.091031
  5H   2s         0.001043  0.000075 -0.000036  0.001450  0.003972 -0.000349
  5H   1pz       -0.000460 -0.000063 -0.000112  0.000352 -0.007397 -0.002485
  5H   1px       -0.000978 -0.000203  0.000087 -0.000766 -0.002367 -0.004127
  5H   1py        0.002538  0.000071  0.000081 -0.000568  0.026691  0.013316
  6H   1s        -0.000162  0.003413  0.000102 -0.000285 -0.008983  0.077843
  6H   2s        -0.000207 -0.007272  0.001361 -0.000432 -0.002868  0.012140
  6H   1pz       -0.000023  0.002787 -0.000131 -0.000012 -0.001553  0.011040
  6H   1px       -0.000038 -0.000363 -0.000034 -0.000013 -0.000322 -0.001281
  6H   1py       -0.000300  0.000477 -0.000095  0.000168 -0.001411  0.003888
  7H   1s        -0.000047  0.002781 -0.000856 -0.000199 -0.009381  0.082660
  7H   2s         0.000133 -0.008624 -0.001125 -0.000089 -0.001793  0.008003
  7H   1pz        0.000054 -0.001567 -0.000076 -0.000041  0.001071 -0.005794
  7H   1px       -0.000080 -0.002139  0.000212 -0.000047  0.000820 -0.008946
  7H   1py       -0.000373  0.000573 -0.000039  0.000526 -0.001603  0.004437
  8H   1s         0.000082  0.000346 -0.003019 -0.000034 -0.005903  0.081591
  8H   2s         0.000866  0.001662  0.008092  0.000053 -0.002753  0.002921
  8H   1pz       -0.000186  0.000064  0.000808 -0.000467  0.000623 -0.005012
  8H   1px        0.000169 -0.000025 -0.002335  0.000111 -0.001374  0.009521
  8H   1py       -0.000086 -0.000315 -0.001291 -0.000063 -0.000665  0.003869
  9H   1s        -0.000197 -0.000486 -0.003398 -0.000488 -0.008022  0.073614
  9H   2s        -0.000870 -0.000578  0.007400 -0.001199 -0.000441  0.013176
  9H   1pz        0.000261 -0.000080 -0.000091 -0.000132  0.000738 -0.001454
  9H   1px       -0.000064  0.000060 -0.000117 -0.000044 -0.000268  0.001024
  9H   1py        0.000118  0.000166  0.002845  0.000008  0.001744 -0.010994
 10H   1s        -0.000048  0.000563 -0.002869 -0.000399 -0.007634  0.079727
 10H   2s         0.000147  0.002133  0.008480 -0.000327  0.002109  0.009516
 10H   1pz        0.000369  0.000080  0.001181 -0.000442  0.001164 -0.006776
 10H   1px       -0.000135  0.000042  0.002209 -0.000018  0.001103 -0.008215
 10H   1py        0.000003 -0.000233 -0.001032 -0.000113 -0.000314  0.003193
 11H   1s         0.000212  0.002989 -0.000678  0.000045 -0.005017  0.085546
 11H   2s         0.001153 -0.008156 -0.000798  0.000027  0.000860  0.005451
 11H   1pz        0.000022 -0.001136 -0.000182 -0.000038  0.000343 -0.003865
 11H   1px        0.000107  0.002392 -0.000189 -0.000010 -0.000869  0.010010
 11H   1py        0.000258  0.000893 -0.000108  0.000534 -0.000873  0.005735
                      6         7         8         9        10        11   
                  -0.74744  -0.64194  -0.58321  -0.52422  -0.51184  -0.46892
                   2.00000   2.00000   2.00000   2.00000   2.00000   2.00000
                  --------  --------  --------  --------  --------  --------
  0C   1s         0.000140  0.162572  0.049949  0.028635  0.009870  0.019551
  0C   2s        -0.002044 -0.373055 -0.117192 -0.066808 -0.023278 -0.046688
  0C   3s         0.008729 -0.007643  0.022865 -0.049245 -0.003344 -0.018128
  0C   1pz        0.111109  0.080946  0.028168 -0.265842 -0.130378  0.064557
  0C   1px       -0.024453 -0.015524  0.308889  0.016113 -0.073899  0.001956
  0C   1py        0.126528 -0.047509 -0.040472  0.125720 -0.251196  0.085360
  0C   2pz        0.053752  0.020787  0.034997 -0.117373 -0.059270  0.045708
  0C   2px       -0.008286 -0.004830  0.121510 -0.004085 -0.037091 -0.040271
  0C   2py        0.066294 -0.021949 -0.043488  0.065298 -0.135186  0.020450
  0C   1dz2       0.010756  0.002780 -0.003711 -0.002501  0.003461 -0.005816
  0C   1dxz      -0.000500  0.003316 -0.006562 -0.005781 -0.005616 -0.013985
  0C   1dyz       0.002768  0.000817  0.002987  0.007300 -0.001138  0.001653
  0C   1dx2y2     0.005288 -0.010477  0.013254  0.004387  0.003736  0.010639
  0C   1dxy       0.000813 -0.001394 -0.000205  0.000223 -0.007955 -0.004126
  1O   1s        -0.006485  0.051907  0.030853 -0.015702  0.050250  0.044064
  1O   2s        -0.014856  0.114714  0.071569 -0.033393  0.106719  0.094517
  1O   3s        -0.008976  0.062915  0.054642 -0.036166  0.136061  0.141562
  1O   1pz        0.023691 -0.096151  0.161691 -0.057396 -0.196179  0.067941
  1O   1px       -0.001269  0.178830 -0.014630 -0.177201  0.183693  0.095845
  1O   1py        0.044925  0.220473 -0.344517 -0.104761 -0.155118 -0.192540
  1O   2pz        0.010204 -0.038735  0.072404 -0.032006 -0.108414  0.034804
  1O   2px       -0.000704  0.095638  0.000395 -0.093155  0.092582  0.049680
  1O   2py        0.022103  0.081840 -0.141408 -0.051611 -0.082718 -0.103229
  1O   1dz2       0.001727  0.001888  0.003706 -0.003848 -0.000871  0.002386
  1O   1dxz      -0.001916  0.003546 -0.004762  0.002502  0.007584 -0.002062
  1O   1dyz       0.000620 -0.000253 -0.001099  0.002034 -0.002364  0.000300
  1O   1dx2y2     0.000924 -0.009353  0.000953  0.006994 -0.004452  0.001266
  1O   1dxy      -0.002756 -0.005176  0.008071  0.001139  0.007046  0.003041
  2H   1s        -0.001417 -0.154918 -0.206589  0.085990  0.026226 -0.033058
  2H   2s        -0.000506 -0.028268 -0.014449  0.008063  0.002247 -0.017134
  2H   1pz        0.001664 -0.007100 -0.008992 -0.000022 -0.001295  0.001823
  2H   1px       -0.000478 -0.011480 -0.010225  0.005338  0.000824 -0.002043
  2H   1py        0.002120  0.004398  0.004845 -0.001295 -0.004580  0.003601
  3C   1s        -0.193197 -0.085010 -0.024466 -0.026747 -0.015583  0.002193
  3C   2s         0.416692  0.182870  0.058910  0.061639  0.034138 -0.006384
  3C   3s         0.039439  0.027167 -0.023395  0.050605  0.040573 -0.019416
  3C   1pz       -0.000432  0.134510  0.097271  0.157476  0.210007 -0.138193
  3C   1px       -0.001600 -0.012223  0.116500 -0.070343 -0.155436 -0.383882
  3C   1py        0.019445  0.018136 -0.003512  0.245590 -0.157587  0.103344
  3C   2pz        0.015409  0.047806  0.047309  0.045064  0.063577 -0.050246
  3C   2px       -0.002167  0.009302  0.028271 -0.030716 -0.059023 -0.141189
  3C   2py        0.015008 -0.000626  0.005943  0.088692 -0.041924  0.040997
  3C   1dz2       0.002030 -0.007553 -0.005053 -0.004680 -0.005980 -0.001550
  3C   1dxz      -0.000083  0.000753 -0.004153  0.001184  0.001265 -0.011035
  3C   1dyz      -0.000905 -0.002279 -0.001156 -0.006724  0.000630  0.000990
  3C   1dx2y2     0.000587 -0.000110  0.001844 -0.002516  0.004416 -0.003401
  3C   1dxy       0.000193  0.000291 -0.003648  0.001094  0.003554  0.007554
  4C   1s         0.180013 -0.104729 -0.000980 -0.013743  0.022539  0.001515
  4C   2s        -0.388693  0.230910  0.001796  0.030073 -0.053537 -0.006005
  4C   3s        -0.038134  0.016607 -0.045652  0.045324 -0.066179 -0.002940
  4C   1pz        0.021021  0.016709  0.015062 -0.269627 -0.075967  0.139404
  4C   1px       -0.003834  0.003815  0.145718  0.014818 -0.065256 -0.007664
  4C   1py        0.002250 -0.158427 -0.011292 -0.106970  0.220450 -0.130054
  4C   2pz        0.013645  0.015423  0.003188 -0.096880 -0.017516  0.036675
  4C   2px       -0.003514  0.005387  0.055735  0.003918 -0.005857  0.028204
  4C   2py        0.016862 -0.062867 -0.019624 -0.023928  0.070807 -0.042693
  4C   1dz2       0.001093  0.004428  0.001310  0.005906 -0.001953 -0.002958
  4C   1dxz      -0.000188 -0.000247  0.002511 -0.001345 -0.002796 -0.000666
  4C   1dyz       0.001973  0.001070  0.000837 -0.005209 -0.000935 -0.002121
  4C   1dx2y2     0.001137  0.007685  0.000921  0.000563 -0.006078  0.005473
  4C   1dxy      -0.000199  0.001397  0.006314  0.000295 -0.000983  0.002331
  5H   1s         0.012687  0.155483 -0.210908 -0.046157 -0.055868 -0.122404
  5H   2s        -0.003685  0.018971 -0.035332 -0.013831  0.004071 -0.021244
  5H   1pz        0.001099  0.002874 -0.003971 -0.002583 -0.009785 -0.001441
  5H   1px        0.000248  0.011673 -0.003605 -0.008184  0.005880 -0.000235
  5H   1py       -0.000915 -0.016955  0.023027  0.002206  0.004791  0.011323
  6H   1s        -0.127751  0.099447  0.004983  0.212431 -0.014387 -0.082557
  6H   2s        -0.008395  0.024865  0.003261  0.027983  0.007030 -0.019794
  6H   1pz       -0.014574  0.010851  0.000616  0.011290 -0.003791 -0.002151
  6H   1px        0.001642 -0.001421  0.003468 -0.001602 -0.001570 -0.000007
  6H   1py       -0.003676 -0.001497  0.000320  0.003877  0.005967 -0.004788
  7H   1s        -0.115565  0.119998  0.079014 -0.050431 -0.142820  0.079558
  7H   2s        -0.018971  0.015252  0.009441 -0.006259 -0.026789  0.009516
  7H   1pz        0.007924 -0.006538 -0.003246 -0.005011  0.004492 -0.000157
  7H   1px        0.011373 -0.010079 -0.002011  0.003360  0.008642 -0.006183
  7H   1py       -0.004805  0.000895  0.004204 -0.004538  0.000235 -0.000859
  8H   1s         0.124710  0.098594 -0.015152  0.040312  0.207575  0.183548
  8H   2s         0.020499  0.019252  0.000429  0.007382  0.033633  0.043962
  8H   1pz       -0.005446 -0.000916  0.003624  0.002218 -0.002261 -0.008891
  8H   1px        0.013344  0.008473  0.001557  0.002046  0.011764  0.001238
  8H   1py        0.006650  0.004931 -0.000390  0.007912  0.002361  0.008877
  9H   1s         0.135875  0.084598  0.016990  0.203341 -0.083468  0.088801
  9H   2s         0.012122  0.021209  0.002848  0.026280 -0.024076  0.015878
  9H   1pz       -0.000521  0.002850  0.002512  0.002065  0.007123 -0.003734
  9H   1px        0.001004 -0.000219  0.002928 -0.000499 -0.005143 -0.011204
  9H   1py       -0.016225 -0.008759 -0.001988 -0.012405  0.002675 -0.004481
 10H   1s         0.124219  0.098762  0.113540 -0.002962  0.046796 -0.319286
 10H   2s         0.019526  0.007969  0.020450  0.004221  0.013678 -0.061128
 10H   1pz       -0.008246 -0.002369 -0.005800  0.003732  0.002834  0.010081
 10H   1px       -0.012324 -0.008910 -0.004956 -0.002411 -0.008142  0.009769
 10H   1py        0.005188  0.003691  0.002717  0.006484 -0.003029 -0.005359
 11H   1s        -0.114580  0.121934 -0.065164 -0.028246 -0.062364  0.094414
 11H   2s        -0.019546  0.018530  0.001539 -0.001221 -0.000045  0.042649
 11H   1pz        0.005364 -0.004414  0.002250 -0.006201  0.000115  0.001969
 11H   1px       -0.012413  0.010739 -0.001695 -0.001173 -0.007317  0.006021
 11H   1py       -0.005555  0.002075 -0.004067 -0.003847  0.003011  0.000501
                     12        13        14        15        16        17   
                  -0.46287  -0.45650  -0.43700  -0.40167  -0.36040  -0.03166
                   2.00000   2.00000   2.00000   2.00000   2.00000   0.00000
                  --------  --------  --------  --------  --------  --------
  0C   1s        -0.017296 -0.010981 -0.002407  0.001243 -0.002329  0.042333
  0C   2s         0.040993  0.027644  0.003425 -0.015133 -0.001894 -0.107498
  0C   3s         0.021728  0.023357  0.011364  0.050466  0.011015 -0.783357
  0C   1pz       -0.008400  0.153019 -0.158365 -0.030691 -0.201320  0.005935
  0C   1px       -0.039522 -0.094057 -0.048546 -0.229627 -0.091902  0.211486
  0C   1py       -0.030281 -0.124618 -0.121149  0.242134 -0.014563  0.006057
  0C   2pz       -0.011046  0.052476 -0.046729 -0.018578 -0.016349  0.031033
  0C   2px        0.021234 -0.009844 -0.001081 -0.050946 -0.043664  0.386291
  0C   2py        0.015650 -0.058379 -0.022124  0.046995  0.000608  0.035244
  0C   1dz2       0.003572 -0.000064 -0.005727  0.011302 -0.021763  0.003110
  0C   1dxz      -0.001627  0.010773  0.003988  0.009101  0.022666  0.012795
  0C   1dyz      -0.002938  0.023282 -0.006408 -0.001253 -0.000383 -0.000276
  0C   1dx2y2    -0.006230 -0.005644 -0.006184  0.018917  0.006726  0.001056
  0C   1dxy      -0.017067 -0.012383 -0.006335 -0.014709  0.002899 -0.017844
  1O   1s        -0.029737  0.030184  0.003030  0.041416  0.003333 -0.080967
  1O   2s        -0.063764  0.059051  0.006203  0.084847  0.003897 -0.185419
  1O   3s        -0.105381  0.083424 -0.001359  0.127689  0.031273 -0.483899
  1O   1pz       -0.125755  0.033572 -0.191368 -0.131381  0.532478  0.000615
  1O   1px       -0.030834  0.390541  0.019064  0.245033  0.180718  0.078662
  1O   1py        0.126594 -0.007914 -0.061711 -0.222899  0.137878 -0.142861
  1O   2pz       -0.076255  0.026717 -0.116573 -0.090382  0.356089  0.005803
  1O   2px       -0.012444  0.222626  0.010076  0.145664  0.112336  0.073909
  1O   2py        0.054946 -0.005689 -0.034951 -0.117347  0.091745 -0.181907
  1O   1dz2      -0.002980  0.005344 -0.002228  0.003163 -0.000562  0.000582
  1O   1dxz       0.002975 -0.001201  0.005815  0.003301 -0.005375  0.000803
  1O   1dyz      -0.001146  0.000028 -0.001444  0.000999  0.005452 -0.004385
  1O   1dx2y2    -0.002059 -0.009091 -0.000019  0.004919 -0.002191 -0.007798
  1O   1dxy      -0.002006  0.003342  0.002536  0.002538 -0.000106  0.001172
  2H   1s         0.041743 -0.019243  0.077871  0.265441  0.209006  0.086257
  2H   2s         0.017206 -0.007898  0.027065  0.096712  0.081276  0.683412
  2H   1pz        0.002061  0.002994 -0.000930  0.009523  0.001820 -0.008923
  2H   1px        0.001461 -0.004313  0.003549  0.008128  0.006615 -0.002461
  2H   1py        0.000499 -0.002641 -0.004090  0.001275 -0.005835  0.009976
  3C   1s        -0.001518 -0.006088  0.013661 -0.007266  0.041326  0.057778
  3C   2s         0.004848  0.016124 -0.037670  0.016724 -0.111883 -0.142403
  3C   3s         0.001292  0.011070 -0.029481  0.021676 -0.110068 -0.582001
  3C   1pz       -0.021865 -0.200431  0.117283 -0.029442  0.251455 -0.092509
  3C   1px       -0.108171  0.085926  0.107686  0.147669 -0.050828  0.061232
  3C   1py       -0.026855  0.214660  0.290561 -0.122022  0.029759 -0.060793
  3C   2pz       -0.005331 -0.085253  0.055924 -0.026554  0.107786 -0.293077
  3C   2px       -0.063568  0.032238  0.026776  0.029343  0.000810  0.084149
  3C   2py       -0.017489  0.103926  0.097857 -0.038121  0.044849 -0.162203
  3C   1dz2       0.000188  0.000618 -0.006831  0.009163 -0.003146 -0.013295
  3C   1dxz      -0.000810  0.001930  0.007132  0.012543  0.001636 -0.012013
  3C   1dyz       0.000769  0.006509  0.002577 -0.006155 -0.005463 -0.008282
  3C   1dx2y2    -0.000250 -0.009207 -0.010883  0.007008  0.004572  0.001168
  3C   1dxy       0.000903 -0.003235 -0.004615 -0.001637  0.002577  0.000823
  4C   1s        -0.002341 -0.006064 -0.010163  0.035752 -0.005268  0.053243
  4C   2s         0.007781  0.016999  0.027910 -0.096474  0.009641 -0.139158
  4C   3s         0.016533 -0.013548  0.025893 -0.097634  0.032481 -0.432097
  4C   1pz        0.006998 -0.191132  0.328189  0.017772  0.042436 -0.000529
  4C   1px        0.458885  0.029166 -0.009126  0.072562  0.047870  0.049852
  4C   1py        0.077808  0.143649  0.113874 -0.295368  0.040262  0.076240
  4C   2pz        0.011407 -0.095893  0.118584 -0.005260 -0.013602  0.014488
  4C   2px        0.165447  0.016046 -0.007236  0.032445 -0.001182  0.101575
  4C   2py        0.030022  0.050844  0.051743 -0.130182  0.028613  0.292552
  4C   1dz2       0.003002  0.003844 -0.012545  0.002586 -0.004133  0.003550
  4C   1dxz       0.011314 -0.000843  0.003986  0.002802  0.004955 -0.004074
  4C   1dyz       0.000355  0.006815 -0.011003 -0.004267 -0.007261 -0.001106
  4C   1dx2y2    -0.002870 -0.004709  0.000650  0.007852  0.000207  0.007746
  4C   1dxy      -0.011786 -0.002755 -0.001642 -0.006800 -0.006299  0.018794
  5H   1s         0.098913 -0.033132 -0.004733 -0.145774 -0.015875  0.191122
  5H   2s         0.020749  0.011412  0.006585 -0.031204 -0.002209  0.685878
  5H   1pz       -0.000633 -0.000332 -0.006903 -0.009514  0.019395 -0.003327
  5H   1px        0.001658  0.014098  0.000302  0.001219  0.004472 -0.002103
  5H   1py       -0.009861  0.007212 -0.000639  0.010578  0.007201  0.010905
  6H   1s         0.023790  0.125304 -0.284915  0.022836 -0.057032  0.028317
  6H   2s         0.006351  0.021867 -0.077861  0.019949 -0.057774  0.285301
  6H   1pz        0.001783  0.003869 -0.011919  0.002929 -0.001613 -0.006006
  6H   1px        0.013573 -0.000215  0.002797  0.002694  0.001416  0.001012
  6H   1py        0.002610  0.005046 -0.001449 -0.005960 -0.001524  0.003688
  7H   1s         0.266892 -0.095646  0.119579  0.126578  0.070744 -0.040058
  7H   2s         0.052357 -0.013644  0.033951  0.064130  0.054396  0.136069
  7H   1pz       -0.011544 -0.001583  0.005371 -0.004022 -0.000411  0.004120
  7H   1px       -0.003534  0.007211 -0.007497 -0.004866 -0.001671  0.005009
  7H   1py        0.008439  0.001535  0.005052 -0.004245  0.002737  0.007422
  8H   1s         0.064724 -0.185552 -0.154514 -0.076396  0.079427  0.100235
  8H   2s        -0.004803 -0.043281 -0.045696 -0.032912  0.054874  0.473665
  8H   1pz       -0.002133  0.000038  0.006040  0.001533  0.005112  0.001572
  8H   1px        0.001937 -0.009980 -0.006701  0.000462  0.003689 -0.006902
  8H   1py        0.002494  0.000504  0.003562 -0.006979  0.002758 -0.007202
  9H   1s        -0.012674  0.163907  0.235641 -0.124749 -0.008194  0.047882
  9H   2s         0.000238  0.025289  0.067999 -0.060927  0.007760  0.459068
  9H   1pz       -0.000526 -0.004704  0.002714  0.000284  0.005462 -0.008951
  9H   1px       -0.002715  0.003094  0.004548  0.004389 -0.000774  0.002741
  9H   1py        0.000664 -0.006205 -0.009922  0.005094 -0.000005  0.009146
 10H   1s        -0.061426 -0.082147  0.039533  0.150422  0.049769 -0.013149
 10H   2s        -0.004526 -0.011545  0.015452  0.072887  0.046863  0.207519
 10H   1pz        0.002248 -0.001915  0.001183 -0.005099  0.003152 -0.006196
 10H   1px        0.001305  0.007906  0.001035 -0.003655 -0.003581  0.006586
 10H   1py       -0.003029  0.004477  0.009637 -0.000558  0.001245 -0.005348
 11H   1s        -0.331295 -0.121073  0.070228  0.018725 -0.036830  0.113825
 11H   2s        -0.078915 -0.026859  0.013022  0.015744 -0.016805  0.523591
 11H   1pz        0.009859 -0.002489  0.007968  0.000161  0.003343  0.004449
 11H   1px       -0.009700 -0.007041  0.004857  0.004283 -0.000123 -0.007404
 11H   1py       -0.008490 -0.000148  0.004351 -0.006125  0.000120 -0.002518
                     18        19        20        21        22        23   
                   0.00339   0.01803   0.02661   0.03856   0.05830   0.06121
                   0.00000   0.00000   0.00000   0.00000   0.00000   0.00000
                  --------  --------  --------  --------  --------  --------
  0C   1s         0.044880  0.019131 -0.019824  0.000314 -0.071426 -0.128000
  0C   2s        -0.150146 -0.054082  0.050699 -0.006859  0.179173  0.328990
  0C   3s        -0.146031 -0.011814  0.218931  0.126314  1.220486  1.792198
  0C   1pz        0.055419  0.150618 -0.065729  0.132590 -0.119807 -0.063640
  0C   1px       -0.157526 -0.094750 -0.094449 -0.030409 -0.102206 -0.109325
  0C   1py       -0.056063 -0.139054  0.081969  0.061081 -0.179189  0.168702
  0C   2pz        0.099844  0.276911  0.017831  0.440705 -0.240823 -0.152259
  0C   2px       -0.256743 -0.086286 -0.213592 -0.180025 -0.431645 -0.403327
  0C   2py       -0.150065 -0.183333  0.318229  0.306156 -0.580212  0.409754
  0C   1dz2      -0.006647 -0.002804 -0.007967 -0.011007  0.018177 -0.004871
  0C   1dxz      -0.013797 -0.009362 -0.016376  0.001834  0.001144 -0.004352
  0C   1dyz      -0.003491 -0.032008  0.013547 -0.011755  0.003164 -0.004764
  0C   1dx2y2     0.007892  0.015156 -0.006149 -0.002439  0.011744 -0.015946
  0C   1dxy       0.019609  0.011617 -0.001874 -0.004842  0.009964 -0.009326
  1O   1s         0.060879  0.026104 -0.028782  0.038777  0.002024 -0.045569
  1O   2s         0.124073  0.069862 -0.061071  0.080867 -0.001342 -0.100219
  1O   3s         0.499475  0.090722 -0.224306  0.323722  0.086189 -0.356917
  1O   1pz        0.004961  0.087482  0.007392 -0.078084  0.010899 -0.004640
  1O   1px       -0.170790 -0.115838  0.015555 -0.021319 -0.001736  0.129997
  1O   1py        0.072394 -0.135424 -0.147799  0.059105  0.011186 -0.016409
  1O   2pz        0.019327  0.074504  0.037010 -0.084754  0.064028 -0.014244
  1O   2px       -0.180085 -0.141195  0.031217 -0.051700 -0.031502  0.188302
  1O   2py        0.076106 -0.147379 -0.197048  0.066698  0.022062 -0.041451
  1O   1dz2       0.002483  0.000932 -0.003183  0.002271 -0.003286 -0.003671
  1O   1dxz       0.003309  0.002760  0.000748 -0.003324  0.001706 -0.003979
  1O   1dyz       0.003553 -0.001294 -0.000026  0.000859  0.000682  0.002848
  1O   1dx2y2     0.000979 -0.003128  0.000178  0.003557 -0.001628  0.006060
  1O   1dxy      -0.006240 -0.003746 -0.000585 -0.002876  0.005639  0.002774
  2H   1s        -0.072850  0.053918 -0.136955  0.046752 -0.049651 -0.129599
  2H   2s        -0.051011  0.292710 -0.649761  0.126493 -0.814179 -1.520193
  2H   1pz        0.008273  0.001126  0.009023  0.008690 -0.001286  0.007194
  2H   1px       -0.009328 -0.004731  0.006092 -0.005950  0.007712  0.019353
  2H   1py       -0.011380  0.000800  0.004912  0.006670 -0.012689  0.006766
  3C   1s         0.071139  0.022826  0.052453  0.118072  0.004141  0.046669
  3C   2s        -0.183133 -0.062651 -0.109454 -0.278320  0.004683 -0.092542
  3C   3s        -0.900793 -0.251093 -0.964014 -1.884421 -0.257429 -0.746877
  3C   1pz       -0.129973  0.135395 -0.115245 -0.025613  0.007707  0.096825
  3C   1px       -0.073243 -0.116766 -0.193769  0.142347  0.170471 -0.040986
  3C   1py        0.045275 -0.228401 -0.021019 -0.028860 -0.264506  0.079590
  3C   2pz       -0.308516  0.297522 -0.174520  0.104506  0.096826  0.436685
  3C   2px       -0.117618 -0.269196 -0.428739  0.257431  0.523242 -0.023003
  3C   2py        0.063667 -0.521360  0.002092 -0.018276 -0.518575  0.098706
  3C   1dz2      -0.008725 -0.003833  0.005634  0.000985 -0.010659  0.020608
  3C   1dxz       0.018110  0.010903  0.015496  0.000858 -0.007133 -0.001603
  3C   1dyz       0.002797  0.018213 -0.013111  0.000861  0.011435 -0.000637
  3C   1dx2y2    -0.003282 -0.026145  0.009973 -0.000423 -0.019777 -0.002807
  3C   1dxy      -0.003638 -0.009981 -0.004292  0.003602  0.010168  0.004558
  4C   1s         0.087795  0.004858 -0.070401 -0.081089  0.068424  0.043279
  4C   2s        -0.214952 -0.025292  0.165342  0.184095 -0.154114 -0.078868
  4C   3s        -1.223187  0.096174  1.125560  1.320910 -1.168582 -0.787024
  4C   1pz       -0.027272  0.188743 -0.182742  0.049718 -0.233358  0.223861
  4C   1px       -0.097680 -0.118027 -0.141768  0.178158  0.062434  0.064549
  4C   1py        0.139313 -0.137776 -0.039382 -0.056901 -0.150487  0.069747
  4C   2pz       -0.034098  0.437774 -0.395565  0.139101 -0.500200  0.587739
  4C   2px       -0.225803 -0.246364 -0.200551  0.422157  0.206146  0.298571
  4C   2py        0.307002 -0.265431  0.000432 -0.014995 -0.589232  0.011311
  4C   1dz2       0.010308  0.015774 -0.010050  0.006227 -0.021084  0.010529
  4C   1dxz       0.006833  0.001120  0.005612 -0.012593  0.000372 -0.018082
  4C   1dyz       0.003996  0.023656 -0.008477  0.015455 -0.007853  0.005102
  4C   1dx2y2     0.011054 -0.012683  0.000657 -0.003182 -0.013417 -0.008939
  4C   1dxy      -0.017754 -0.013810 -0.003321  0.002666 -0.010304  0.007045
  5H   1s        -0.111937  0.054025  0.109999 -0.119451  0.007074  0.030714
  5H   2s        -0.455047  0.247013  0.484019 -0.457378  0.044442  0.237783
  5H   1pz        0.005491  0.001709  0.000616  0.003591  0.004027  0.002847
  5H   1px       -0.006569 -0.008140 -0.001317 -0.003314  0.006746  0.006768
  5H   1py       -0.007196  0.004430  0.006134 -0.004163  0.003806  0.002146
  6H   1s         0.106797  0.153020 -0.118388  0.055173 -0.116647  0.152239
  6H   2s         0.598746  0.652361 -0.995459 -0.336104 -0.568575  1.146269
  6H   1pz       -0.009398 -0.005720  0.013064  0.007938  0.008871 -0.013065
  6H   1px       -0.002333 -0.002973 -0.004917  0.005863  0.002521  0.010778
  6H   1py       -0.001027 -0.012342  0.003098 -0.005412 -0.005802 -0.004223
  7H   1s         0.141289 -0.050074  0.027846 -0.161570  0.056981 -0.124638
  7H   2s         0.954106 -0.214217  0.196885 -1.181180  0.476369 -0.399034
  7H   1pz        0.011632  0.004889  0.001958 -0.007468 -0.007291  0.002460
  7H   1px        0.010380 -0.007148  0.002720 -0.011554  0.006429 -0.004665
  7H   1py       -0.001433 -0.003282 -0.000570  0.006714 -0.017832  0.002161
  8H   1s        -0.042599 -0.172091 -0.002106  0.071630  0.019269  0.007088
  8H   2s         0.317187 -0.772625 -0.090939  1.049563  0.227570  0.128788
  8H   1pz       -0.008973 -0.002718 -0.001360  0.005307 -0.001529  0.011380
  8H   1px       -0.007439  0.010262 -0.001238 -0.012462  0.003144  0.001601
  8H   1py       -0.004581  0.000957  0.004709 -0.007243 -0.013865 -0.002456
  9H   1s         0.081414  0.176334 -0.043218  0.052107  0.182167 -0.026484
  9H   2s         0.311643  0.932571  0.279322  0.800303  1.074258  0.012379
  9H   1pz        0.002650  0.007604 -0.010259  0.003115  0.006933  0.002212
  9H   1px       -0.005043 -0.005322 -0.003429  0.001355  0.007666  0.004280
  9H   1py        0.004256  0.011578  0.004724  0.011895  0.013899 -0.000027
 10H   1s         0.110788 -0.021838  0.176494  0.049140 -0.142062 -0.011882
 10H   2s         0.823089 -0.073105  1.096230  0.368309 -0.832567  0.197995
 10H   1pz        0.005072  0.004022  0.008755  0.006850 -0.007557  0.012033
 10H   1px        0.010896 -0.006028  0.009717  0.003541 -0.007899 -0.001389
 10H   1py       -0.008255 -0.006302 -0.004926  0.004100 -0.001404  0.003379
 11H   1s        -0.047398 -0.170276 -0.031269 -0.032234  0.018261  0.067846
 11H   2s         0.321884 -0.806491 -0.562965 -0.133091  0.635226  0.349654
 11H   1pz        0.003239 -0.001394 -0.008661  0.007059 -0.000536  0.014008
 11H   1px       -0.010060  0.010689  0.006532  0.002321 -0.006758  0.001932
 11H   1py        0.009041  0.003514  0.002481  0.005964 -0.010079 -0.005284
                     24        25        26        27        28        29   
                   0.06934   0.08114   0.10522   0.10911   0.27669   0.31241
                   0.00000   0.00000   0.00000   0.00000   0.00000   0.00000
                  --------  --------  --------  --------  --------  --------
  0C   1s         0.001992 -0.068014  0.140765 -0.033008  0.015841 -0.000663
  0C   2s        -0.020198  0.133974 -0.356876  0.073336 -0.113832 -0.005309
  0C   3s         0.301504  1.984784 -2.434499  0.651020  1.287185  0.088588
  0C   1pz        0.100237  0.317734 -0.008925  0.330223 -0.085876 -0.194566
  0C   1px       -0.048457 -0.086645 -0.393677  0.045482 -0.021879  0.057128
  0C   1py       -0.107192 -0.231168  0.102513  0.353078  0.085170 -0.234161
  0C   2pz        0.467714  1.165132 -0.135020  1.207671  0.583560  0.257328
  0C   2px       -0.203973 -0.387038 -1.239898  0.152326 -0.125103 -0.002059
  0C   2py       -0.228218 -0.946682  0.548806  1.310964 -0.585046  0.407019
  0C   1dz2      -0.010783 -0.017783 -0.018994 -0.022139  0.002084 -0.060170
  0C   1dxz      -0.020868  0.000748 -0.023649  0.008552 -0.025615 -0.007995
  0C   1dyz      -0.004111 -0.000286  0.001037 -0.007805  0.049971 -0.016966
  0C   1dx2y2     0.015293  0.023006  0.002665 -0.016259 -0.034506 -0.033853
  0C   1dxy      -0.019808  0.011336  0.019716 -0.005677  0.009556 -0.026568
  1O   1s         0.014947  0.000664  0.048221 -0.005712  0.000913  0.005209
  1O   2s         0.029179 -0.008085  0.067330  0.000264 -0.021827  0.031844
  1O   3s         0.178121  0.112518  0.736413 -0.165110  0.151410 -0.058853
  1O   1pz        0.052343  0.001392  0.139880 -0.098141  0.001754 -0.014728
  1O   1px       -0.079202 -0.125544 -0.191510  0.060516  0.015164  0.027341
  1O   1py        0.001567 -0.145721 -0.243842  0.003416  0.027191  0.022063
  1O   2pz        0.039488  0.000632  0.261103 -0.204202 -0.026181 -0.068753
  1O   2px       -0.126585 -0.225643 -0.349993  0.110804 -0.068184  0.042603
  1O   2py       -0.052931 -0.174675 -0.430971 -0.034408  0.045639 -0.127766
  1O   1dz2      -0.004527  0.002962 -0.001377  0.000422 -0.001008 -0.007070
  1O   1dxz       0.001460 -0.002771  0.003864 -0.011036 -0.002288 -0.002884
  1O   1dyz      -0.003819 -0.010647  0.010015 -0.004297  0.011695 -0.001896
  1O   1dx2y2    -0.008439 -0.010698 -0.003903  0.005549  0.004817 -0.000785
  1O   1dxy      -0.000706 -0.001835 -0.013056 -0.010248  0.001865 -0.003072
  2H   1s         0.021659  0.023103 -0.110673  0.019201 -0.270848 -0.006379
  2H   2s         0.198740  0.169814 -0.456810  0.182435  0.192062  0.032444
  2H   1pz        0.009868  0.008189  0.014609  0.006234  0.007019  0.037550
  2H   1px       -0.007564 -0.008447 -0.005878 -0.002639  0.019464 -0.008560
  2H   1py        0.003700 -0.006690 -0.005806  0.012180 -0.004719  0.047088
  3C   1s        -0.013094  0.038510 -0.036537  0.033866 -0.031222  0.034466
  3C   2s         0.039966 -0.047392  0.026408 -0.015693  0.205740 -0.268554
  3C   3s        -0.107139 -1.362385  1.135042 -1.406033 -1.120169  0.231869
  3C   1pz        0.068272  0.151624  0.027176  0.322110 -0.114497  0.267581
  3C   1px       -0.258267  0.092050  0.149768  0.020735  0.031357  0.141980
  3C   1py       -0.021822  0.256624  0.021386 -0.059041 -0.259891  0.079308
  3C   2pz        0.242215  0.771990 -0.353816  1.383506  0.233598 -0.527163
  3C   2px       -0.664557  0.182770  0.660836 -0.195722 -0.071271 -0.418281
  3C   2py        0.047469  0.971385 -0.112437 -0.168370  0.674726 -0.233077
  3C   1dz2       0.008578  0.021671 -0.004321  0.039342  0.018891 -0.025032
  3C   1dxz       0.030009 -0.002831  0.026585 -0.016062  0.021170  0.039544
  3C   1dyz       0.009501  0.025584 -0.009468  0.004272 -0.025214 -0.038509
  3C   1dx2y2    -0.003167  0.018947 -0.005764 -0.011300  0.069441  0.028968
  3C   1dxy      -0.016438  0.007050  0.018714 -0.005986  0.008765 -0.031655
  4C   1s         0.026533  0.034563 -0.037561 -0.015088 -0.036145 -0.035464
  4C   2s        -0.060478 -0.042369  0.009995  0.010125  0.238474  0.280713
  4C   3s        -0.489075 -1.339655  1.480161  0.714682 -1.286941 -0.272234
  4C   1pz       -0.088136 -0.018475  0.018028 -0.141618  0.218812  0.014403
  4C   1px        0.334638 -0.043951  0.062342 -0.096991 -0.008635 -0.180372
  4C   1py        0.009932 -0.165281  0.176053  0.250610  0.178879  0.276203
  4C   2pz       -0.314391 -0.352998  0.048450 -0.489149 -0.595417 -0.034217
  4C   2px        0.874545  0.012241  0.434763 -0.230853  0.036649  0.451488
  4C   2py       -0.065591 -0.854901  1.089690  0.913134 -0.430904 -0.530989
  4C   1dz2      -0.017002 -0.020843  0.015252  0.002571 -0.053322 -0.011841
  4C   1dxz      -0.020122  0.005884 -0.009424  0.006489  0.023550 -0.044771
  4C   1dyz       0.004337  0.017798 -0.002790  0.011283 -0.045151  0.025856
  4C   1dx2y2     0.002284 -0.013849  0.030475  0.031546  0.031155 -0.045475
  4C   1dxy       0.018426 -0.015938 -0.026355  0.007757 -0.009377  0.017411
  5H   1s         0.075230  0.147275  0.080489 -0.013039 -0.100389  0.097383
  5H   2s         0.039949  0.503125  0.529891 -0.235665 -0.013189 -0.167634
  5H   1pz        0.000565 -0.012476  0.010696 -0.000919  0.018547  0.019062
  5H   1px        0.000922  0.002018 -0.013651 -0.007644 -0.001623 -0.014935
  5H   1py       -0.000444  0.009335  0.008936 -0.004123  0.003025 -0.015111
  6H   1s        -0.058620 -0.038858  0.058828  0.003020 -0.483730  0.045579
  6H   2s        -0.332608 -0.025816 -0.101456 -0.413246  0.517390 -0.076072
  6H   1pz        0.006000  0.005685 -0.001905  0.002648 -0.007625  0.000868
  6H   1px        0.012205 -0.001985  0.006939 -0.003928 -0.005392  0.027761
  6H   1py       -0.004019 -0.018926  0.005582  0.004111  0.012755 -0.029298
  7H   1s        -0.135457  0.034525  0.073599  0.092534  0.345946 -0.486660
  7H   2s        -0.668538  0.277719 -0.312152  0.766227 -0.044292  0.403968
  7H   1pz       -0.012810 -0.008018 -0.004304  0.001401 -0.029283 -0.005074
  7H   1px        0.001644  0.003975 -0.001282  0.018735  0.016060  0.003637
  7H   1py        0.006734 -0.011849 -0.002326  0.010803 -0.005039 -0.011848
  8H   1s        -0.226965  0.044720 -0.019167 -0.090734  0.179956 -0.080632
  8H   2s        -1.063882  0.786385  0.301973 -0.320526  0.052781 -0.017682
  8H   1pz       -0.015374  0.005352 -0.013597  0.021158 -0.018816  0.000321
  8H   1px        0.008283 -0.013291  0.002345  0.011236 -0.015547 -0.025296
  8H   1py        0.004751  0.009997 -0.016113  0.003856  0.028889  0.020564
  9H   1s         0.001610 -0.151195 -0.009414 -0.017657 -0.484568 -0.060073
  9H   2s        -0.045446 -0.760995 -0.292506  0.501238  0.509502  0.137149
  9H   1pz        0.005117  0.016057 -0.006801  0.007377 -0.011417 -0.033686
  9H   1px       -0.011451  0.005449  0.011918 -0.002730 -0.003062 -0.027061
  9H   1py       -0.002624 -0.011354 -0.002450  0.003329  0.006253 -0.008482
 10H   1s         0.157369 -0.010312  0.021127 -0.110995  0.318508  0.503837
 10H   2s         0.642255  0.053089 -0.741460 -0.504506 -0.040346 -0.397614
 10H   1pz        0.013057  0.006426  0.004343  0.006237  0.001803 -0.012418
 10H   1px       -0.000698  0.003188 -0.011884 -0.016551  0.011492 -0.001014
 10H   1py        0.000040  0.019248  0.008022 -0.002165  0.032915 -0.009109
 11H   1s         0.204736 -0.090369 -0.008082  0.087329  0.157928  0.074948
 11H   2s         1.421311 -0.055893  0.295971  0.179430  0.091090 -0.020905
 11H   1pz        0.001634 -0.009441  0.011218 -0.009529 -0.034939  0.021034
 11H   1px       -0.013947 -0.001669 -0.007545 -0.012599 -0.014358  0.020272
 11H   1py       -0.012494  0.002861  0.026924  0.008398  0.010099  0.005669
                     30        31        32        33        34        35   
                   0.33842   0.35078   0.37555   0.43836   0.44588   0.47337
                   0.00000   0.00000   0.00000   0.00000   0.00000   0.00000
                  --------  --------  --------  --------  --------  --------
  0C   1s        -0.095088  0.081358 -0.102176  0.045645  0.070515  0.056847
  0C   2s         0.642183 -0.531807  0.429583  0.062360 -0.407962 -0.454599
  0C   3s        -1.810948  1.115969 -1.984569  0.126653  2.220635  3.148575
  0C   1pz       -0.047324  0.060049 -0.271965 -0.100491 -0.506307 -0.186649
  0C   1px        0.227595 -0.137230  0.415913  0.400069  0.277693 -0.279008
  0C   1py        0.137231 -0.010266  0.263673  0.305499 -0.130608  0.527717
  0C   2pz       -0.412917  0.270749  0.762211  0.059891  1.859726  0.608313
  0C   2px       -0.185195 -0.157385 -0.835804 -1.719183 -0.213390  1.629096
  0C   2py       -0.281437 -0.596016 -0.669262 -1.219727  0.947206 -1.976833
  0C   1dz2      -0.036082 -0.042605 -0.003004  0.022581  0.016423 -0.004376
  0C   1dxz      -0.008770  0.049769  0.026911  0.004414  0.029212 -0.005215
  0C   1dyz       0.000905 -0.032348 -0.012807  0.014931  0.010378 -0.028771
  0C   1dx2y2    -0.053314  0.001567  0.047790 -0.027579  0.010647  0.001746
  0C   1dxy       0.025227 -0.008110 -0.020115 -0.014029 -0.039530  0.010005
  1O   1s         0.015908  0.003591 -0.055125  0.017379 -0.002937 -0.000532
  1O   2s         0.040966 -0.022660 -0.258519 -0.024122  0.015286  0.060724
  1O   3s         0.278099  0.124840  0.892626  0.912212 -0.018142 -0.742994
  1O   1pz       -0.098192 -0.197984 -0.135919  0.002395 -0.062271  0.052690
  1O   1px        0.122479 -0.142076  0.078968 -0.033551  0.119334 -0.136534
  1O   1py       -0.047660 -0.011068  0.126743  0.119318 -0.203152 -0.042147
  1O   2pz        0.024011  0.010468  0.017791  0.191770 -0.094493 -0.194859
  1O   2px       -0.047259 -0.088278 -0.197770 -0.271173 -0.035753  0.123590
  1O   2py        0.070065  0.002007 -0.032822 -0.096977 -0.099303  0.326926
  1O   1dz2       0.008803  0.023994 -0.013843  0.000860 -0.034331  0.006596
  1O   1dxz      -0.020435 -0.000238 -0.028912 -0.018017 -0.001746  0.009991
  1O   1dyz       0.003380  0.005673 -0.018090  0.002537 -0.028182 -0.003626
  1O   1dx2y2     0.037996  0.000981  0.002166  0.033658 -0.030580  0.010769
  1O   1dxy       0.017791 -0.011994  0.032805  0.031149 -0.003779 -0.006808
  2H   1s        -0.276759  0.382807  0.116211  0.142056  0.338348  0.188512
  2H   2s         0.475910 -0.428917  0.100315 -0.297078 -0.367659  0.368542
  2H   1pz        0.015116 -0.004305  0.020533 -0.048546 -0.035508  0.042992
  2H   1px        0.018872 -0.022962  0.005234 -0.019605 -0.016393  0.034641
  2H   1py        0.008465  0.015622 -0.014328  0.052222 -0.011821 -0.005841
  3C   1s         0.044325  0.043581  0.049480 -0.081822 -0.091224 -0.041411
  3C   2s        -0.304607 -0.282114 -0.288853  0.385814  0.525956  0.258058
  3C   3s         1.454042  0.104618  0.361512 -0.211558 -3.013256 -1.209206
  3C   1pz        0.220301  0.256869  0.322936 -0.330980 -0.346108  0.108600
  3C   1px       -0.106339 -0.160228 -0.052437 -0.151732  0.107363  0.281110
  3C   1py        0.095256 -0.016910 -0.045965 -0.121055 -0.004547 -0.213219
  3C   2pz       -0.686764 -0.396458 -0.719250  0.399367  1.396001 -0.098247
  3C   2px        0.256744  0.724430  0.180689  0.885459 -0.320025 -1.242248
  3C   2py       -0.262687  0.302774  0.405823  0.328538 -0.014064  0.721359
  3C   1dz2       0.014700 -0.038073 -0.029554  0.015520 -0.041876 -0.028210
  3C   1dxz       0.002479 -0.056465  0.007511  0.008023 -0.014489 -0.014988
  3C   1dyz      -0.017649 -0.006697  0.006281  0.010673 -0.035261  0.023039
  3C   1dx2y2     0.007086  0.038990  0.006782 -0.013691  0.008524 -0.013242
  3C   1dxy       0.016901  0.068561 -0.014611  0.014114  0.009838 -0.041935
  4C   1s        -0.038610 -0.029792  0.077268 -0.077184  0.024709 -0.121369
  4C   2s         0.255651  0.196835 -0.456167  0.406051 -0.199113  0.736237
  4C   3s        -0.233366 -1.122754  0.679939 -1.342017  0.943120 -3.869596
  4C   1pz       -0.031176  0.079456  0.116858 -0.043285  0.235199  0.119064
  4C   1px        0.112275  0.014116 -0.061061 -0.200802 -0.000561  0.298722
  4C   1py        0.238434  0.141190 -0.411060  0.324064  0.195145  0.104331
  4C   2pz        0.151793 -0.307612 -0.505604  0.267053 -0.647099 -0.278350
  4C   2px       -0.480867  0.155820  0.337054  1.144079 -0.296096 -1.061461
  4C   2py       -0.388017 -0.481907  0.903543 -0.654821 -0.011769 -1.220169
  4C   1dz2       0.034012  0.005873  0.003396  0.009714  0.024322  0.040845
  4C   1dxz       0.055681 -0.007594 -0.006118 -0.056247  0.042994  0.000110
  4C   1dyz       0.017510  0.031538  0.010053 -0.013217  0.024483  0.017918
  4C   1dx2y2    -0.040594  0.010501  0.038070  0.014710 -0.007160  0.023675
  4C   1dxy      -0.050456  0.017790  0.014811  0.003419 -0.000621  0.031921
  5H   1s        -0.380656 -0.133498 -0.008522 -0.412538  0.584378 -0.082190
  5H   2s         0.390859  0.049604  0.277807  0.729660 -0.539418  0.199564
  5H   1pz       -0.006032  0.010439 -0.007168 -0.011617 -0.018095 -0.029166
  5H   1px        0.008066 -0.011668  0.063000  0.058307 -0.003816  0.015277
  5H   1py       -0.005067 -0.023695  0.020524 -0.032200  0.074469  0.002455
  6H   1s         0.166049  0.047393  0.115903  0.035925  0.198956  0.076661
  6H   2s        -0.124889 -0.115096 -0.254142  0.223444 -0.566954  0.241320
  6H   1pz       -0.003921 -0.005650 -0.019385  0.017928 -0.041698  0.014838
  6H   1px       -0.050956  0.009123  0.009594  0.054124 -0.036993 -0.020763
  6H   1py       -0.013070 -0.015304 -0.034944  0.010090 -0.069119  0.011761
  7H   1s         0.267787 -0.141402  0.153644 -0.395015  0.190096 -0.213226
  7H   2s        -0.105444  0.185424  0.015966 -0.018264 -0.089538  1.141993
  7H   1pz        0.037442 -0.001361 -0.009633 -0.013728  0.028542 -0.011251
  7H   1px       -0.033755  0.000381  0.012003  0.010966 -0.005364 -0.052074
  7H   1py       -0.023457  0.043919  0.007621 -0.033580  0.022699  0.093052
  8H   1s         0.087112  0.755378  0.033542 -0.176178  0.026977 -0.247625
  8H   2s        -0.322014 -0.378233  0.177149  0.541535 -0.114832  0.042842
  8H   1pz       -0.007973  0.001034 -0.043139 -0.042148 -0.015091  0.001230
  8H   1px        0.002171  0.000131 -0.004771  0.029822 -0.002365 -0.015330
  8H   1py       -0.012565 -0.004636  0.003151 -0.009171 -0.018390  0.031190
  9H   1s        -0.032980 -0.112674  0.106467 -0.070073 -0.028612  0.151559
  9H   2s        -0.038589  0.028900 -0.297916 -0.065146  0.520241 -0.357331
  9H   1pz       -0.004197  0.006272  0.030177  0.030130 -0.034508  0.051955
  9H   1px        0.009587  0.059876 -0.015522  0.021291  0.009347 -0.048526
  9H   1py       -0.004166  0.008475  0.021334 -0.005506 -0.026226  0.021310
 10H   1s         0.046354 -0.325068  0.217486 -0.260356 -0.139205  0.023151
 10H   2s        -0.130577  0.157973  0.003720 -0.187674  0.369505  0.806788
 10H   1pz        0.038549 -0.033039 -0.009367  0.034648 -0.027313 -0.095257
 10H   1px       -0.002655  0.034820  0.000982 -0.006871 -0.002889 -0.019977
 10H   1py        0.015856  0.039252 -0.002086  0.011311 -0.000596 -0.023133
 11H   1s        -0.674856  0.068003  0.263116  0.160608 -0.274620 -0.182042
 11H   2s         0.465006  0.279807 -0.022955  0.257701  0.094787  0.033571
 11H   1pz       -0.002626 -0.008474 -0.004225  0.038152 -0.019676 -0.003714
 11H   1px       -0.000875  0.001605 -0.011865  0.015027 -0.012752  0.005041
 11H   1py        0.010365 -0.001852  0.043657  0.053139  0.011899 -0.006817
                     36        37        38        39        40        41   
                   0.47613   0.49430   0.50998   0.53205   0.54265   0.55132
                   0.00000   0.00000   0.00000   0.00000   0.00000   0.00000
                  --------  --------  --------  --------  --------  --------
  0C   1s        -0.015401  0.059530 -0.064821  0.035428  0.005501 -0.086364
  0C   2s         0.099537 -0.428040  0.636319 -0.317275 -0.107103  0.662569
  0C   3s        -0.437229  1.539749 -2.263468  1.277920  0.695188 -2.919365
  0C   1pz        0.002791  0.369020 -0.220190 -0.093429 -0.174819 -0.158547
  0C   1px       -0.115068  0.167769 -0.124954  0.016885 -0.311932 -0.234313
  0C   1py       -0.082012  0.281410 -0.103789 -0.161301 -0.042051  0.200054
  0C   2pz       -0.685699 -1.192653  0.792696  0.081418  0.796330 -0.315209
  0C   2px        0.444247  0.110792  0.263255  0.203990  0.757299 -0.153685
  0C   2py       -0.636384 -1.366442  0.518246 -0.040488  0.252160 -0.605130
  0C   1dz2       0.029440 -0.014059  0.001735 -0.002313  0.012931  0.023791
  0C   1dxz      -0.013178  0.035384 -0.017488  0.004211 -0.035603 -0.038924
  0C   1dyz       0.004706 -0.004404  0.006428 -0.018899 -0.040496  0.040019
  0C   1dx2y2     0.016328  0.030132 -0.012741  0.002921 -0.024374 -0.039593
  0C   1dxy       0.005027 -0.022138  0.010733  0.002258  0.034815  0.014224
  1O   1s         0.014062 -0.009739  0.058140 -0.004248 -0.009754 -0.039434
  1O   2s         0.058101 -0.010432  0.216952  0.005663 -0.000483 -0.235574
  1O   3s        -0.123639 -0.206818  0.060067 -0.279255 -0.468386  0.862700
  1O   1pz       -0.030455  0.055623  0.018561 -0.053952  0.003603  0.016609
  1O   1px       -0.028982  0.025319 -0.063386 -0.031611 -0.126096  0.168784
  1O   1py        0.004768 -0.130817  0.087338 -0.026243  0.126118 -0.131018
  1O   2pz        0.076718  0.048643 -0.023174 -0.056832 -0.199625  0.142319
  1O   2px        0.004204  0.032915 -0.117156  0.101586  0.182215 -0.281433
  1O   2py        0.162716  0.195830 -0.129265  0.085951  0.076080  0.016953
  1O   1dz2       0.004940  0.002984  0.004523  0.010628  0.014633 -0.029363
  1O   1dxz       0.009606 -0.004170 -0.005720  0.004122  0.013262  0.002627
  1O   1dyz       0.006209 -0.013800  0.008468  0.004887  0.018520 -0.014262
[...]
     13       0.192151  -0.041322  -0.082045   0.084895   0.093749   0.023017
     14       0.053063   0.078922   0.027249   0.082482  -0.001884   0.028056
     15      -0.128108   0.032168  -0.055557  -0.061585  -0.600899   0.108696
     16      -0.070435   0.007370   0.025579   0.048121  -0.083441   0.036108
     17       0.026906  -0.000546   0.007684   0.049687   0.322414  -0.052866
     18      -0.121828  -0.118065   0.200976   0.030226   0.087531  -0.220689
     19       0.419443   0.422164   0.099320   0.499613   0.159333   0.080458
     20      -0.025035  -0.070605   0.011452  -0.019857  -0.000488  -0.025566
     21      -0.027303   0.050223   0.106190   0.074508   0.045068  -0.041557
     22      -0.100512  -0.392471   0.287633   0.141538   0.341334  -0.263837
     23      -0.057028  -0.201185  -0.043792  -0.104591  -0.012221   0.002014
     24      -0.054605   0.089783  -0.044274  -0.007255   0.038998  -0.079130
     25      -0.098659  -0.198294  -0.156318   0.241309  -0.101106   0.004994
     26      -0.473503  -0.075342  -0.465697   0.420506  -0.063463  -0.308366
     27      -0.092021   0.055062  -0.172601   0.161007  -0.072139  -0.264443
     28      -0.091123   0.041090  -0.014316  -0.069552   0.056433  -0.019068
     29      -0.392006   0.443419   0.005150  -0.468732   0.361450   0.004252
     30      -0.070303   0.045539  -0.112676   0.107552  -0.075802  -0.146105
     31       0.054058  -0.285015   0.009809   0.097075  -0.065784   0.064592
     32       0.097168  -0.343654   0.212172  -0.178726   0.148560   0.445194
     33      -0.101494  -0.043670   0.155422   0.036952   0.025375  -0.115138
     34       0.359761  -0.135855  -0.590660  -0.233595  -0.034396   0.252847
     35      -0.041498  -0.173789  -0.043509  -0.093452   0.011763  -0.098666
                 18         19         20         21         22         23    
      0      -0.068073   0.049541   0.038773   0.051297  -0.016582   0.013988
      1      -0.094668  -0.031391  -0.046956   0.031333   0.046326   0.135272
      2       0.206234   0.003658  -0.074416  -0.063708   0.060956   0.017677
      3       0.073987  -0.028577   0.003390   0.025004   0.000936   0.032048
      4       0.014025   0.032968   0.007059  -0.015545  -0.008052  -0.029203
      5      -0.036460   0.024351   0.015074   0.007101  -0.007278  -0.010617
      6      -0.140547  -0.109173  -0.284383  -0.410736   0.114122  -0.218021
      7      -0.082731  -0.648609   0.199463  -0.242378  -0.142503  -0.416589
      8       0.337121  -0.107007   0.557790   0.476610  -0.237978   0.040771
      9      -0.031025   0.007669  -0.033446  -0.037010   0.028298  -0.006386
     10       0.080436   0.008725   0.006531   0.000710  -0.049944  -0.063461
     11      -0.088556   0.009998  -0.076328   0.017082  -0.125413   0.005041
     12       0.019980  -0.076899   0.002856  -0.024987  -0.001690  -0.008432
     13       0.032744   0.011443  -0.056111   0.096019   0.045934  -0.091571
     14      -0.124612  -0.025991   0.026642   0.017045  -0.024620  -0.033891
     15      -0.098334   0.574518   0.097023  -0.147830  -0.074599  -0.346934
     16       0.003146   0.083869   0.015729  -0.028164  -0.013360  -0.056870
     17       0.052216  -0.287393  -0.060766   0.077006   0.035608   0.183423
     18       0.012268   0.153450   0.011658   0.041714  -0.007821   0.083122
     19      -0.410568   0.015863   0.263732  -0.354513  -0.183549   0.242516
     20       0.011723   0.002252  -0.059805   0.137051   0.039338  -0.110763
     21      -0.147904   0.024890   0.134639  -0.061941  -0.149705  -0.000173
     22       0.211370   0.282213   0.216277  -0.301809  -0.207123   0.189409
     23       0.256847  -0.003413  -0.020370  -0.160143   0.053478   0.133966
     24       0.081995   0.023224   0.147505  -0.032479   0.141563  -0.235289
     25      -0.217208  -0.035307   0.051683  -0.023439   0.263918   0.270712
     26      -0.138925  -0.000330   0.341465  -0.008676   0.405724  -0.159634
     27       0.025003   0.017537   0.063296   0.104750  -0.087516   0.030598
     28       0.052495   0.004761  -0.000346   0.017354  -0.074903  -0.049170
     29       0.243526   0.025042   0.340390  -0.016102   0.409244   0.147232
     30       0.004185  -0.022073  -0.160183   0.074152  -0.238910   0.236564
     31      -0.278915  -0.016388   0.067250   0.037750   0.191353   0.330584
     32      -0.326976   0.046966   0.166914  -0.125589   0.407553  -0.152718
     33       0.031740   0.025800  -0.160863   0.163022   0.168552  -0.048638
     34       0.279216  -0.075946   0.224465  -0.384012  -0.210255   0.188373
     35       0.225794   0.084361  -0.026114  -0.140375   0.063960   0.219368
                 24         25         26         27         28         29    
      0       0.002918   0.006599   0.012266  -0.044295  -0.063915   0.000655
      1      -0.026219   0.037316  -0.091201  -0.037849   0.026719  -0.000037
      2      -0.032534   0.037516  -0.004468   0.018150  -0.044910   0.002872
      3      -0.003065   0.006581  -0.018147  -0.000084  -0.001566   0.000183
      4       0.003617  -0.007879   0.017689   0.007091  -0.001428  -0.000038
      5       0.003697  -0.006145   0.006393  -0.002065   0.001119  -0.000119
      6      -0.029931  -0.002704   0.096087   0.082369   0.790404  -0.014418
      7       0.121185  -0.104405   0.189671   0.117096  -0.300443   0.005277
      8       0.099996  -0.025458   0.043050  -0.087407   0.520714  -0.013861
      9       0.025060   0.031050   0.014056  -0.018058   0.004537   0.004687
     10       0.010165  -0.003072  -0.026434  -0.015614  -0.002439  -0.023791
     11       0.012434  -0.011614   0.004458  -0.008219   0.000526  -0.044241
     12      -0.029836  -0.016513   0.013985  -0.029003   0.004032   0.000448
     13       0.009964  -0.013513   0.036547   0.016851   0.000066  -0.005592
     14      -0.021109   0.030059   0.010759   0.013822   0.002517   0.000206
     15       0.048031  -0.096332   0.209585   0.058126  -0.002824   0.000659
     16       0.006729  -0.014518   0.034031   0.011122  -0.000829   0.003240
     17      -0.021667   0.035289  -0.113692  -0.024395   0.005155  -0.001961
     18       0.437625   0.156964  -0.228438   0.470548   0.005629  -0.006981
     19       0.223422  -0.297920  -0.073270  -0.139198  -0.004917   0.013320
     20      -0.017060   0.116886   0.012025   0.112188  -0.025724   0.061351
     21      -0.136431   0.328700  -0.034106   0.177012  -0.031843  -0.058871
     22      -0.338300   0.156003   0.051157  -0.182056   0.010755   0.021697
     23      -0.049978  -0.397417   0.084062  -0.419754  -0.020849  -0.038210
     24      -0.064048  -0.027856  -0.317599  -0.056338  -0.025339  -0.433844
     25       0.229924   0.263316   0.441613  -0.117226  -0.016248  -0.210468
     26       0.062091   0.134850  -0.214842  -0.194104   0.008524   0.212559
     27      -0.381083  -0.412746  -0.220537   0.357804  -0.000100  -0.045963
     28      -0.018307  -0.033693  -0.050732   0.005787   0.040353   0.645451
     29      -0.024874  -0.047753   0.409599   0.204370   0.000185   0.019830
     30       0.009633  -0.033593   0.282384   0.092553  -0.030523   0.426624
     31      -0.264784  -0.286539   0.225351   0.401976   0.011041  -0.159332
     32      -0.125339  -0.081808  -0.269700   0.055555  -0.019020   0.279185
     33       0.186989  -0.268737   0.020378  -0.092162  -0.021067   0.060904
     34       0.055294   0.195784  -0.132369   0.226206  -0.007143   0.031976
     35       0.509183  -0.303860  -0.180060   0.103290   0.012131  -0.026531
                 30         31         32         33         34         35    
      0       0.000158  -0.001355   0.003077  -0.006154   0.002021  -0.001631
      1       0.002127   0.002589  -0.000276   0.002195  -0.000370   0.001506
      2      -0.000124  -0.001603   0.001670  -0.004054  -0.000949   0.000949
      3       0.000010  -0.000223  -0.000415   0.000422  -0.000426  -0.001917
      4       0.000050  -0.000414  -0.000181   0.000048  -0.000168   0.062226
      5      -0.000040   0.000077  -0.000146   0.000170   0.000255   0.003677
      6       0.002198   0.020970  -0.023455   0.052792  -0.007637  -0.002338
      7      -0.004267  -0.010205   0.007478  -0.020911   0.002469  -0.002235
      8       0.002315   0.014964  -0.016094   0.035503  -0.002614   0.001462
      9      -0.000191   0.006228   0.086620  -0.030814   0.009641  -0.000159
     10       0.004018   0.086012  -0.003107   0.001699   0.002028  -0.000632
     11       0.005427  -0.032709   0.009335  -0.002984   0.000005  -0.000041
     12       0.009857  -0.001304  -0.029942  -0.063597   0.059652   0.000424
     13      -0.049128  -0.000028  -0.002788  -0.005296   0.010869  -0.000300
     14       0.000977   0.002761  -0.013901  -0.059335  -0.070232  -0.000133
     15      -0.001338  -0.002977   0.001197   0.000034  -0.000830   0.051133
     16      -0.000915  -0.001857   0.001351  -0.000300   0.000015  -0.994268
     17       0.001124   0.003932   0.001255   0.000249   0.000632  -0.069902
     18      -0.059031   0.003283  -0.019641  -0.071319  -0.066858  -0.000372
     19       0.130256  -0.007846   0.027979   0.133132   0.176034  -0.000586
     20       0.510592  -0.028933   0.103461   0.485904   0.634994  -0.000227
     21      -0.508225   0.003990   0.211692   0.561872  -0.048790   0.000215
     22       0.197723  -0.002986  -0.085231  -0.231165   0.025816  -0.001033
     23      -0.329834   0.002076   0.138771   0.359668  -0.050975   0.000510
     24       0.044799  -0.447265  -0.498552   0.178179  -0.071342  -0.001701
     25       0.022119  -0.194602  -0.242115   0.086572  -0.032964  -0.000398
     26      -0.021991   0.219084   0.258096  -0.092704   0.037061   0.002308
     27       0.006214   0.056188   0.011185  -0.002273   0.001575   0.000027
     28      -0.087066  -0.739645   0.073638  -0.033939  -0.009192   0.002534
     29      -0.004829  -0.037292   0.004801  -0.002082  -0.000085  -0.001723
     30      -0.050572   0.317059  -0.551254   0.197390  -0.047573   0.000336
     31       0.018432  -0.096422   0.203840  -0.071133   0.018346   0.000432
     32      -0.034811   0.205525  -0.376575   0.137311  -0.033182  -0.000152
     33       0.448727   0.009765   0.163399   0.274930  -0.601543  -0.000590
     34       0.235105   0.004735   0.089461   0.153683  -0.327135   0.001064
     35      -0.196754  -0.004633  -0.076887  -0.135679   0.258238   0.000124


-----------
IR SPECTRUM
-----------

 Mode    freq (cm**-1)   T**2         TX         TY         TZ
-------------------------------------------------------------------
   6:       226.19    3.244673  ( -0.671939   0.186658  -1.660822)
   7:       270.75    1.245813  (  0.315761  -0.212331   1.049297)
   8:       309.14  102.203186  (  4.006618  -0.741480   9.252049)
   9:       357.51    1.912698  ( -0.183256   0.195194  -1.356840)
  10:       408.87    9.572019  (  2.010686   2.171381   0.902368)
  11:       477.22    6.102391  (  0.725859   0.848516  -2.203529)
  12:       813.05    2.936803  (  1.134887   1.009367  -0.793734)
  13:       898.31    0.225049  ( -0.078087  -0.458611  -0.092883)
  14:       918.20    3.412737  ( -1.460986  -0.830175   0.767506)
  15:       944.76   36.087625  ( -4.539045  -2.454020   3.076115)
  16:      1061.40   22.804608  ( -3.344275  -3.265263   0.979024)
  17:      1126.23   19.897852  ( -4.076471  -1.797106   0.225040)
  18:      1146.14   43.134459  ( -4.327670  -2.432235   4.299996)
  19:      1240.42   49.153040  (  5.675792   2.839164  -2.979526)
  20:      1318.70   11.397131  (  2.353143   0.728847  -2.308382)
  21:      1334.12    4.026249  (  1.052751  -0.465836  -1.643460)
  22:      1351.82   18.801623  ( -1.660257   0.035127   4.005488)
  23:      1377.06   18.782484  ( -1.251266   3.769816   1.733582)
  24:      1411.19    0.996302  (  0.966934  -0.063263   0.239456)
  25:      1418.48    3.402099  ( -1.568189   0.949329  -0.204099)
  26:      1430.43    4.933528  ( -0.232265   0.258485  -2.193802)
  27:      1441.14    3.565675  (  1.867979  -0.258209   0.098266)
  28:      2866.08   73.912104  ( -7.320293   1.680898  -4.183301)
  29:      2954.39   22.385580  (  0.689575  -3.016216  -3.579456)
  30:      2971.56   12.851036  (  0.476356  -3.541282   0.288866)
  31:      3036.42   28.761246  (  0.382405   5.061424  -1.731185)
  32:      3053.68    8.623542  (  2.914529  -0.304424  -0.190760)
  33:      3060.84   32.886424  ( -4.842691  -0.117360  -3.069363)
  34:      3069.88   20.807202  (  3.256671   0.235757  -3.185234)
  35:      3692.62   10.079913  ( -0.623022  -3.069748   0.518079)

The first frequency considered to be a vibration is 6
The total number of vibrations considered is 30


--------------------------
THERMOCHEMISTRY AT 298.15K
--------------------------

Temperature         ... 298.15 K
Pressure            ... 1.00 atm
Total Mass          ... 60.10 AMU

Throughout the following assumptions are being made:
  (1) The electronic state is orbitally nondegenerate
  (2) There are no thermally accessible electronically excited states
  (3) Hindered rotations indicated by low frequency modes are not
      treated as such but are treated as vibrations and this may
      cause some error
  (4) All equations used are the standard statistical mechanics
      equations for an ideal gas
  (5) All vibrations are strictly harmonic

freq.     226.19  E(vib)   ...       0.33 
freq.     270.75  E(vib)   ...       0.29 
freq.     309.14  E(vib)   ...       0.26 
freq.     357.51  E(vib)   ...       0.22 
freq.     408.87  E(vib)   ...       0.19 
freq.     477.22  E(vib)   ...       0.15 
freq.     813.05  E(vib)   ...       0.05 
freq.     898.31  E(vib)   ...       0.03 
freq.     918.20  E(vib)   ...       0.03 
freq.     944.76  E(vib)   ...       0.03 
freq.    1061.40  E(vib)   ...       0.02 
freq.    1126.23  E(vib)   ...       0.01 
freq.    1146.14  E(vib)   ...       0.01 
freq.    1240.42  E(vib)   ...       0.01 
freq.    1318.70  E(vib)   ...       0.01 
freq.    1334.12  E(vib)   ...       0.01 
freq.    1351.82  E(vib)   ...       0.01 
freq.    1377.06  E(vib)   ...       0.01 
freq.    1411.19  E(vib)   ...       0.00 
freq.    1418.48  E(vib)   ...       0.00 
freq.    1430.43  E(vib)   ...       0.00 
freq.    1441.14  E(vib)   ...       0.00 
freq.    2866.08  E(vib)   ...       0.00 
freq.    2954.39  E(vib)   ...       0.00 
freq.    2971.56  E(vib)   ...       0.00 
freq.    3036.42  E(vib)   ...       0.00 
freq.    3053.68  E(vib)   ...       0.00 
freq.    3060.84  E(vib)   ...       0.00 
freq.    3069.88  E(vib)   ...       0.00 
freq.    3692.62  E(vib)   ...       0.00 

------------
INNER ENERGY
------------

The inner energy is: U= E(el) + E(ZPE) + E(vib) + E(rot) + E(trans)
    E(el)   - is the total energy from the electronic structure calculation
              = E(kin-el) + E(nuc-el) + E(el-el) + E(nuc-nuc)
    E(ZPE)  - the the zero temperature vibrational energy from the frequency calculation
    E(vib)  - the the finite temperature correction to E(ZPE) due to population
              of excited vibrational states
    E(rot)  - is the rotational thermal energy
    E(trans)- is the translational thermal energy

Summary of contributions to the inner energy U:
Electronic energy                ...   -194.16451007 Eh
Zero point energy                ...      0.10476513 Eh      65.74 kcal/mol
Thermal vibrational correction   ...      0.00265897 Eh       1.67 kcal/mol
Thermal rotational correction    ...      0.00141627 Eh       0.89 kcal/mol
Thermal translational correction ...      0.00141627 Eh       0.89 kcal/mol
-----------------------------------------------------------------------
Total thermal energy                   -194.05425342 Eh


Summary of corrections to the electronic energy:
(perhaps to be used in another calculation)
Total thermal correction                  0.00549152 Eh       3.45 kcal/mol
Non-thermal (ZPE) correction              0.10476513 Eh      65.74 kcal/mol
-----------------------------------------------------------------------
Total correction                          0.11025665 Eh      69.19 kcal/mol


--------
ENTHALPY
--------

The enthalpy is H = U + kB*T
                kB is Boltzmann's constant
Total free energy                 ...   -194.05425342 Eh 
Thermal Enthalpy correction       ...      0.00094421 Eh       0.59 kcal/mol
-----------------------------------------------------------------------
Total Enthalpy                    ...   -194.05330921 Eh


Note: Only C1 symmetry has been detected, increase convergence thresholds 
      if your molecule has a higher symmetry. Symmetry factor of 1.0 is   
      used for the rotational entropy correction. 
 

Note: Rotational entropy computed according to Herzberg 
Infrared and Raman Spectra, Chapter V,1, Van Nostrand Reinhold, 1945 
Point Group:  C1, Symmetry Number:   1  
Rotational constants in cm-1:     0.285550     0.263914     0.156837 

Vibrational entropy computed according to the QRRHO of S. Grimme
Chem.Eur.J. 2012 18 9955


-------
ENTROPY
-------

The entropy contributions are T*S = T*(S(el)+S(vib)+S(rot)+S(trans))
     S(el)   - electronic entropy
     S(vib)  - vibrational entropy
     S(rot)  - rotational entropy
     S(trans)- translational entropy
The entropies will be listed as mutliplied by the temperature to get
units of energy

Electronic entropy                ...      0.00000000 Eh      0.00 kcal/mol
Vibrational entropy               ...      0.00409762 Eh      2.57 kcal/mol
Rotational entropy                ...      0.01160596 Eh      7.28 kcal/mol
Translational entropy             ...      0.01815004 Eh     11.39 kcal/mol
-----------------------------------------------------------------------
Final entropy term                ...      0.03385362 Eh     21.24 kcal/mol

In case the symmetry of your molecule has not been determined correctly
or in case you have a reason to use a different symmetry number we print 
out the resulting rotational entropy values for sn=1,12 :
 --------------------------------------------------------
|  sn= 1 | S(rot)=       0.01160596 Eh      7.28 kcal/mol|
|  sn= 2 | S(rot)=       0.01095150 Eh      6.87 kcal/mol|
|  sn= 3 | S(rot)=       0.01056867 Eh      6.63 kcal/mol|
|  sn= 4 | S(rot)=       0.01029704 Eh      6.46 kcal/mol|
|  sn= 5 | S(rot)=       0.01008636 Eh      6.33 kcal/mol|
|  sn= 6 | S(rot)=       0.00991421 Eh      6.22 kcal/mol|
|  sn= 7 | S(rot)=       0.00976867 Eh      6.13 kcal/mol|
|  sn= 8 | S(rot)=       0.00964259 Eh      6.05 kcal/mol|
|  sn= 9 | S(rot)=       0.00953138 Eh      5.98 kcal/mol|
|  sn=10 | S(rot)=       0.00943190 Eh      5.92 kcal/mol|
|  sn=11 | S(rot)=       0.00934191 Eh      5.86 kcal/mol|
|  sn=12 | S(rot)=       0.00925976 Eh      5.81 kcal/mol|
 --------------------------------------------------------


-------------------
GIBBS FREE ENERGY
-------------------

The Gibbs free energy is G = H - T*S

Total enthalpy                    ...   -194.05330921 Eh 
Total entropy correction          ...     -0.03385362 Eh    -21.24 kcal/mol
-----------------------------------------------------------------------
Final Gibbs free energy         ...   -194.08716283 Eh

For completeness - the Gibbs free energy minus the electronic energy
G-E(el)                           ...      0.07734724 Eh     48.54 kcal/mol


Timings for individual modules:

Sum of individual times         ...       81.916 sec (=   1.365 min)
GTO integral calculation        ...        4.433 sec (=   0.074 min)   5.4 %
SCF iterations                  ...       33.263 sec (=   0.554 min)  40.6 %
SCF Gradient evaluation         ...       14.097 sec (=   0.235 min)  17.2 %
Geometry relaxation             ...        0.421 sec (=   0.007 min)   0.5 %
Analytical frequency calculation...       29.702 sec (=   0.495 min)  36.3 %
                             ****ORCA TERMINATED NORMALLY****
TOTAL RUN TIME: 0 days 0 hours 1 minutes 23 seconds 168 msec
