
                                 *****************
                                 * O   R   C   A *
                                 *****************

           --- An Ab Initio, DFT and Semiempirical electronic structure package ---

                  #######################################################
                  #                        -***-                        #
                  #          Department of theory and spectroscopy      #
                  #               Directorship: Frank Neese             #
                  #        Max Planck Institute fuer Kohlenforschung    #
                  #                Kaiser Wilhelm Platz 1               #
                  #                 D-45470 Muelheim/Ruhr               #
                  #                      Germany                        #
                  #                                                     #
                  #                  All rights reserved                #
                  #                        -***-                        #
                  #######################################################


                         Program Version 4.2.1 -  RELEASE  -


 With contributions from (in alphabetic order):
   Daniel Aravena         : Magnetic Suceptibility
   Michael Atanasov       : Ab Initio Ligand Field Theory (pilot matlab implementation)
   Alexander A. Auer      : GIAO ZORA, VPT2
   Ute Becker             : Parallelization
   Giovanni Bistoni       : ED, misc. LED, open-shell LED, HFLD
   Martin Brehm           : Molecular dynamics
   Dmytro Bykov           : SCF Hessian
   Vijay G. Chilkuri      : MRCI spin determinant printing, contributions to CSF-ICE
   Dipayan Datta          : RHF DLPNO-CCSD density
   Achintya Kumar Dutta   : EOM-CC, STEOM-CC
   Dmitry Ganyushin       : Spin-Orbit,Spin-Spin,Magnetic field MRCI
   Miquel Garcia          : C-PCM Hessian, Gaussian charge scheme
   Yang Guo               : DLPNO-NEVPT2, CIM, IAO-localization
   Andreas Hansen         : Spin unrestricted coupled pair/coupled cluster methods
   Benjamin Helmich-Paris : CASSCF linear response (MC-RPA)
   Lee Huntington         : MR-EOM, pCC
   Robert Izsak           : Overlap fitted RIJCOSX, COSX-SCS-MP3, EOM
   Christian Kollmar      : KDIIS, OOCD, Brueckner-CCSD(T), CCSD density
   Simone Kossmann        : Meta GGA functionals, TD-DFT gradient, OOMP2, MP2 Hessian
   Martin Krupicka        : AUTO-CI
   Lucas Lang             : DCDCAS
   Dagmar Lenk            : GEPOL surface, SMD
   Dimitrios Liakos       : Extrapolation schemes; Compound Job, initial MDCI parallelization
   Dimitrios Manganas     : Further ROCIS development; embedding schemes
   Dimitrios Pantazis     : SARC Basis sets
   Taras Petrenko         : DFT Hessian,TD-DFT gradient, ASA, ECA, R-Raman, ABS, FL, XAS/XES, NRVS
   Peter Pinski           : DLPNO-MP2, DLPNO-MP2 Gradient
   Christoph Reimann      : Effective Core Potentials
   Marius Retegan         : Local ZFS, SOC
   Christoph Riplinger    : Optimizer, TS searches, QM/MM, DLPNO-CCSD(T), (RO)-DLPNO pert. Triples
   Tobias Risthaus        : Range-separated hybrids, TD-DFT gradient, RPA, STAB
   Michael Roemelt        : Original ROCIS implementation
   Masaaki Saitow         : Open-shell DLPNO-CCSD energy and density
   Barbara Sandhoefer     : DKH picture change effects
   Avijit Sen             : IP-ROCIS
   Kantharuban Sivalingam : CASSCF convergence, NEVPT2, FIC-MRCI
   Bernardo de Souza      : ESD, SOC TD-DFT
   Georgi Stoychev        : AutoAux, RI-MP2 NMR
   Willem Van den Heuvel  : Paramagnetic NMR
   Boris Wezisla          : Elementary symmetry handling
   Frank Wennmohs         : Technical directorship


 We gratefully acknowledge several colleagues who have allowed us to
 interface, adapt or use parts of their codes:
   Stefan Grimme, W. Hujo, H. Kruse,             : VdW corrections, initial TS optimization,
                  C. Bannwarth                     DFT functionals, gCP, sTDA/sTD-DF
   Ed Valeev, F. Pavosevic, A. Kumar             : LibInt (2-el integral package), F12 methods
   Garnet Chan, S. Sharma, J. Yang, R. Olivares  : DMRG
   Ulf Ekstrom                                   : XCFun DFT Library
   Mihaly Kallay                                 : mrcc  (arbitrary order and MRCC methods)
   Andreas Klamt, Michael Diedenhofen            : otool_cosmo (COSMO solvation model)
   Jiri Pittner, Ondrej Demel                    : Mk-CCSD
   Frank Weinhold                                : gennbo (NPA and NBO analysis)
   Christopher J. Cramer and Donald G. Truhlar   : smd solvation model
   Lars Goerigk                                  : TD-DFT with DH, B97 family of functionals
   V. Asgeirsson, H. Jonsson                     : NEB implementation
   FAccTs GmbH                                   : IRC, NEB, NEB-TS, Multilevel, MM, QM/MM, CI optimization
   S Lehtola, MJT Oliveira, MAL Marques          : LibXC Library


 Your calculation uses the libint2 library for the computation of 2-el integrals
 For citations please refer to: http://libint.valeyev.net

 Your ORCA version has been built with support for libXC version: 4.2.3
 For citations please refer to: https://tddft.org/programs/libxc/

 This ORCA versions uses:
   CBLAS   interface :  Fast vector & matrix operations
   LAPACKE interface :  Fast linear algebra routines
   SCALAPACK package :  Parallel linear algebra routines




***************************************
The coordinates will be read from file: init.xyz
***************************************


Your calculation utilizes the geometrical counterpoise correction gCP
Please cite in your paper:
H.Kruse, S. Grimme J.Chem.Phys., 136, (2012), 154101 
   

Your calculation utilizes the atom-pairwise dispersion correction
based on tight binding partial charges (D4)
Cite in your paper:
E.Caldeweyher, C.Bannwarth, S.Grimme, J.Chem.Phys., (2017), 147, 034112.
E.Caldeweyher, S.Ehlert, A.Hansen, H.Neugebauer, S.Grimme, J.Chem.Phys., (2018), in progress.
   

----- Orbital basis set information -----
Your calculation utilizes the basis: def2-SVP
   F. Weigend and R. Ahlrichs, Phys. Chem. Chem. Phys. 7, 3297 (2005).

----- AuxJ basis set information -----
Your calculation utilizes the auxiliary basis: def2/J
   F. Weigend, Phys. Chem. Chem. Phys. 8, 1057 (2006).

================================================================================
                                        WARNINGS
                       Please study these warnings very carefully!
================================================================================


WARNING: Geometry Optimization
  ===> : Switching off AutoStart
         For restart on a previous wavefunction, please use MOREAD

INFO   : the flag for use of LIBINT has been found!

================================================================================
                                       INPUT FILE
================================================================================
NAME = opt.inp
|  1> ! revPBE D4 gCP(DFT/TZ) def2-SVP Opt Freq TightOpt TightSCF Grid4 FinalGrid5 LargePrint
|  2> 
|  3> %pal
|  4>  nprocs 8
|  5> end
|  6> 
|  7> *xyzfile 0 1 init.xyz
|  8> 
|  9>                          ****END OF INPUT****
================================================================================

                       *****************************
                       * Geometry Optimization Run *
                       *****************************

Geometry optimization settings:
Update method            Update   .... BFGS
Choice of coordinates    CoordSys .... Z-matrix Internals
Initial Hessian          InHess   .... Almoef's Model

Convergence Tolerances:
Energy Change            TolE     ....  1.0000e-06 Eh
Max. Gradient            TolMAXG  ....  1.0000e-04 Eh/bohr
RMS Gradient             TolRMSG  ....  3.0000e-05 Eh/bohr
Max. Displacement        TolMAXD  ....  1.0000e-03 bohr
RMS Displacement         TolRMSD  ....  6.0000e-04 bohr
Strict Convergence                ....  False
------------------------------------------------------------------------------
                        ORCA OPTIMIZATION COORDINATE SETUP
------------------------------------------------------------------------------

The optimization will be done in new redundant internal coordinates
Making redundant internal coordinates   ...  (new redundants) done
Evaluating the initial hessian          ...  (Almloef) done
Evaluating the coordinates              ...  done
Calculating the B-matrix                .... done
Calculating the G-matrix                .... done
Diagonalizing the G-matrix              .... done
The first mode is                       ....    7
The number of degrees of freedom        ....   18

    -----------------------------------------------------------------
                    Redundant Internal Coordinates


    -----------------------------------------------------------------
         Definition                    Initial Value    Approx d2E/dq
    -----------------------------------------------------------------
      1. B(O   1,C   0)                  1.3495         0.649429   
      2. B(H   2,O   1)                  0.9678         0.505282   
      3. B(O   3,C   0)                  1.2220         1.037461   
      4. B(C   4,C   0)                  1.4951         0.424667   
      5. B(H   5,C   4)                  1.1099         0.334710   
      6. B(H   6,C   4)                  1.1111         0.333274   
      7. B(H   7,C   4)                  1.1099         0.334711   
      8. A(O   1,C   0,O   3)          120.1369         0.474379   
      9. A(O   1,C   0,C   4)          119.7267         0.406450   
     10. A(O   3,C   0,C   4)          120.1364         0.441957   
     11. A(C   0,O   1,H   2)          121.1271         0.371248   
     12. A(C   0,C   4,H   6)          110.7862         0.327038   
     13. A(H   5,C   4,H   6)          108.9067         0.284078   
     14. A(C   0,C   4,H   5)          109.5007         0.327270   
     15. A(H   5,C   4,H   7)          109.2151         0.284268   
     16. A(H   6,C   4,H   7)          108.9067         0.284078   
     17. A(C   0,C   4,H   7)          109.4999         0.327270   
     18. D(H   2,O   1,C   0,C   4)    179.9997         0.031166   
     19. D(H   2,O   1,C   0,O   3)     -0.0003         0.031166   
     20. D(H   5,C   4,C   0,O   1)    -59.8614         0.013327   
     21. D(H   6,C   4,C   0,O   1)    179.9994         0.013327   
     22. D(H   6,C   4,C   0,O   3)     -0.0006         0.013327   
     23. D(H   7,C   4,C   0,O   1)     59.8607         0.013327   
     24. D(H   7,C   4,C   0,O   3)   -120.1393         0.013327   
     25. D(H   5,C   4,C   0,O   3)    120.1387         0.013327   
    -----------------------------------------------------------------

Number of atoms                         .... 8
Number of degrees of freedom            .... 25

         *************************************************************
         *                GEOMETRY OPTIMIZATION CYCLE   1            *
         *************************************************************
---------------------------------
CARTESIAN COORDINATES (ANGSTROEM)
---------------------------------
  C     -8.396200    2.034990   -1.482070
  O     -7.428230    1.402080   -2.177440
  H     -6.745470    0.884760   -1.727060
  O     -8.423090    1.962130   -0.262580
  C     -9.435600    2.825720   -2.209900
  H     -8.945970    3.633670   -2.792450
  H    -10.155380    3.281560   -1.496730
  H     -9.989620    2.159530   -2.903540

----------------------------
CARTESIAN COORDINATES (A.U.)
----------------------------
  NO LB      ZA    FRAG     MASS         X           Y           Z
   0 C     6.0000    0    12.011  -15.866519    3.845574   -2.800706
   1 O     8.0000    0    15.999  -14.037320    2.649547   -4.114765
   2 H     1.0000    0     1.008  -12.747091    1.671954   -3.263670
   3 O     8.0000    0    15.999  -15.917333    3.707888   -0.496204
   4 C     6.0000    0    12.011  -17.830700    5.339837   -4.176106
   5 H     1.0000    0     1.008  -16.905433    6.866641   -5.276966
   6 H     1.0000    0     1.008  -19.190887    6.201250   -2.828410
   7 H     1.0000    0     1.008  -18.877646    4.080920   -5.486895

--------------------------------
INTERNAL COORDINATES (ANGSTROEM)
--------------------------------
 C      0   0   0     0.000000000000     0.00000000     0.00000000
 O      1   0   0     1.349474129393     0.00000000     0.00000000
 H      2   1   0     0.967793027667   121.12710259     0.00000000
 O      1   2   3     1.221960519739   120.13689055     0.00000000
 C      1   2   3     1.495106284449   119.72670669   179.99970201
 H      5   1   2     1.109903257901   109.50070898   300.13864938
 H      5   1   2     1.111073716231   110.78616364   179.99941159
 H      5   1   2     1.109902575049   109.49990548    59.86069888

---------------------------
INTERNAL COORDINATES (A.U.)
---------------------------
 C      0   0   0     0.000000000000     0.00000000     0.00000000
 O      1   0   0     2.550136529364     0.00000000     0.00000000
 H      2   1   0     1.828863776608   121.12710259     0.00000000
 O      1   2   3     2.309170728770   120.13689055     0.00000000
 C      1   2   3     2.825341418714   119.72670669   179.99970201
 H      5   1   2     2.097413192580   109.50070898   300.13864938
 H      5   1   2     2.099625038275   110.78616364   179.99941159
 H      5   1   2     2.097411902176   109.49990548    59.86069888

---------------------
BASIS SET INFORMATION
---------------------
There are 3 groups of distinct atoms

 Group   1 Type C   : 7s4p1d contracted to 3s2p1d pattern {511/31/1}
 Group   2 Type O   : 7s4p1d contracted to 3s2p1d pattern {511/31/1}
 Group   3 Type H   : 4s1p contracted to 2s1p pattern {31/1}

Atom   0C    basis set group =>   1
Atom   1O    basis set group =>   2
Atom   2H    basis set group =>   3
Atom   3O    basis set group =>   2
Atom   4C    basis set group =>   1
Atom   5H    basis set group =>   3
Atom   6H    basis set group =>   3
Atom   7H    basis set group =>   3

-------------------------
BASIS SET IN INPUT FORMAT
-------------------------

 # Basis set for element : H 
 NewGTO H 
 S 3 
   1      13.0107010000      0.0334854848
   2       1.9622572000      0.2347218709
   3       0.4445379600      0.8137702853
 S 1 
   1       0.1219496200      1.0000000000
 P 1 
   1       0.8000000000      1.0000000000
  end;

 # Basis set for element : C 
 NewGTO C 
 S 5 
   1    1238.4016938000      0.0055173650
   2     186.2900499200      0.0410888285
   3      42.2511763460      0.1822538213
   4      11.6765579320      0.4682845944
   5       3.5930506482      0.4457581734
 S 1 
   1       0.4024514736      1.0000000000
 S 1 
   1       0.1309018267      1.0000000000
 P 3 
   1       9.4680970621      0.0568883320
   2       2.0103545142      0.3129405934
   3       0.5477100471      0.7606501651
 P 1 
   1       0.1526861379      1.0000000000
 D 1 
   1       0.8000000000      1.0000000000
  end;

 # Basis set for element : O 
 NewGTO O 
 S 5 
   1    2266.1767785000     -0.0053893504
   2     340.8701019100     -0.0402347214
   3      77.3631351670     -0.1800818421
   4      21.4796449400     -0.4682885766
   5       6.6589433124     -0.4469261716
 S 1 
   1       0.8097597567      1.0000000000
 S 1 
   1       0.2553077223      1.0000000000
 P 3 
   1      17.7215043170      0.0626302488
   2       3.8635505440      0.3333113849
   3       1.0480920883      0.7414863830
 P 1 
   1       0.2764154441      1.0000000000
 D 1 
   1       1.2000000000      1.0000000000
  end;

---------------------------------
AUXILIARY/J BASIS SET INFORMATION
---------------------------------
There are 3 groups of distinct atoms

 Group   1 Type C   : 12s5p4d2f1g contracted to 6s4p3d1f1g pattern {711111/2111/211/2/1}
 Group   2 Type O   : 12s5p4d2f1g contracted to 6s4p3d1f1g pattern {711111/2111/211/2/1}
 Group   3 Type H   : 5s2p1d contracted to 3s1p1d pattern {311/2/1}

Atom   0C    basis set group =>   1
Atom   1O    basis set group =>   2
Atom   2H    basis set group =>   3
Atom   3O    basis set group =>   2
Atom   4C    basis set group =>   1
Atom   5H    basis set group =>   3
Atom   6H    basis set group =>   3
Atom   7H    basis set group =>   3

-------------------------------------
AUXILIARY/J BASIS SET IN INPUT FORMAT
-------------------------------------

 # Auxiliary/J basis set for element : H 
 NewAuxJGTO H 
 S 3 
   1      15.6752927000      0.1007184237
   2       3.6063578000      0.3404257499
   3       1.2080016000      0.6491996172
 S 1 
   1       0.4726794000      1.0000000000
 S 1 
   1       0.2018100000      1.0000000000
 P 2 
   1       2.0281365000      0.5596620919
   2       0.5358730000      0.5596620919
 D 1 
   1       2.2165124000      1.0000000000
  end;

 # Auxiliary/J basis set for element : C 
 NewAuxJGTO C 
 S 7 
   1    1861.0916331000      0.0134602335
   2     642.9939764000      0.0299160374
   3     235.1105725000      0.1008649584
   4      90.7028894000      0.2370970548
   5      36.7794552000      0.3924037254
   6      15.6046273000      0.3195862154
   7       6.8907294000      0.0530104441
 S 1 
   1       3.1478850000     -1.0000000000
 S 1 
   1       1.4777287000      1.0000000000
 S 1 
   1       0.7076466000      1.0000000000
 S 1 
   1       0.3430122000      1.0000000000
 S 1 
   1       0.1669453000      1.0000000000
 P 2 
   1      13.5472892000     -0.6769313712
   2       5.4669419000     -0.3779500978
 P 1 
   1       2.1751721000      1.0000000000
 P 1 
   1       0.8582194000      1.0000000000
 P 1 
   1       0.3376720000      1.0000000000
 D 2 
   1       5.9287253000     -0.3533329857
   2       1.9809209000     -0.7456525731
 D 1 
   1       0.8055417000     -1.0000000000
 D 1 
   1       0.3531244000     -1.0000000000
 F 2 
   1       1.6755626000      0.6311076882
   2       0.5997536000      0.4968166032
 G 1 
   1       1.0024600000     -1.0000000000
  end;

 # Auxiliary/J basis set for element : O 
 NewAuxJGTO O 
 S 7 
   1    2876.8216605000      0.0168151159
   2    1004.7443032000      0.0340137548
   3     369.7579954000      0.1194951309
   4     142.9442404000      0.2664627624
   5      57.8366425000      0.4202764046
   6      24.3864983000      0.2765077335
   7      10.6622662000      0.0057008815
 S 1 
   1       4.8070437000     -1.0000000000
 S 1 
   1       2.2210770000      1.0000000000
 S 1 
   1       1.0447795000      1.0000000000
 S 1 
   1       0.4968425000      1.0000000000
 S 1 
   1       0.2371384000      1.0000000000
 P 2 
   1      64.2613382000     -0.2731534179
   2      16.3006076000     -0.8168011598
 P 1 
   1       4.3550542000      1.0000000000
 P 1 
   1       1.2019554000      1.0000000000
 P 1 
   1       0.3354196000      1.0000000000
 D 2 
   1       9.2146611000     -0.4661230638
   2       2.8435251000     -0.6600908911
 D 1 
   1       0.9955759000     -1.0000000000
 D 1 
   1       0.3649441000     -1.0000000000
 F 2 
   1       2.6420115000      0.5931563945
   2       0.7345613000      0.5931563945
 G 1 
   1       1.3931000000     -1.0000000000
  end;



           ************************************************************
           *        Program running with 8 parallel MPI-processes     *
           *              working on a common directory               *
           ************************************************************
------------------------------------------------------------------------------
                           ORCA GTO INTEGRAL CALCULATION
                           -- RI-GTO INTEGRALS CHOSEN --
------------------------------------------------------------------------------

                         BASIS SET STATISTICS AND STARTUP INFO

Gaussian basis set:
 # of primitive gaussian shells          ...   68
 # of primitive gaussian functions       ...  124
 # of contracted shells                  ...   36
 # of contracted basis functions         ...   76
 Highest angular momentum                ...    2
 Maximum contraction depth               ...    5
Auxiliary gaussian basis set:
 # of primitive gaussian shells          ...  128
 # of primitive gaussian functions       ...  344
 # of contracted shells                  ...   80
 # of contracted aux-basis functions     ...  240
 Highest angular momentum                ...    4
 Maximum contraction depth               ...    7
Ratio of auxiliary to basis functions    ...  3.16
Integral package used                  ... LIBINT
 One Electron integrals                  ... done
 Ordering auxiliary basis shells         ... done
 Integral threshhold             Thresh  ...  2.500e-11
 Primitive cut-off               TCut    ...  2.500e-12
 Pre-screening matrix                    ... done
 Shell pair data                         ... 
 Ordering of the shell pairs             ... done (   0.000 sec) 662 of 666 pairs
 Determination of significant pairs      ... done (   0.000 sec)
 Creation of shell pair data             ... done (   0.000 sec)
 Storage of shell pair data              ... done (   0.020 sec)
 Shell pair data done in (   0.020 sec)
 Computing two index integrals           ... done
 Cholesky decomposition of the V-matrix  ... done


Timings:
 Total evaluation time                   ...   0.142 sec (  0.002 min)
 One electron matrix time                ...   0.007 sec (  0.000 min) =  5.0%
 Schwartz matrix evaluation time         ...   0.089 sec (  0.001 min) = 62.9%
 Two index repulsion integral time       ...   0.002 sec (  0.000 min) =  1.2%
 Cholesky decomposition of V             ...   0.002 sec (  0.000 min) =  1.5%
 Three index repulsion integral time     ...   0.000 sec (  0.000 min) =  0.0%



           ************************************************************
           *        Program running with 8 parallel MPI-processes     *
           *              working on a common directory               *
           ************************************************************
-------------------------------------------------------------------------------
                                 ORCA SCF
-------------------------------------------------------------------------------

------------
SCF SETTINGS
------------
Hamiltonian:
 Density Functional     Method          .... DFT(GTOs)
 Exchange Functional    Exchange        .... PBE
   PBE kappa parameter   XKappa         ....  1.245000
   PBE mue parameter    XMuePBE         ....  0.219520
 Correlation Functional Correlation     .... PBE
   PBE beta parameter  CBetaPBE         ....  0.066725
 LDA part of GGA corr.  LDAOpt          .... PW91-LDA
 Gradients option       PostSCFGGA      .... off
   Density functional embedding theory  .... OFF
   NL short-range parameter             ....  3.700000
 RI-approximation to the Coulomb term is turned on
   Number of auxiliary basis functions  .... 240


General Settings:
 Integral files         IntName         .... opt
 Hartree-Fock type      HFTyp           .... RHF
 Total Charge           Charge          ....    0
 Multiplicity           Mult            ....    1
 Number of Electrons    NEL             ....   32
 Basis Dimension        Dim             ....   76
 Nuclear Repulsion      ENuc            ....    120.2983862132 Eh

Convergence Acceleration:
 DIIS                   CNVDIIS         .... on
   Start iteration      DIISMaxIt       ....    12
   Startup error        DIISStart       ....  0.200000
   # of expansion vecs  DIISMaxEq       ....     5
   Bias factor          DIISBfac        ....   1.050
   Max. coefficient     DIISMaxC        ....  10.000
 Newton-Raphson         CNVNR           .... off
 SOSCF                  CNVSOSCF        .... on
   Start iteration      SOSCFMaxIt      ....   150
   Startup grad/error   SOSCFStart      ....  0.003300
 Level Shifting         CNVShift        .... on
   Level shift para.    LevelShift      ....    0.2500
   Turn off err/grad.   ShiftErr        ....    0.0010
 Zerner damping         CNVZerner       .... off
 Static damping         CNVDamp         .... on
   Fraction old density DampFac         ....    0.7000
   Max. Damping (<1)    DampMax         ....    0.9800
   Min. Damping (>=0)   DampMin         ....    0.0000
   Turn off err/grad.   DampErr         ....    0.1000
 Fernandez-Rico         CNVRico         .... off

SCF Procedure:
 Maximum # iterations   MaxIter         ....   125
 SCF integral mode      SCFMode         .... Direct
   Integral package                     .... LIBINT
 Reset frequency        DirectResetFreq ....    20
 Integral Threshold     Thresh          ....  2.500e-11 Eh
 Primitive CutOff       TCut            ....  2.500e-12 Eh

Convergence Tolerance:
 Convergence Check Mode ConvCheckMode   .... Total+1el-Energy
 Convergence forced     ConvForced      .... 0
 Energy Change          TolE            ....  1.000e-08 Eh
 1-El. energy change                    ....  1.000e-05 Eh
 Orbital Gradient       TolG            ....  1.000e-05
 Orbital Rotation angle TolX            ....  1.000e-05
 DIIS Error             TolErr          ....  5.000e-07


Diagonalization of the overlap matrix:
Smallest eigenvalue                        ... 3.425e-03
Time for diagonalization                   ...    0.002 sec
Threshold for overlap eigenvalues          ... 1.000e-08
Number of eigenvalues below threshold      ... 0
Time for construction of square roots      ...    0.001 sec
Total time needed                          ...    0.003 sec

-------------------
DFT GRID GENERATION
-------------------

General Integration Accuracy     IntAcc      ...  4.670
Radial Grid Type                 RadialGrid  ... Gauss-Chebyshev
Angular Grid (max. acc.)         AngularGrid ... Lebedev-302
Angular grid pruning method      GridPruning ... 3 (G Style)
Weight generation scheme         WeightScheme... Becke
Basis function cutoff            BFCut       ...    1.0000e-11
Integration weight cutoff        WCut        ...    1.0000e-14
Grids for H and He will be reduced by one unit

# of grid points (after initial pruning)     ...  38424 (   0.0 sec)
# of grid points (after weights+screening)   ...  36794 (   0.0 sec)
nearest neighbour list constructed           ...    0.0 sec
Grid point re-assignment to atoms done       ...    0.0 sec
Grid point division into batches done        ...    0.1 sec
Reduced shell lists constructed in    0.2 sec

Total number of grid points                  ...    36794
Total number of batches                      ...      578
Average number of points per batch           ...       63
Average number of grid points per atom       ...     4599
Average number of shells per batch           ...    31.43 (87.31%)
Average number of basis functions per batch  ...    67.46 (88.76%)
Average number of large shells per batch     ...    29.16 (92.78%)
Average number of large basis fcns per batch ...    62.86 (93.19%)
Maximum spatial batch extension              ...  10.66, 12.78, 17.30 au
Average spatial batch extension              ...   0.23,  0.24,  0.25 au

Time for grid setup =    0.207 sec

------------------------------
INITIAL GUESS: MODEL POTENTIAL
------------------------------
Loading Hartree-Fock densities                     ... done
Calculating cut-offs                               ... done
Setting up the integral package                    ... done
Initializing the effective Hamiltonian             ... done
Starting the Coulomb interaction                   ... done (   0.0 sec)
Reading the grid                                   ... done
Mapping shells                                     ... done
Starting the XC term evaluation                    ... done (   0.0 sec)
  promolecular density results
     # of electrons  =     31.998044716
     EX              =    -27.868939968
     EC              =     -1.053086801
     EX+EC           =    -28.922026770
Transforming the Hamiltonian                       ... done (   0.0 sec)
Diagonalizing the Hamiltonian                      ... done (   0.0 sec)
Back transforming the eigenvectors                 ... done (   0.0 sec)
Now organizing SCF variables                       ... done
                      ------------------
                      INITIAL GUESS DONE (   0.3 sec)
                      ------------------
----------------------
INITIAL GUESS ORBITALS
----------------------
                      0         1         2         3         4         5   
                 -18.96775 -18.95277 -10.08252 -10.06008  -1.10153  -1.02935
                   2.00000   2.00000   2.00000   2.00000   2.00000   2.00000
                  --------  --------  --------  --------  --------  --------
  0C   1s        -0.000154  0.000278 -0.000035 -0.987932  0.151646  0.024426
  0C   2s        -0.000750  0.001592 -0.002499 -0.049711 -0.298999 -0.049140
  0C   3s        -0.004747  0.008527  0.010202  0.017074 -0.007590 -0.004621
  0C   1pz        0.000228 -0.000662  0.000797 -0.001805 -0.097502 -0.191573
  0C   1px       -0.000113 -0.000159  0.001205 -0.000425 -0.049131  0.084676
  0C   1py        0.000063  0.000163 -0.000913  0.000437  0.042131 -0.045513
  0C   2pz        0.007906  0.016803 -0.001122 -0.010060 -0.022124 -0.006879
  0C   2px       -0.009959 -0.000155 -0.002603 -0.012419 -0.012861  0.019691
  0C   2py        0.006455 -0.001156  0.001927  0.009551  0.010774 -0.013424
  0C   1dz2      -0.000050 -0.001724  0.000147 -0.002106 -0.017638 -0.021931
  0C   1dxz      -0.000847  0.000186 -0.000878  0.000583  0.006962 -0.007073
  0C   1dyz       0.000579  0.000074  0.000691  0.000032 -0.001643  0.007089
  0C   1dx2y2     0.000179  0.000082 -0.000325 -0.000767 -0.004666  0.004050
  0C   1dxy      -0.000319 -0.000253  0.001129  0.002094  0.012020 -0.009671
  1O   1s         0.988526 -0.004791 -0.000048  0.000071 -0.173684  0.227465
  1O   2s        -0.042761 -0.000842 -0.000431 -0.001329 -0.356601  0.474760
  1O   3s         0.029181  0.002788  0.000334  0.010619 -0.167270  0.226019
  1O   1pz       -0.001729  0.000055  0.000089  0.000166 -0.070037  0.057689
  1O   1px        0.000024  0.000328  0.000153 -0.000574  0.024405 -0.003286
  1O   1py        0.000113 -0.000236 -0.000115  0.000394 -0.012001 -0.002020
  1O   2pz        0.003137 -0.001952 -0.000479  0.007290 -0.008606  0.001554
  1O   2px       -0.005736 -0.002402 -0.001272 -0.003060  0.019439 -0.011217
  1O   2py        0.003824  0.001847  0.000937  0.001617 -0.013114  0.007824
  1O   1dz2       0.000314 -0.000126  0.000046  0.000137 -0.000621 -0.001409
  1O   1dxz      -0.000663  0.000116 -0.000080 -0.000885  0.003446 -0.000225
  1O   1dyz       0.000495 -0.000070  0.000047  0.000503 -0.001979 -0.000059
  1O   1dx2y2    -0.000243  0.000010  0.000023  0.000522 -0.001897  0.001781
  1O   1dxy       0.000844 -0.000053 -0.000047 -0.001294  0.004654 -0.005030
  2H   1s         0.002358  0.000945  0.000790 -0.002091 -0.091088  0.129897
  2H   2s        -0.000911 -0.000078  0.000030  0.000213  0.000694 -0.005182
  2H   1pz       -0.002002 -0.000388 -0.000163 -0.000298  0.005719 -0.009571
  2H   1px       -0.002086 -0.000028 -0.000093  0.000997  0.013480 -0.016672
  2H   1py        0.001628  0.000049  0.000078 -0.000683 -0.009975  0.012525
  3O   1s        -0.004530 -0.988586 -0.000021 -0.000095 -0.195154 -0.185870
  3O   2s         0.001531  0.042998 -0.000338 -0.000795 -0.400522 -0.384773
  3O   3s        -0.004827 -0.035162  0.000167  0.012923 -0.173804 -0.191411
  3O   1pz       -0.000287 -0.002554  0.000097 -0.001338  0.133447  0.103607
  3O   1px       -0.000176  0.000046  0.000104 -0.000290 -0.008883  0.009512
  3O   1py        0.000146  0.000160 -0.000081  0.000306 -0.003768 -0.014543
  3O   2pz        0.001350  0.007668 -0.000752 -0.008275  0.021278  0.016797
  3O   2px        0.002194 -0.000185 -0.000384  0.002787 -0.000786  0.002131
  3O   2py       -0.001655 -0.000447  0.000329 -0.001349 -0.001048 -0.002775
  3O   1dz2      -0.000047  0.000353  0.000117  0.001152 -0.012011 -0.007692
  3O   1dxz      -0.000326  0.000004  0.000018 -0.000232  0.001099 -0.001188
  3O   1dyz       0.000247 -0.000050 -0.000039  0.000006  0.000813  0.001844
  3O   1dx2y2    -0.000020  0.000002  0.000047  0.000040 -0.000102  0.000142
  3O   1dxy       0.000134 -0.000010 -0.000141 -0.000079  0.000211 -0.000026
  4C   1s        -0.000061  0.000048  0.987704 -0.000940  0.021668  0.004602
  4C   2s         0.000824 -0.000576  0.052167  0.002477 -0.040982 -0.007684
  4C   3s        -0.005909  0.005284 -0.045318 -0.016561 -0.025257  0.011506
  4C   1pz        0.000016 -0.000102 -0.000522  0.001109 -0.013566 -0.013410
  4C   1px        0.000232 -0.000153 -0.000646  0.001523 -0.015989  0.002684
  4C   1py       -0.000165  0.000116  0.000497 -0.001162  0.012342 -0.000890
  4C   2pz       -0.003335 -0.003407 -0.001169 -0.003274 -0.006175  0.001946
  4C   2px       -0.000042  0.003600 -0.001853 -0.004858 -0.010472  0.001995
  4C   2py        0.000281 -0.002292  0.001400  0.003686  0.007880 -0.001559
  4C   1dz2      -0.000422 -0.000208  0.000033 -0.000247  0.000424 -0.001610
  4C   1dxz      -0.000114 -0.000333 -0.000459  0.000963 -0.002134 -0.001473
  4C   1dyz       0.000108  0.000242  0.000355 -0.000733  0.001667  0.001215
  4C   1dx2y2     0.000133  0.000115 -0.000117  0.000295 -0.000772  0.000279
  4C   1dxy      -0.000348 -0.000250  0.000440 -0.001061  0.002693 -0.000440
  5H   1s         0.000236 -0.000313 -0.003139  0.000199 -0.006153  0.000538
  5H   2s         0.000603 -0.001338  0.008212 -0.000244 -0.000924  0.000122
  5H   1pz        0.000313  0.000294 -0.001362 -0.000238 -0.001012 -0.000148
  5H   1px        0.000235  0.000047  0.001423 -0.000210  0.000251  0.000529
  5H   1py       -0.000171  0.000136  0.001901  0.000311  0.001467 -0.000382
  6H   1s         0.000454  0.000264 -0.003180  0.000137 -0.007428 -0.006352
  6H   2s         0.000647  0.001461  0.007903 -0.000119 -0.001111 -0.003260
  6H   1pz       -0.000083 -0.000203  0.001942 -0.000070  0.000479  0.000059
  6H   1px       -0.000259 -0.000210 -0.001699 -0.000341 -0.001445 -0.001177
  6H   1py        0.000190  0.000164  0.001056  0.000247  0.000987  0.000829
  7H   1s         0.000236 -0.000313 -0.003139  0.000199 -0.006153  0.000539
  7H   2s         0.000603 -0.001338  0.008212 -0.000244 -0.000923  0.000120
  7H   1pz        0.000312  0.000274 -0.001642 -0.000252 -0.001169 -0.000146
  7H   1px        0.000217 -0.000132 -0.001213 -0.000346 -0.001223  0.000547
  7H   1py       -0.000196 -0.000118 -0.001823  0.000120 -0.000614 -0.000358
                      6         7         8         9        10        11   
                  -0.78304  -0.65638  -0.55592  -0.52621  -0.50777  -0.47025
                   2.00000   2.00000   2.00000   2.00000   2.00000   2.00000
                  --------  --------  --------  --------  --------  --------
  0C   1s         0.092773  0.121325  0.111300 -0.003679  0.000002 -0.023296
  0C   2s        -0.189794 -0.272460 -0.264385  0.003809 -0.000006  0.057221
  0C   3s        -0.091625 -0.040064 -0.015539  0.028154  0.000014  0.019405
  0C   1pz        0.125717  0.126068 -0.182345 -0.179874 -0.016996  0.008095
  0C   1px        0.098579 -0.133731  0.147095 -0.230867 -0.159706 -0.052007
  0C   1py       -0.079266  0.085181 -0.090399  0.176997 -0.225595  0.036208
  0C   2pz        0.051614  0.049925 -0.019798 -0.046288 -0.007279 -0.038983
  0C   2px        0.060635 -0.011179  0.025316 -0.076612 -0.068315  0.017228
  0C   2py       -0.046815  0.004153 -0.016429  0.057724 -0.096493 -0.009262
  0C   1dz2       0.003152 -0.005886 -0.003743  0.001408 -0.000516  0.012413
  0C   1dxz      -0.002299  0.012634 -0.000497 -0.011932 -0.002735  0.016454
  0C   1dyz       0.001863 -0.007697  0.001065  0.008689 -0.003979 -0.012608
  0C   1dx2y2    -0.002675 -0.002949 -0.000918 -0.001012  0.000922 -0.004137
  0C   1dxy       0.008142  0.005640  0.002795  0.005607  0.000640  0.007910
  1O   1s         0.030915  0.035338  0.020999  0.046262 -0.000002 -0.026200
  1O   2s         0.068929  0.074205  0.049662  0.098434 -0.000003 -0.057423
  1O   3s         0.025880  0.034949  0.036374  0.114940 -0.000011 -0.096988
  1O   1pz        0.026716 -0.029867 -0.051323 -0.297667 -0.014310  0.009347
  1O   1px        0.088088  0.383823 -0.139127  0.033377 -0.134548  0.116218
  1O   1py       -0.064377 -0.269490  0.102368 -0.001206 -0.190046 -0.082988
  1O   2pz       -0.001981 -0.033630 -0.027015 -0.159240 -0.007954 -0.001019
  1O   2px        0.030321  0.136721 -0.057325  0.012791 -0.074787  0.057474
  1O   2py       -0.021318 -0.094263  0.042621  0.002941 -0.105642 -0.040616
  1O   1dz2       0.002376  0.000082 -0.001233 -0.010263 -0.000747 -0.000253
  1O   1dxz       0.001669  0.010469 -0.002267  0.004683 -0.003749  0.002417
  1O   1dyz      -0.001338 -0.007278  0.001759 -0.002128 -0.005906 -0.001800
  1O   1dx2y2    -0.000806 -0.001373  0.000201  0.000398  0.005262  0.000361
  1O   1dxy       0.001894  0.001537 -0.000039 -0.002064  0.002311 -0.001583
  2H   1s         0.075553  0.268423 -0.097089 -0.031433  0.000002  0.082518
  2H   2s        -0.002148  0.029043 -0.010770  0.005355  0.000001  0.017972
  2H   1pz       -0.005269 -0.021807  0.006092 -0.008856 -0.000482 -0.005068
  2H   1px       -0.007389 -0.019908  0.006168  0.007796 -0.004536 -0.004739
  2H   1py        0.005629  0.015738 -0.004826 -0.004852 -0.006406  0.003737
  3O   1s         0.059024  0.044413  0.126697  0.049767  0.000000 -0.003257
  3O   2s         0.130189  0.098059  0.272415  0.102216  0.000001 -0.004561
  3O   3s         0.065560  0.053605  0.280207  0.136976 -0.000001 -0.001715
  3O   1pz        0.011446  0.064286  0.413776  0.228459 -0.016158 -0.077273
  3O   1px        0.031702 -0.041436  0.074818 -0.202854 -0.151775  0.047862
  3O   1py       -0.023306  0.024493 -0.084148  0.126396 -0.214395 -0.028066
  3O   2pz        0.014607  0.032958  0.193622  0.103068 -0.008357 -0.036908
  3O   2px        0.007069 -0.020298  0.039313 -0.106966 -0.078500  0.029994
  3O   2py       -0.006108  0.011886 -0.042423  0.067962 -0.110891 -0.018456
  3O   1dz2      -0.001031 -0.003282 -0.014947 -0.007790  0.001513  0.002039
  3O   1dxz      -0.002867  0.004027 -0.004974  0.010771  0.008193 -0.000617
  3O   1dyz       0.002206 -0.002485  0.005522 -0.006609  0.011534  0.000262
  3O   1dx2y2     0.000029  0.000007  0.000238 -0.000711  0.000636 -0.000368
  3O   1dxy       0.000586 -0.000894  0.000669 -0.000315 -0.000702  0.001167
  4C   1s         0.241518 -0.087453 -0.031873  0.033085 -0.000001 -0.002479
  4C   2s        -0.512841  0.192500  0.069213 -0.071760  0.000004  0.008877
  4C   3s        -0.026802  0.057125 -0.003522 -0.064275 -0.000015  0.014069
  4C   1pz       -0.018951 -0.008480 -0.185002  0.149263 -0.021501 -0.365310
  4C   1px       -0.038980 -0.088050 -0.084452  0.196278 -0.201940  0.268932
  4C   1py        0.029026  0.062979  0.073735 -0.150226 -0.285219 -0.162868
  4C   2pz        0.010409  0.000925 -0.077397  0.040820 -0.007582 -0.122813
  4C   2px        0.010384 -0.023743 -0.022514  0.068766 -0.071235  0.092176
  4C   2py       -0.008135  0.016744  0.021775 -0.051773 -0.100611 -0.055994
  4C   1dz2       0.001497  0.003480 -0.002764 -0.000735  0.000610 -0.002635
  4C   1dxz      -0.003265 -0.002496 -0.005723  0.005959  0.002948  0.010227
  4C   1dyz       0.002436  0.001660  0.004802 -0.004738  0.004903 -0.006126
  4C   1dx2y2    -0.001174 -0.001360 -0.001271  0.002267 -0.006430 -0.004071
  4C   1dxy       0.004087  0.004416  0.004986 -0.007845 -0.002638  0.009357
  5H   1s        -0.145112  0.073364  0.103982 -0.103367 -0.204676  0.153339
  5H   2s        -0.018597  0.011143  0.015435 -0.016818 -0.034479  0.031097
  5H   1pz       -0.010405  0.003729  0.001294 -0.001396 -0.010557 -0.004663
  5H   1px        0.007691 -0.006413 -0.005940  0.009180  0.001372  0.001918
  5H   1py        0.014413 -0.004140 -0.005580  0.003163  0.006057 -0.013754
  6H   1s        -0.140139  0.107770  0.012935 -0.091375  0.000005 -0.374591
  6H   2s        -0.019861  0.011105  0.024527 -0.000888  0.000005 -0.091428
  6H   1pz        0.011785 -0.007254 -0.006286  0.010540 -0.000601  0.009430
  6H   1px       -0.012506  0.005975 -0.001560 -0.000131 -0.005640 -0.012565
  6H   1py        0.007966 -0.003683  0.001578 -0.000702 -0.007967  0.008185
  7H   1s        -0.145112  0.073362  0.103979 -0.103351  0.204685  0.153339
  7H   2s        -0.018594  0.011145  0.015433 -0.016820  0.034483  0.031099
  7H   1pz       -0.012312  0.004569  0.002262 -0.002351  0.011180 -0.003389
  7H   1px       -0.010230  0.001479  0.003162  0.000201  0.004482  0.013894
  7H   1py       -0.010903  0.007008  0.007279 -0.009521  0.002218  0.003166
                     12        13        14        15        16        17   
                  -0.44718  -0.43940  -0.39171  -0.36190  -0.10320  -0.00528
                   2.00000   2.00000   2.00000   2.00000   0.00000   0.00000
                  --------  --------  --------  --------  --------  --------
  0C   1s        -0.000003 -0.042575 -0.000000  0.018518 -0.000000  0.044770
  0C   2s         0.000007  0.101353  0.000003 -0.050227 -0.000006 -0.063435
  0C   3s         0.000007  0.004812  0.000005  0.000607  0.000044 -0.611105
  0C   1pz        0.010888 -0.213850  0.003203  0.037789 -0.038304  0.110082
  0C   1px        0.102412 -0.028524  0.030070  0.057457 -0.359893 -0.067855
  0C   1py        0.144653  0.036299  0.042472 -0.043529 -0.508340  0.039710
  0C   2pz        0.005289  0.050172  0.000621  0.040125 -0.030630  0.173818
  0C   2px        0.049480  0.024218  0.005671 -0.051846 -0.287556  0.155163
  0C   2py        0.069905 -0.020938  0.007975  0.033681 -0.406163 -0.122949
  0C   1dz2       0.001999 -0.030948  0.003957 -0.001729  0.001324 -0.013039
  0C   1dxz       0.011844  0.012048  0.020474 -0.036158  0.007848 -0.000417
  0C   1dyz       0.014537 -0.005751  0.030836  0.025514  0.009606  0.000297
  0C   1dx2y2     0.019774  0.004830 -0.016228  0.003936  0.013367  0.007527
  0C   1dxy       0.005740 -0.016152 -0.008138 -0.002983  0.003898 -0.021274
  1O   1s        -0.000006 -0.073654  0.000000  0.009379 -0.000002  0.108753
  1O   2s        -0.000014 -0.160149  0.000002  0.021994 -0.000001  0.248704
  1O   3s        -0.000004 -0.198497 -0.000009  0.063948 -0.000027  0.658457
  1O   1pz        0.019152  0.494039 -0.032038  0.244707  0.015329  0.137057
  1O   1px        0.179590  0.054852 -0.300991 -0.094874  0.144026  0.078521
  1O   1py        0.253647 -0.076090 -0.425137  0.048726  0.203429 -0.065913
  1O   2pz        0.011542  0.278141 -0.020863  0.156335  0.013835  0.150929
  1O   2px        0.108239  0.006835 -0.195940 -0.062691  0.130017  0.126516
  1O   2py        0.152890 -0.025816 -0.276759  0.032603  0.183631 -0.100940
  1O   1dz2       0.000896  0.006819 -0.000822  0.004045 -0.000595  0.007646
  1O   1dxz       0.004659  0.001474 -0.004413 -0.000926 -0.002317 -0.002487
  1O   1dyz       0.006963 -0.002129 -0.006291  0.000253 -0.005178  0.001395
  1O   1dx2y2    -0.003208  0.000699  0.000341 -0.000508  0.016767 -0.002631
  1O   1dxy      -0.001679 -0.002434  0.000623  0.001608  0.006270  0.007998
  2H   1s         0.000016  0.177617 -0.000000  0.004904  0.000003 -0.252838
  2H   2s         0.000003  0.033350 -0.000000 -0.029651  0.000005 -0.940631
  2H   1pz        0.000709  0.004970 -0.001128  0.004676  0.000927  0.000253
  2H   1px        0.006662 -0.016814 -0.010596 -0.002854  0.008708 -0.011414
  2H   1py        0.009412  0.011528 -0.014967  0.001668  0.012300  0.008062
  3O   1s         0.000001  0.011390 -0.000001  0.001403 -0.000000  0.019241
  3O   2s         0.000003  0.018901  0.000002  0.006923  0.000001  0.052546
  3O   3s        -0.000016  0.021667 -0.000022 -0.017948 -0.000005  0.062013
  3O   1pz        0.019595  0.278244  0.027851 -0.001054  0.021832  0.006159
  3O   1px        0.183932  0.030469  0.261689 -0.501583  0.205114  0.043410
  3O   1py        0.259783 -0.042563  0.369621  0.355194  0.289712 -0.031186
  3O   2pz        0.011412  0.146445  0.017605  0.004691  0.019965 -0.016592
  3O   2px        0.107076  0.020214  0.165329 -0.312522  0.187522  0.013450
  3O   2py        0.151228 -0.025360  0.233526  0.220910  0.264866 -0.008268
  3O   1dz2      -0.001400 -0.006768 -0.001377  0.000012  0.001596  0.005194
  3O   1dxz      -0.007524  0.000217 -0.007503  0.011029  0.008696  0.002324
  3O   1dyz      -0.010705  0.000635 -0.010457 -0.007833  0.012133 -0.002334
  3O   1dx2y2     0.000427  0.000443 -0.001517 -0.000685  0.001632 -0.000146
  3O   1dxy       0.001007 -0.001223  0.000308 -0.000563 -0.000402 -0.000186
  4C   1s        -0.000002 -0.015938 -0.000000  0.028837  0.000006 -0.107470
  4C   2s         0.000008  0.044513 -0.000001 -0.076215 -0.000016  0.254962
  4C   3s        -0.000003  0.113724  0.000028 -0.108933 -0.000075  1.524920
  4C   1pz       -0.021365  0.158366 -0.000657 -0.179850 -0.000026  0.056426
  4C   1px       -0.200755  0.146786 -0.006169 -0.092791 -0.000248 -0.005034
  4C   1py       -0.283581 -0.115821 -0.008712  0.079244 -0.000348 -0.000679
  4C   2pz       -0.008729  0.074660  0.001546 -0.089950 -0.006975  0.183690
  4C   2px       -0.081962  0.077910  0.014505 -0.049191 -0.065738 -0.032112
  4C   2py       -0.115789 -0.060771  0.020477  0.041612 -0.092850  0.008904
  4C   1dz2       0.001617 -0.003873  0.000310  0.003244 -0.003323  0.007069
  4C   1dxz       0.008987  0.002629  0.001682  0.000653 -0.019527  0.011065
  4C   1dyz       0.012173 -0.001864  0.002358 -0.000448 -0.024251 -0.007961
  4C   1dx2y2     0.004918  0.002049  0.000218 -0.001977 -0.030148 -0.004310
  4C   1dxy       0.000742 -0.006413 -0.000113  0.005466 -0.008585  0.009708
  5H   1s        -0.234973 -0.072816 -0.017273  0.073778  0.169681 -0.003336
  5H   2s        -0.052949 -0.035192 -0.030976  0.031535  0.252124 -0.440240
  5H   1pz       -0.010015  0.001742 -0.001330 -0.003043 -0.002943  0.003052
  5H   1px        0.003354  0.006297 -0.000908 -0.005844 -0.007303 -0.005730
  5H   1py        0.004560  0.002145  0.001453 -0.001964  0.003842 -0.002620
  6H   1s         0.000000 -0.018043 -0.000001 -0.046137 -0.000003 -0.142481
  6H   2s         0.000002 -0.013760 -0.000005  0.020843  0.000016 -0.810206
  6H   1pz       -0.000608  0.004747 -0.000021  0.000803  0.000219 -0.004065
  6H   1px       -0.005710  0.001370 -0.000194 -0.001605  0.002058  0.009128
  6H   1py       -0.008065 -0.001327 -0.000273  0.001076  0.002907 -0.006156
  7H   1s         0.234969 -0.072854  0.017274  0.073783 -0.169679 -0.003342
  7H   2s         0.052943 -0.035194  0.030968  0.031543 -0.252042 -0.440192
  7H   1pz        0.010634  0.001067  0.001401 -0.002409  0.002788  0.003698
  7H   1px        0.002451 -0.000031  0.001575  0.000104  0.005847  0.000328
  7H   1py        0.003642 -0.006793 -0.000511  0.006439 -0.005899  0.005938
                     18        19        20        21        22        23   
                   0.01716   0.04184   0.05878   0.10729   0.17830   0.20329
                   0.00000   0.00000   0.00000   0.00000   0.00000   0.00000
                  --------  --------  --------  --------  --------  --------
  0C   1s         0.026023 -0.010852  0.000008 -0.198858  0.000617 -0.020726
  0C   2s        -0.114721  0.007416 -0.000015  0.536052 -0.219853  0.100895
  0C   3s         0.238606  0.359166 -0.000261  2.818384  0.799377 -1.065787
  0C   1pz        0.093942  0.060155  0.008995 -0.220138  0.169110 -0.255843
  0C   1px       -0.022780 -0.051385  0.084425 -0.084515  0.377142  0.323891
  0C   1py        0.009087  0.031839  0.119240  0.076447 -0.279737 -0.210037
  0C   2pz        0.154554  0.042213  0.018815 -0.697330  0.936403 -1.572318
  0C   2px        0.080883 -0.141198  0.176667 -0.588202  1.163342  0.882712
  0C   2py       -0.068889  0.096781  0.249406  0.469004 -0.894206 -0.506472
  0C   1dz2      -0.018248 -0.026406  0.000156 -0.014883 -0.025485  0.026253
  0C   1dxz      -0.000520 -0.015042  0.001730  0.006845  0.019627  0.020145
  0C   1dyz       0.002410  0.013757  0.000575 -0.000282 -0.008536 -0.016008
  0C   1dx2y2     0.001638  0.002718  0.016616 -0.011816 -0.010101 -0.008927
  0C   1dxy      -0.004313 -0.003972  0.005755  0.032486  0.024800  0.020583
  1O   1s         0.045412 -0.013856 -0.000001 -0.040254 -0.054400 -0.072724
  1O   2s         0.102691 -0.021871 -0.000002 -0.091820 -0.109829 -0.164808
  1O   3s         0.267610 -0.173021 -0.000004 -0.273566 -0.650242 -0.698690
  1O   1pz        0.086888 -0.050279 -0.006237 -0.061630 -0.158850 -0.003359
  1O   1px        0.079526 -0.117133 -0.058632  0.243465  0.171875  0.183311
  1O   1py       -0.062868  0.086726 -0.082773 -0.167734 -0.109705 -0.129529
  1O   2pz        0.050406 -0.047009 -0.005144 -0.008869 -0.388735 -0.057726
  1O   2px        0.125929 -0.116193 -0.048296  0.371918  0.296609  0.358626
  1O   2py       -0.092958  0.085806 -0.068143 -0.262649 -0.180708 -0.249550
  1O   1dz2       0.005126 -0.000057  0.000147 -0.010928  0.009643 -0.008829
  1O   1dxz      -0.000628 -0.000678  0.000405 -0.006266 -0.015263  0.000304
  1O   1dyz       0.000498  0.000858  0.001398  0.005347  0.010777 -0.000633
  1O   1dx2y2    -0.003136 -0.001567 -0.007290  0.002764 -0.004341  0.006879
  1O   1dxy       0.009048  0.004643 -0.002658 -0.006331  0.015782 -0.019641
  2H   1s        -0.157072  0.040799  0.000017 -0.062203 -0.155217  0.115535
  2H   2s        -0.596564  0.454550  0.000069 -0.501692 -0.321869 -0.333775
  2H   1pz        0.001902  0.005617 -0.000451 -0.016705 -0.000232 -0.016041
  2H   1px       -0.010318  0.004495 -0.004245  0.004127 -0.012040  0.012410
  2H   1py        0.007159 -0.003604 -0.005995 -0.001665  0.008542 -0.007578
  3O   1s        -0.015891 -0.018844  0.000003 -0.037256 -0.085002  0.088403
  3O   2s        -0.027542 -0.040919  0.000003 -0.087437 -0.174146  0.170614
  3O   3s        -0.198460 -0.154257  0.000059 -0.251528 -1.040575  1.329121
  3O   1pz        0.038534  0.079631 -0.003592  0.143441  0.115659 -0.084856
  3O   1px        0.057580 -0.014420 -0.033701  0.003080 -0.117261 -0.117565
  3O   1py       -0.043686  0.004207 -0.047590 -0.012998  0.074293  0.089637
  3O   2pz        0.080933  0.092529 -0.005650  0.170089  0.420053 -0.450951
  3O   2px        0.022249  0.018861 -0.052886  0.071171 -0.258098 -0.178196
  3O   2py       -0.021860 -0.020323 -0.074682 -0.063210  0.151085  0.160139
  3O   1dz2      -0.000681  0.002067 -0.000552  0.004068 -0.009636  0.010524
  3O   1dxz       0.000796  0.003172 -0.002840  0.001162 -0.012681 -0.013105
  3O   1dyz      -0.000467 -0.002440 -0.004328 -0.000667  0.010534  0.008074
  3O   1dx2y2    -0.000093 -0.000570  0.002697 -0.003106 -0.000337  0.000124
  3O   1dxy       0.000094  0.000878  0.001288  0.008573  0.003998  0.002489
  4C   1s         0.113992 -0.017400 -0.000012  0.068686 -0.032843 -0.004745
  4C   2s        -0.262622  0.048211  0.000016 -0.087243 -0.001640 -0.034313
  4C   3s        -1.646713  0.125681  0.000306 -1.955373  1.749834  0.556147
  4C   1pz        0.210642  0.303325 -0.028878 -0.175517 -0.084105  0.172201
  4C   1px        0.104072 -0.243804 -0.271449 -0.235819 -0.033667 -0.055595
  4C   1py       -0.089583  0.149783 -0.383385  0.180139  0.030186  0.026391
  4C   2pz        0.505254  0.673364 -0.068322 -0.676965  0.481614  0.848346
  4C   2px        0.190821 -0.590548 -0.642686 -1.168538  0.681958  0.036198
  4C   2py       -0.173259  0.367407 -0.907890  0.878260 -0.519160 -0.089514
  4C   1dz2       0.005193 -0.000518 -0.003131 -0.019650 -0.000395 -0.031991
  4C   1dxz       0.000699  0.026749 -0.016547  0.028434 -0.024355 -0.044544
  4C   1dyz       0.000845 -0.016849 -0.024168 -0.020296  0.019921  0.033803
  4C   1dx2y2    -0.008869 -0.010697  0.006446  0.009990 -0.009714  0.011711
  4C   1dxy       0.025171  0.024523  0.004188 -0.034829  0.033394 -0.022903
  5H   1s         0.151308  0.101288  0.176543 -0.095793  0.075097 -0.052506
  5H   2s         1.114644  0.522329  1.411367  0.023878 -0.336739  0.384455
  5H   1pz       -0.002213  0.006563 -0.016250 -0.001398  0.013774  0.002439
  5H   1px        0.012892 -0.003048  0.009996 -0.012914  0.011854  0.023192
  5H   1py        0.012197  0.014169  0.006790  0.004686 -0.010429 -0.006509
  6H   1s        -0.020618 -0.279750 -0.000014 -0.071827  0.026658  0.293422
  6H   2s         0.431559 -1.632675 -0.000144 -0.063228 -0.199020 -0.832527
  6H   1pz        0.013178 -0.012461 -0.001195 -0.020489  0.009449 -0.017918
  6H   1px        0.000390  0.015299 -0.011201 -0.015722  0.009725 -0.011079
  6H   1py       -0.001271 -0.009892 -0.015825  0.012674 -0.007599  0.009195
  7H   1s         0.151298  0.101288 -0.176543 -0.095841  0.075078 -0.052459
  7H   2s         1.114477  0.522505 -1.411431  0.023771 -0.336783  0.384471
  7H   1pz       -0.004329  0.005311  0.017516 -0.000936  0.013870  0.001426
  7H   1px       -0.006991 -0.014799  0.001884 -0.008622  0.012787  0.013705
  7H   1py       -0.015885 -0.002431  0.009994  0.010739 -0.009099 -0.019907
                     24        25        26        27        28        29   
                   0.34987   0.35755   0.38798   0.41385   0.45452   0.47471
                   0.00000   0.00000   0.00000   0.00000   0.00000   0.00000
                  --------  --------  --------  --------  --------  --------
  0C   1s         0.187808  0.000078  0.042783 -0.118028 -0.000054 -0.151787
  0C   2s        -1.146150 -0.000487 -0.031779  0.693269  0.000310  0.809767
  0C   3s         1.614281  0.000739  1.247146 -1.752021 -0.000759 -1.533068
  0C   1pz        0.080057 -0.031113  0.192009  0.079934  0.046204  0.624938
  0C   1px       -0.497613 -0.293199  0.032365  0.039723  0.433149 -0.315875
  0C   1py        0.346570 -0.413580 -0.037343 -0.034452  0.611848  0.176499
  0C   2pz       -0.246049  0.010765 -0.109229  2.309060 -0.092536 -1.029952
  0C   2px        0.476188  0.103485  0.162932 -0.481354 -0.874507  0.889340
  0C   2py       -0.318717  0.145343 -0.107179  0.167352 -1.235251 -0.551895
  0C   1dz2       0.030968 -0.001067 -0.028838 -0.004505  0.001783 -0.106758
  0C   1dxz      -0.045242 -0.007591  0.054586  0.008646  0.009420 -0.026655
  0C   1dyz       0.028659 -0.006850 -0.040393 -0.004531  0.013930  0.031917
  0C   1dx2y2     0.000125 -0.034128  0.020343 -0.004980 -0.005089  0.006472
  0C   1dxy       0.009593 -0.011367 -0.070310  0.012346 -0.002894 -0.010924
  1O   1s         0.025510  0.000011  0.015297 -0.008315 -0.000003  0.018989
  1O   2s         0.110092  0.000056  0.058213 -0.132706 -0.000034  0.087672
  1O   3s        -0.570669 -0.000384 -0.331990  1.185555  0.000282 -0.490511
  1O   1pz        0.237424  0.000148  0.014131 -0.065333  0.011352  0.105798
  1O   1px       -0.093381  0.000292  0.033414  0.073755  0.106860 -0.022281
  1O   1py        0.048227  0.000492 -0.024709 -0.047358  0.150914  0.007789
  1O   2pz       -0.078905 -0.001226 -0.072272 -0.034991  0.007768  0.000475
  1O   2px       -0.014882 -0.010887  0.118531 -0.451044  0.072923  0.177866
  1O   2py        0.016492 -0.015432 -0.078473  0.321917  0.103208 -0.125978
  1O   1dz2      -0.000645 -0.001348  0.026621  0.004894  0.000035  0.019373
  1O   1dxz       0.043371 -0.006850 -0.023081 -0.010176 -0.000270 -0.008982
  1O   1dyz      -0.027547 -0.010621  0.016382  0.004387  0.000555  0.007146
  1O   1dx2y2    -0.016453  0.007769 -0.013855  0.010187 -0.008278 -0.013938
  1O   1dxy       0.037197  0.003589  0.044573 -0.026903 -0.002942  0.041692
  2H   1s         0.058118 -0.000013 -0.497863  0.179523  0.000045 -0.416256
  2H   2s        -0.244249 -0.000107  0.307888  0.072090  0.000007  0.348076
  2H   1pz        0.055435  0.000412  0.003638 -0.020276 -0.001188 -0.001955
  2H   1px       -0.055701  0.003568 -0.047397  0.003613 -0.011138 -0.027035
  2H   1py        0.035254  0.005102  0.033283 -0.001023 -0.015738  0.019290
  3O   1s         0.015095 -0.000000 -0.006893 -0.064352 -0.000025 -0.038239
  3O   2s         0.064027 -0.000005 -0.005741 -0.162208 -0.000077 -0.155775
  3O   3s        -0.210422 -0.000027 -0.204558 -0.979946 -0.000166  0.729675
  3O   1pz       -0.139620 -0.001417  0.017670  0.092883  0.006530  0.369046
  3O   1px        0.034285 -0.012934 -0.184030  0.014603  0.060698 -0.040169
  3O   1py       -0.013740 -0.018279  0.128958 -0.017375  0.085714  0.000627
  3O   2pz       -0.025970  0.001892  0.086294  0.351877  0.011136  0.046084
  3O   2px       -0.043398  0.017902 -0.086014  0.043206  0.103680 -0.065391
  3O   2py        0.032669  0.025399  0.054401 -0.057173  0.146446  0.042798
  3O   1dz2      -0.022954  0.002002  0.006813  0.010247 -0.002290  0.075180
  3O   1dxz       0.023576  0.010471 -0.014339 -0.003142 -0.012920  0.013060
  3O   1dyz      -0.013166  0.015602  0.009402  0.001026 -0.017241 -0.019595
  3O   1dx2y2    -0.003875 -0.007015  0.000359 -0.000406 -0.009385  0.000923
  3O   1dxy       0.006044 -0.003698  0.002153  0.001744 -0.001896 -0.006685
  4C   1s         0.024692  0.000005 -0.143302  0.045887  0.000013  0.110600
  4C   2s        -0.140276 -0.000007  0.842754 -0.311624 -0.000082 -0.552462
  4C   3s         0.101044  0.000008 -1.486703  1.653719  0.000556  1.617094
  4C   1pz       -0.127793 -0.009261  0.329811  0.265754 -0.017974 -0.238607
  4C   1px       -0.201831 -0.086872  0.459604 -0.196442 -0.169925  0.059932
  4C   1py        0.152609 -0.122501 -0.350306  0.119149 -0.239780 -0.024408
  4C   2pz       -0.170727  0.055153 -0.700087 -1.420681  0.080607  0.940036
  4C   2px        0.095217  0.518570 -0.731179  1.392431  0.761286  0.022050
  4C   2py       -0.055042  0.732382  0.570522 -0.879196  1.074194 -0.086619
  4C   1dz2       0.013809  0.011787  0.008491  0.083698  0.004372  0.016309
  4C   1dxz      -0.024021  0.062605 -0.007482 -0.028650  0.021848 -0.010514
  4C   1dyz       0.011289  0.090675  0.000879  0.005235  0.034291  0.005444
  4C   1dx2y2     0.018432 -0.017606  0.014850  0.019426 -0.029578  0.000028
  4C   1dxy      -0.047459 -0.013436 -0.040941 -0.050231 -0.013088  0.002101
  5H   1s        -0.241665 -0.680602 -0.331393 -0.262413 -0.278379  0.272510
  5H   2s         0.013897  0.250567  0.324148 -0.306294 -0.188296 -0.161971
  5H   1pz       -0.014349  0.038916 -0.010508 -0.096127 -0.015853 -0.013277
  5H   1px        0.006481  0.007451 -0.001498 -0.020473 -0.037811  0.031878
  5H   1py       -0.036834  0.019089 -0.028462 -0.017222  0.058566  0.003167
  6H   1s         0.334161  0.000100  0.052910  0.675014  0.000155  0.373288
  6H   2s        -0.315271 -0.000047  0.067342  0.226056  0.000213 -0.721357
  6H   1pz       -0.016129  0.005059 -0.012425  0.029172  0.003519  0.017387
  6H   1px       -0.010383  0.047652 -0.004397  0.041385  0.033074 -0.072634
  6H   1py        0.008521  0.067320  0.004047 -0.031514  0.046681  0.050100
  7H   1s        -0.242270  0.680443 -0.331472 -0.262543  0.278306  0.272422
  7H   2s         0.014101 -0.250574  0.324324 -0.306406  0.188034 -0.161981
  7H   1pz       -0.010987 -0.036190 -0.007458 -0.092246  0.018852 -0.015751
  7H   1px        0.037779  0.018227  0.027001  0.016101  0.066573  0.008619
  7H   1py        0.007383  0.017144  0.011764  0.034502 -0.017929 -0.029660
                     30        31        32        33        34        35   
                   0.50552   0.52906   0.53237   0.53763   0.56137   0.71131
                   0.00000   0.00000   0.00000   0.00000   0.00000   0.00000
                  --------  --------  --------  --------  --------  --------
  0C   1s         0.036993  0.000006 -0.007052 -0.013529 -0.100579 -0.012459
  0C   2s        -0.150821  0.000067 -0.005464  0.113309  0.789852  0.030549
  0C   3s        -0.606698 -0.001186  0.573757 -0.978313 -2.998901 -4.969207
  0C   1pz       -0.468229  0.011304  0.509491 -0.243067 -0.329570 -0.077092
  0C   1px       -0.155025  0.113272 -0.104665 -0.121759 -0.397855 -0.051891
  0C   1py        0.145007  0.159949  0.035960  0.104533  0.306471  0.042543
  0C   2pz        0.942309 -0.002578 -0.542927  0.162036  1.312074  0.976399
  0C   2px        1.022243 -0.034809  0.717920  0.396547  2.182074  1.807557
  0C   2py       -0.794789 -0.048563 -0.467341 -0.292888 -1.643706 -1.353304
  0C   1dz2       0.056433 -0.002067 -0.037643 -0.015853  0.042896 -0.080651
  0C   1dxz       0.004243 -0.013071 -0.003638 -0.008729 -0.002523  0.026988
  0C   1dyz      -0.009952 -0.015201  0.006567  0.006988 -0.003944 -0.007927
  0C   1dx2y2    -0.002449 -0.029559  0.004359  0.006210  0.000495 -0.004235
  0C   1dxy       0.005275 -0.009091 -0.011226 -0.015564 -0.001427  0.007097
  1O   1s         0.007356  0.000073 -0.059064  0.006268  0.006354 -0.024172
  1O   2s         0.059210  0.000271 -0.212984  0.026671  0.055096 -0.162820
  1O   3s        -0.250894  0.000251 -0.267514 -0.184171 -0.297237  0.312632
  1O   1pz       -0.159050 -0.001385 -0.191899  0.249287 -0.260137 -0.114788
  1O   1px        0.020845 -0.013928 -0.185223  0.193216 -0.010486  0.153438
  1O   1py       -0.002738 -0.020126  0.145537 -0.155591  0.027039 -0.099985
  1O   2pz       -0.124091  0.002126  0.001423 -0.160997 -0.172252 -0.058461
  1O   2px       -0.053042  0.020129  0.168051 -0.004509 -0.079686 -0.395001
  1O   2py        0.046877  0.028941 -0.119032  0.015319  0.069375  0.284066
  1O   1dz2      -0.003305 -0.000078  0.003047  0.006310  0.006826  0.037137
  1O   1dxz       0.008588 -0.000567  0.057118 -0.026376  0.013035 -0.002355
  1O   1dyz      -0.006039 -0.000465 -0.042580  0.020645 -0.010648 -0.002822
  1O   1dx2y2     0.001115 -0.001805  0.003521 -0.010350  0.001338 -0.001635
  1O   1dxy      -0.005110 -0.000565 -0.023185  0.035577 -0.006907  0.004695
  2H   1s         0.125326 -0.000739  0.720736 -0.629337  0.229315 -0.001522
  2H   2s        -0.264763  0.000955 -0.949524  0.614155 -0.414168  0.119254
  2H   1pz        0.036872 -0.000432  0.109213 -0.052164  0.073556  0.057613
  2H   1px       -0.019289 -0.003172  0.079704 -0.094828 -0.015622 -0.066880
  2H   1py        0.010879 -0.004272 -0.064668  0.071069  0.005519  0.043007
  3O   1s         0.019449  0.000032 -0.026654  0.028016 -0.009077  0.028749
  3O   2s         0.074396  0.000103 -0.081888  0.079034 -0.031271  0.045979
  3O   3s        -0.359605 -0.000236  0.074414  0.171028 -0.177325  0.558134
  3O   1pz       -0.163439  0.006787  0.157704 -0.090197 -0.056445  0.380794
  3O   1px       -0.112146  0.065888 -0.057612 -0.022447 -0.162151 -0.058760
  3O   1py        0.091685  0.093068  0.029071  0.022710  0.119034  0.012918
  3O   2pz       -0.052397 -0.004093  0.137363 -0.153236  0.083142 -0.750905
  3O   2px       -0.094171 -0.036944 -0.109429 -0.047600 -0.189369 -0.148225
  3O   2py        0.070643 -0.052363  0.067008  0.045217  0.127810  0.161511
  3O   1dz2      -0.045355 -0.000287  0.040560 -0.009762 -0.016518  0.000352
  3O   1dxz       0.004058 -0.000769 -0.009727  0.002955  0.004743 -0.002797
  3O   1dyz       0.003016 -0.002039  0.001822 -0.001219 -0.002039 -0.000455
  3O   1dx2y2     0.000143  0.008233 -0.000574  0.001604  0.003423  0.010608
  3O   1dxy      -0.000702  0.003033  0.003331 -0.005123 -0.010652 -0.029744
  4C   1s         0.188683  0.000054 -0.018654  0.014833 -0.106822  0.086746
  4C   2s        -1.179026 -0.000243  0.037283 -0.014819  0.910165 -1.324261
  4C   3s         4.480809  0.000757  0.490564  0.419443  0.420833  7.430398
  4C   1pz        0.246194  0.054082  0.526452  0.504280 -0.254209 -0.144985
  4C   1px        0.327021  0.514434 -0.058142 -0.427478 -0.175706 -0.051751
  4C   1py       -0.250397  0.726224  0.002835  0.264813  0.143429  0.047536
  4C   2pz       -0.072337 -0.108613 -0.731914 -0.779854  1.490295  1.188649
  4C   2px       -0.178616 -1.031231  0.127555  0.962681  1.453756  1.167226
  4C   2py        0.132566 -1.456348 -0.037930 -0.623193 -1.141309 -0.915905
  4C   1dz2      -0.022748  0.012769 -0.006220 -0.021001 -0.032166  0.018982
  4C   1dxz      -0.010657  0.070645  0.047795  0.063171  0.042894  0.044029
  4C   1dyz       0.010937  0.096286 -0.027945 -0.037640 -0.031204 -0.037026
  4C   1dx2y2    -0.001113  0.034522 -0.024733 -0.023257  0.018967  0.011464
  4C   1dxy       0.005901  0.004242  0.060140  0.052480 -0.063669 -0.043155
  5H   1s         0.343135 -0.432786  0.096557  0.279253  0.025989 -0.626416
  5H   2s        -1.141572  1.682947 -0.661492 -0.653310  0.960118 -0.542182
  5H   1pz       -0.033009  0.075194  0.009494 -0.003211  0.012744 -0.007314
  5H   1px        0.033699 -0.038340  0.024730  0.007611 -0.050581 -0.062253
  5H   1py        0.071801 -0.076199  0.039648  0.063647  0.000270 -0.006593
  6H   1s         0.268458  0.000599 -0.408267 -0.398390  0.021308 -0.683830
  6H   2s        -1.212745 -0.001654  0.970250  1.547536  0.519620 -0.803688
  6H   1pz        0.053349  0.001939 -0.065161 -0.064353 -0.046538 -0.015313
  6H   1px       -0.050447  0.017287  0.029257  0.063146 -0.021305  0.006748
  6H   1py        0.031689  0.024536 -0.015769 -0.039864  0.018574 -0.003628
  7H   1s         0.342919  0.432610  0.097511  0.279279  0.025837 -0.626439
  7H   2s        -1.140646 -1.681573 -0.665539 -0.653728  0.960578 -0.542087
  7H   1pz       -0.042277 -0.084998  0.003504 -0.010111  0.016229 -0.002193
  7H   1px       -0.053809 -0.053395 -0.029790 -0.057059 -0.018086 -0.014129
  7H   1py       -0.051833 -0.053343 -0.037289 -0.027664  0.046188  0.061392
                     36        37        38        39        40        41   
                   0.75042   0.81999   0.84080   0.87012   0.95428   1.06784
                   0.00000   0.00000   0.00000   0.00000   0.00000   0.00000
                  --------  --------  --------  --------  --------  --------
  0C   1s         0.049322  0.000011  0.028876 -0.000007  0.005983 -0.000002
  0C   2s        -0.737471 -0.000171 -0.486992  0.000091 -0.022561  0.000075
  0C   3s         2.286247  0.000564  1.881238 -0.000389  1.286768  0.000017
  0C   1pz       -0.262753  0.001846  0.242450  0.004892 -0.044043  0.007649
  0C   1px        0.004632  0.016637  0.041778  0.046308  0.133427  0.071945
  0C   1py        0.016517  0.023475 -0.047848  0.065455 -0.091148  0.101616
  0C   2pz       -0.622998 -0.014134 -0.921288 -0.037857 -0.005303 -0.059308
  0C   2px       -1.024752 -0.130203 -1.604200 -0.357380 -1.077085 -0.557583
  0C   2py        0.772480 -0.182708  1.205143 -0.505501  0.762957 -0.787927
  0C   1dz2      -0.148765  0.002643  0.028646  0.005648 -0.020522 -0.014733
  0C   1dxz       0.002481  0.014817  0.032735  0.034937 -0.163333 -0.093218
  0C   1dyz       0.017618  0.019687 -0.018569  0.040005  0.117589 -0.102959
  0C   1dx2y2     0.000986  0.011268 -0.038900  0.083840  0.014945 -0.257043
  0C   1dxy      -0.001290  0.002396  0.103525  0.026052 -0.005161 -0.081523
  1O   1s        -0.020307  0.000057  0.176098 -0.000031  0.049025  0.000009
  1O   2s        -0.132644  0.000287  0.912143 -0.000161  0.323064  0.000054
  1O   3s         0.330119 -0.000267 -0.932543  0.000160 -0.148394 -0.000094
  1O   1pz       -0.101925 -0.047043 -0.525466 -0.025564  0.150743 -0.015354
  1O   1px       -0.108566 -0.440217  0.316582 -0.240923 -0.195804 -0.143943
  1O   1py        0.084523 -0.622012 -0.184316 -0.340217  0.127260 -0.203175
  1O   2pz        0.285187  0.058476  0.925574  0.036580 -0.170963  0.030862
  1O   2px        0.297937  0.546106 -0.713087  0.345181  0.433464  0.289502
  1O   2py       -0.232403  0.771865  0.434849  0.487390 -0.293995  0.408449
  1O   1dz2      -0.003011 -0.001129 -0.020631  0.001251 -0.008589 -0.003068
  1O   1dxz      -0.005574 -0.005330  0.009463  0.007698 -0.025124 -0.012626
  1O   1dyz       0.004897 -0.009111 -0.002826  0.008819  0.015735 -0.026126
  1O   1dx2y2    -0.002017  0.013789 -0.005640  0.018462  0.015670  0.073061
  1O   1dxy       0.007092  0.005551  0.014265  0.005740 -0.039007  0.027609
  2H   1s        -0.162939  0.000003  0.031299 -0.000002  0.034658 -0.000120
  2H   2s        -0.147898  0.000296  0.860512 -0.000132 -0.133589 -0.000074
  2H   1pz        0.021208  0.003631 -0.062058  0.004668 -0.105805  0.013283
  2H   1px        0.069722  0.034292 -0.075609  0.043740  0.061376  0.124967
  2H   1py       -0.050961  0.048492  0.058191  0.061763 -0.035479  0.176448
  3O   1s         0.123066 -0.000004  0.024343  0.000004  0.023290  0.000017
  3O   2s         0.521989 -0.000024  0.146358  0.000022  0.151869  0.000116
  3O   3s        -0.207853  0.000105 -0.034347 -0.000074 -0.425856 -0.000222
  3O   1pz        0.555371  0.031926  0.071124 -0.040827  0.070219 -0.020435
  3O   1px        0.054610  0.299921 -0.088159 -0.383554 -0.614964 -0.191705
  3O   1py       -0.080467  0.423713  0.056714 -0.541815  0.430073 -0.270825
  3O   2pz       -1.121904 -0.036327 -0.012484  0.058313 -0.049876  0.045452
  3O   2px        0.061487 -0.341235  0.314690  0.547766  1.110943  0.425983
  3O   2py        0.040951 -0.482243 -0.221425  0.773881 -0.782748  0.601803
  3O   1dz2      -0.023639 -0.001193  0.016142  0.001306 -0.011409  0.005829
  3O   1dxz      -0.003732 -0.006127 -0.002381  0.007695  0.060939  0.030309
  3O   1dyz       0.006665 -0.009407  0.000212  0.009574 -0.040531  0.045330
  3O   1dx2y2    -0.003667  0.006436 -0.002661  0.011753 -0.009151 -0.021174
  3O   1dxy       0.011686  0.003004  0.007936  0.003334  0.012450 -0.011029
  4C   1s        -0.053001 -0.000004 -0.016065  0.000003  0.011109  0.000011
  4C   2s         0.779351  0.000071  0.233920 -0.000033 -0.180885 -0.000117
  4C   3s        -4.183676 -0.001019 -3.083551  0.000604 -0.973833  0.000461
  4C   1pz        0.068150 -0.007077  0.077564  0.004896 -0.001903 -0.003571
  4C   1px       -0.008323 -0.066671 -0.063819  0.046109 -0.087891 -0.033700
  4C   1py        0.000759 -0.094132  0.039400  0.065114  0.062365 -0.047554
  4C   2pz       -0.773695  0.026230 -0.756755 -0.000058 -0.583936  0.038960
  4C   2px       -0.479128  0.248316 -0.624367 -0.001732 -0.086998  0.366194
  4C   2py        0.397520  0.351222  0.498908 -0.002756  0.105600  0.517024
  4C   1dz2       0.098294 -0.001427 -0.057013  0.001288 -0.031205  0.002855
  4C   1dxz       0.006197 -0.008801 -0.035695 -0.004459 -0.018210  0.035585
  4C   1dyz      -0.015177 -0.009877  0.034512  0.017731  0.020711  0.007624
  4C   1dx2y2    -0.009993 -0.022640 -0.004912 -0.212804 -0.014818  0.378358
  4C   1dxy       0.025819 -0.007107  0.022964 -0.075742  0.046999  0.131513
  5H   1s         0.296154  0.000055  0.086486 -0.022217 -0.091407 -0.096352
  5H   2s         0.309184 -0.300219  0.122795  0.107362 -0.084751 -0.137904
  5H   1pz       -0.068151  0.009682  0.037847 -0.010536  0.042147 -0.023204
  5H   1px       -0.000014 -0.002020  0.059386 -0.184413  0.051561  0.272553
  5H   1py       -0.028243  0.011406 -0.010037  0.097496 -0.031818 -0.148675
  6H   1s         0.358455  0.000032  0.081329 -0.000011 -0.028846 -0.000014
  6H   2s         0.688085  0.000112  0.428518 -0.000069  0.381674 -0.000019
  6H   1pz        0.065658  0.002224 -0.037180  0.010416 -0.037970 -0.013737
  6H   1px        0.037418  0.020998 -0.010773  0.097732 -0.034251 -0.128836
  6H   1py       -0.031441  0.029668  0.010444  0.138028  0.027125 -0.181946
  7H   1s         0.296156  0.000007  0.086502  0.022206 -0.091405  0.096279
  7H   2s         0.309184  0.300318  0.122558 -0.107425 -0.084758  0.137752
  7H   1pz       -0.064811 -0.008584  0.034369  0.007127  0.041356  0.027449
  7H   1px        0.031353  0.012095  0.026667  0.152594  0.044193 -0.232570
  7H   1py        0.016076  0.002764 -0.056347 -0.142411 -0.042266  0.205128
                     42        43        44        45        46        47   
                   1.08867   1.15566   1.26879   1.27867   1.36257   1.40459
                   0.00000   0.00000   0.00000   0.00000   0.00000   0.00000
                  --------  --------  --------  --------  --------  --------
  0C   1s         0.006665 -0.000239  0.095183  0.000019  0.000002  0.005698
  0C   2s        -0.321066 -0.190046 -1.139968 -0.000229 -0.000014 -0.053269
  0C   3s         0.411782 -1.122409 -0.375202 -0.000062  0.000091 -1.240154
  0C   1pz        0.117206 -0.177487 -0.154836 -0.001120  0.000626 -0.108143
  0C   1px        0.022012  0.052723 -0.072738 -0.010247  0.005777 -0.092818
  0C   1py       -0.024389 -0.023941  0.063170 -0.014431  0.008145  0.073871
  0C   2pz        0.081025  0.277254 -2.944578  0.031485 -0.005065 -1.423270
  0C   2px       -0.901531  0.407673 -2.339076  0.301339 -0.048375  2.923236
  0C   2py        0.631995 -0.309564  1.877767  0.426681 -0.067918 -1.962366
  0C   1dz2      -0.027179 -0.134396 -0.174072  0.042495 -0.004563 -0.111324
  0C   1dxz       0.035800  0.045543  0.042089  0.216866 -0.023252 -0.128169
  0C   1dyz      -0.019234 -0.017662 -0.008497  0.333793 -0.035897  0.093084
  0C   1dx2y2    -0.013693  0.010562  0.003904 -0.235430  0.026028  0.063135
  0C   1dxy       0.031266 -0.038790 -0.018248 -0.108961  0.011970 -0.149725
  1O   1s        -0.054665  0.064367 -0.117453 -0.000025 -0.000010  0.124050
  1O   2s        -0.278425  0.443760 -0.956925 -0.000200 -0.000080  1.049054
  1O   3s         0.346098 -0.751668  2.485373  0.000507  0.000233 -3.426698
  1O   1pz        0.309925  0.218606 -0.333685  0.008846 -0.001762  0.071528
  1O   1px        0.380649 -0.024744  0.062677  0.083880 -0.016469 -0.033049
  1O   1py       -0.292880  0.001037 -0.019258  0.118457 -0.023276  0.018006
  1O   2pz       -0.658771 -0.611191  1.600426 -0.029793  0.003785 -0.569184
  1O   2px       -1.285920 -0.244129 -0.019545 -0.283228  0.035065  0.301304
  1O   2py        0.960125  0.218908 -0.106634 -0.400091  0.049587 -0.170449
  1O   1dz2       0.047806  0.055284 -0.027390  0.005409 -0.000163 -0.093484
  1O   1dxz       0.050212 -0.012918  0.004860  0.040043 -0.001696 -0.023519
  1O   1dyz      -0.043027 -0.001253  0.005450  0.033734 -0.000715  0.022437
  1O   1dx2y2     0.001509  0.014437 -0.023448  0.203291 -0.014961  0.030324
  1O   1dxy      -0.016430 -0.039149  0.066293  0.068308 -0.005161 -0.080151
  2H   1s         0.825513  0.426883 -0.677060 -0.000151 -0.000027  0.419230
  2H   2s         0.388379  0.155110  0.125519  0.000021  0.000007 -0.111676
  2H   1pz        0.064516 -0.041777 -0.054607  0.044686 -0.002264 -0.563081
  2H   1px       -0.187283 -0.047870  0.139473  0.419994 -0.021527  0.162288
  2H   1py        0.127777  0.037067 -0.094822  0.593166 -0.030396 -0.072443
  3O   1s        -0.042784 -0.127198 -0.197754 -0.000038  0.000006 -0.082989
  3O   2s        -0.270069 -0.840655 -1.517290 -0.000300  0.000044 -0.638806
  3O   3s         0.321728  1.355158  4.353948  0.000895 -0.000112  1.903728
  3O   1pz        0.147655  0.276580 -0.043854  0.004538 -0.001533  0.024074
  3O   1px       -0.210814  0.122409 -0.161984  0.042761 -0.014355  0.134839
  3O   1py        0.138066 -0.107527  0.117933  0.060468 -0.020250 -0.097291
  3O   2pz       -0.313155 -0.876474 -1.222205 -0.024678  0.004546 -0.517048
  3O   2px        0.429875 -0.247082  0.664541 -0.229485  0.042416 -0.677840
  3O   2py       -0.280615  0.241014 -0.378225 -0.324404  0.059801  0.518874
  3O   1dz2       0.000102 -0.059139 -0.056704 -0.012490  0.001758 -0.030334
  3O   1dxz       0.019999 -0.007133  0.027017 -0.069053  0.009725 -0.042608
  3O   1dyz      -0.012929  0.013951 -0.014947 -0.094117  0.013238  0.032481
  3O   1dx2y2    -0.006800 -0.004261  0.012640 -0.032766  0.004705  0.010366
  3O   1dxy       0.014890  0.014661 -0.041550 -0.003911  0.000582 -0.019492
  4C   1s        -0.059062 -0.020579 -0.000364  0.000000 -0.000001  0.000918
  4C   2s         0.665032  0.205862  0.130583  0.000020  0.000015 -0.113661
  4C   3s        -2.493312  0.392788 -3.658278 -0.000753 -0.000216  2.812064
  4C   1pz       -0.051302  0.044841 -0.059668  0.002571 -0.000149  0.035546
  4C   1px        0.187971  0.050861 -0.067105  0.024254 -0.001386  0.066388
  4C   1py       -0.129228 -0.039380  0.051998  0.034298 -0.001950 -0.049681
  4C   2pz        0.034625 -0.146196 -0.209896 -0.022265  0.002156  1.482882
  4C   2px       -0.562520  0.372842 -1.050282 -0.209106  0.020874  0.104535
  4C   2py        0.395770 -0.252929  0.759518 -0.294859  0.029529 -0.185773
  4C   1dz2       0.091606 -0.294578  0.090568  0.006295 -0.000208  0.306117
  4C   1dxz       0.013693 -0.017685 -0.007934  0.029906 -0.000494  0.061541
  4C   1dyz      -0.019587  0.047485 -0.007618  0.050615 -0.001935 -0.084569
  4C   1dx2y2    -0.010488  0.018389  0.006087 -0.072987  0.010895 -0.001962
  4C   1dxy       0.025792 -0.044429 -0.016808 -0.029545  0.003958 -0.012815
  5H   1s         0.246028 -0.020887  0.145970  0.069843 -0.004300  0.003588
  5H   2s         0.373127  0.004599  0.335057  0.115336 -0.008704 -0.055311
  5H   1pz       -0.023927  0.168763 -0.044976 -0.011888  0.470192 -0.106562
  5H   1px       -0.136505  0.144222  0.036976 -0.098195 -0.033515 -0.093782
  5H   1py        0.064827  0.066654 -0.026062  0.076926  0.362897 -0.042101
  6H   1s         0.122251  0.167525  0.018039 -0.000009  0.000014 -0.296513
  6H   2s         0.043720  0.081313  0.141921  0.000029  0.000027 -0.514005
  6H   1pz        0.175649 -0.346132  0.007385 -0.002824 -0.035860  0.158906
  6H   1px        0.064386 -0.209735  0.024056 -0.026622 -0.336749  0.101237
  6H   1py       -0.058856  0.174544 -0.017590 -0.037633 -0.475623 -0.083672
  7H   1s         0.246047 -0.020875  0.146005 -0.069785  0.004318  0.003598
  7H   2s         0.373188  0.004598  0.335115 -0.115198  0.008726 -0.055330
  7H   1pz       -0.020551  0.150616 -0.044632  0.012516 -0.432732 -0.095002
  7H   1px       -0.104986 -0.026293  0.039996  0.104347  0.385507  0.015697
  7H   1py        0.109513 -0.174220 -0.021706 -0.068298  0.134279  0.112638
                     48        49        50        51        52        53   
                   1.43353   1.53600   1.56499   1.57319   1.61030   1.63905
                   0.00000   0.00000   0.00000   0.00000   0.00000   0.00000
                  --------  --------  --------  --------  --------  --------
  0C   1s         0.000006 -0.000005 -0.069247  0.044308 -0.000003 -0.001122
  0C   2s        -0.000052  0.000025  0.455848 -0.259984  0.000010  0.035904
  0C   3s         0.000139  0.000021 -0.090259  0.856522 -0.000037  0.382170
  0C   1pz        0.004305  0.002586 -0.251962  0.057041 -0.001538 -0.248145
  0C   1px        0.040310  0.024445  0.010421  0.276186 -0.014548  0.171161
  0C   1py        0.056900  0.034522  0.011611 -0.199839 -0.020526 -0.102481
  0C   2pz       -0.002339  0.010404 -0.830562 -0.751200  0.028577 -1.124921
  0C   2px       -0.022870  0.098251  0.913419  0.009041  0.268929  0.146913
  0C   2py       -0.031500  0.138844 -0.584173  0.050199  0.379568 -0.019187
  0C   1dz2       0.032271 -0.065063 -0.072263 -0.086700 -0.029335 -0.344299
  0C   1dxz       0.198661 -0.332800 -0.341544  0.082579 -0.169743 -0.095768
  0C   1dyz       0.229066 -0.509846  0.256420 -0.075752 -0.216217  0.101114
  0C   1dx2y2     0.462433  0.340382  0.002580  0.119471 -0.213993  0.059549
  0C   1dxy       0.143148  0.159727  0.071772 -0.359715 -0.057428 -0.143842
  1O   1s        -0.000012 -0.000003 -0.003054  0.027902 -0.000002  0.040129
  1O   2s        -0.000113 -0.000016  0.160770  0.291881  0.000004  0.388397
  1O   3s         0.000396  0.000014 -1.132143 -0.924200 -0.000102 -1.077654
  1O   1pz        0.000232  0.003853  0.002956 -0.010051  0.001964 -0.085972
  1O   1px        0.002323  0.036249  0.098023  0.051428  0.018394  0.011089
  1O   1py        0.003288  0.051190 -0.069637 -0.035652  0.025953 -0.001369
  1O   2pz       -0.007219 -0.033346 -0.445383 -0.248915 -0.008081 -0.111878
  1O   2px       -0.068875 -0.313254  0.249791  0.158956 -0.075538  0.525072
  1O   2py       -0.097243 -0.442484 -0.143225 -0.093786 -0.106635 -0.363329
  1O   1dz2       0.011218  0.022273  0.005484  0.107819 -0.000145  0.101216
  1O   1dxz       0.060252  0.117447 -0.000639 -0.017885 -0.001138 -0.041786
[...]
     19       0.000055   0.000087  -0.000053  -0.000028   0.000060   0.000030
     20       0.000083  -0.000053   0.000041   0.000112   0.000030  -0.000051
     21       0.000075  -0.000058  -0.000061  -0.000007  -0.000112  -0.000008
     22      -0.000058   0.000048  -0.000077  -0.000112  -0.000086  -0.000012
     23      -0.000061  -0.000077   0.000038  -0.000008  -0.000012   0.000071
                 18         19         20         21         22         23    
      0      -0.000037   0.000042  -0.000003  -0.000024   0.000004  -0.000044
      1       0.000042  -0.000008   0.000002   0.000004   0.000022   0.000003
      2      -0.000003   0.000002   0.000022  -0.000044   0.000003  -0.000020
      3      -0.000013   0.000011   0.000004  -0.000048   0.000018  -0.000016
      4       0.000011  -0.000004  -0.000003   0.000018   0.000008   0.000005
      5       0.000004  -0.000003   0.000002  -0.000016   0.000005   0.000009
      6      -0.000002   0.000002   0.000000  -0.000007   0.000003  -0.000003
      7       0.000002  -0.000001  -0.000000   0.000003  -0.000000   0.000001
      8       0.000000  -0.000000   0.000000  -0.000003   0.000001  -0.000000
      9      -0.000022   0.000028  -0.000026  -0.000004   0.000001  -0.000014
     10       0.000028  -0.000006   0.000020   0.000001   0.000004   0.000002
     11      -0.000026   0.000020  -0.000004  -0.000014   0.000002  -0.000020
     12       0.000035   0.000055   0.000083   0.000075  -0.000058  -0.000061
     13       0.000055   0.000087  -0.000053  -0.000058   0.000048  -0.000077
     14       0.000083  -0.000053   0.000041  -0.000061  -0.000077   0.000038
     15      -0.000037  -0.000028   0.000112  -0.000007  -0.000112  -0.000008
     16      -0.000028   0.000060   0.000030  -0.000112  -0.000086  -0.000012
     17       0.000112   0.000030  -0.000051  -0.000008  -0.000012   0.000071
     18       0.000009  -0.000124  -0.000190   0.000065   0.000015   0.000019
     19      -0.000124  -0.000107   0.000116   0.000015  -0.000021  -0.000111
     20      -0.000190   0.000116   0.000062   0.000019  -0.000111  -0.000072
     21       0.000065   0.000015   0.000019  -0.000049   0.000129   0.000129
     22       0.000015  -0.000021  -0.000111   0.000129   0.000025   0.000189
     23       0.000019  -0.000111  -0.000072   0.000129   0.000189  -0.000006

done   (      0.0 sec)
Dipol derivatives                                ... done   (      0.1 sec)

-------
TIMINGS
-------

Total SCF Hessian time: 0 days 0 hours 0 min 13 sec 
                   F(y)            G[Q(x)]           CPSCF         Total
Table01         0.3  0.02         0.3  0.03         5.7  0.43        13.1 
Table01a        0.3  0.02,        0.3, 0.03,        5.7  0.43        13.1 
Table01b        0.3   2.0,        0.3,  2.6,        5.7  43.4        13.1 

Writing the Hessian file to the disk             ... done


Maximum memory used throughout the entire calculation: 132.7 MB

-----------------------
VIBRATIONAL FREQUENCIES
-----------------------

Scaling factor for frequencies =  1.000000000  (already applied!)

   0:         0.00 cm**-1
   1:         0.00 cm**-1
   2:         0.00 cm**-1
   3:         0.00 cm**-1
   4:         0.00 cm**-1
   5:         0.00 cm**-1
   6:        70.47 cm**-1
   7:       414.22 cm**-1
   8:       528.64 cm**-1
   9:       573.46 cm**-1
  10:       670.24 cm**-1
  11:       848.20 cm**-1
  12:       953.87 cm**-1
  13:      1014.24 cm**-1
  14:      1167.79 cm**-1
  15:      1290.95 cm**-1
  16:      1355.97 cm**-1
  17:      1397.34 cm**-1
  18:      1405.36 cm**-1
  19:      1803.89 cm**-1
  20:      2987.35 cm**-1
  21:      3067.28 cm**-1
  22:      3119.57 cm**-1
  23:      3617.06 cm**-1


------------
NORMAL MODES
------------

These modes are the Cartesian displacements weighted by the diagonal matrix
M(i,i)=1/sqrt(m[i]) where m[i] is the mass of the displaced atom
Thus, these vectors are normalized but *not* orthogonal

                  0          1          2          3          4          5    
      0       0.000000   0.000000   0.000000   0.000000   0.000000   0.000000
      1       0.000000   0.000000   0.000000   0.000000   0.000000   0.000000
      2       0.000000   0.000000   0.000000   0.000000   0.000000   0.000000
      3       0.000000   0.000000   0.000000   0.000000   0.000000   0.000000
      4       0.000000   0.000000   0.000000   0.000000   0.000000   0.000000
      5       0.000000   0.000000   0.000000   0.000000   0.000000   0.000000
      6       0.000000   0.000000   0.000000   0.000000   0.000000   0.000000
      7       0.000000   0.000000   0.000000   0.000000   0.000000   0.000000
      8       0.000000   0.000000   0.000000   0.000000   0.000000   0.000000
      9       0.000000   0.000000   0.000000   0.000000   0.000000   0.000000
     10       0.000000   0.000000   0.000000   0.000000   0.000000   0.000000
     11       0.000000   0.000000   0.000000   0.000000   0.000000   0.000000
     12       0.000000   0.000000   0.000000   0.000000   0.000000   0.000000
     13       0.000000   0.000000   0.000000   0.000000   0.000000   0.000000
     14       0.000000   0.000000   0.000000   0.000000   0.000000   0.000000
     15       0.000000   0.000000   0.000000   0.000000   0.000000   0.000000
     16       0.000000   0.000000   0.000000   0.000000   0.000000   0.000000
     17       0.000000   0.000000   0.000000   0.000000   0.000000   0.000000
     18       0.000000   0.000000   0.000000   0.000000   0.000000   0.000000
     19       0.000000   0.000000   0.000000   0.000000   0.000000   0.000000
     20       0.000000   0.000000   0.000000   0.000000   0.000000   0.000000
     21       0.000000   0.000000   0.000000   0.000000   0.000000   0.000000
     22       0.000000   0.000000   0.000000   0.000000   0.000000   0.000000
     23       0.000000   0.000000   0.000000   0.000000   0.000000   0.000000
                  6          7          8          9         10         11    
      0      -0.007528  -0.042828  -0.133108   0.101400   0.066667   0.055172
      1      -0.010605   0.019181  -0.188075  -0.075332   0.094211  -0.049452
      2      -0.000773   0.144997  -0.014277   0.047247   0.007095   0.138239
      3      -0.027793  -0.170263   0.013411   0.002267  -0.058190   0.158972
      4      -0.039198   0.125098   0.018783   0.015122  -0.082165  -0.103393
      5      -0.002982  -0.060099   0.001436  -0.221748  -0.006188  -0.121371
      6       0.004470  -0.021705   0.396010   0.275392   0.535066   0.348406
      7       0.006338   0.038117   0.559241  -0.145293   0.755974  -0.214771
      8       0.000455  -0.292090   0.042481  -0.649191   0.057560  -0.417596
      9       0.030596   0.084941   0.037908  -0.249867  -0.034293  -0.011402
     10       0.043178  -0.070195   0.053606   0.170988  -0.048503  -0.006591
     11       0.003301   0.133328   0.004030   0.077558  -0.003706   0.193403
     12      -0.002319   0.108222   0.003314   0.166270   0.022264  -0.213015
     13      -0.003306  -0.065764   0.004817  -0.129115   0.031444   0.162392
     14      -0.000278  -0.143061   0.000389   0.151310   0.002386  -0.152665
     15      -0.009427   0.359778   0.391882   0.114798  -0.179254  -0.268270
     16       0.367621  -0.256108  -0.108052  -0.093046   0.060746   0.198868
     17       0.472058  -0.181881   0.169290   0.158129  -0.120673  -0.161806
     18      -0.304314  -0.136218   0.165494   0.235431  -0.056270  -0.276669
     19      -0.429693   0.137177   0.233399  -0.186050  -0.079380   0.213081
     20      -0.032402  -0.531208   0.017907   0.255504  -0.006009  -0.230867
     21       0.382116   0.373164  -0.221334   0.114815   0.108674  -0.264899
     22       0.158323  -0.235527   0.350098  -0.093436  -0.160649   0.202722
     23      -0.432643  -0.180192  -0.150943   0.158206   0.113179  -0.161123
                 12         13         14         15         16         17    
      0      -0.058229  -0.121478  -0.123102  -0.130361  -0.189891  -0.031607
      1       0.041694  -0.171472   0.084454   0.090244   0.131195   0.022620
      2      -0.004112  -0.012997   0.035629   0.026972   0.042858  -0.003225
      3       0.080901   0.017712   0.064841   0.041030   0.052479   0.006866
      4      -0.052353   0.024913  -0.034475  -0.030983  -0.038385  -0.004788
      5      -0.065237   0.001849  -0.150798   0.025442   0.016092  -0.000940
      6      -0.083796  -0.008928  -0.450835   0.285656   0.278920   0.026706
      7       0.044904  -0.012335   0.267500  -0.173070  -0.169243  -0.016135
      8       0.190592  -0.000689   0.680201  -0.384272  -0.371575  -0.036446
      9      -0.012756   0.025075   0.006575   0.020853   0.026221   0.006388
     10       0.011553   0.035435  -0.012102  -0.012596  -0.015262  -0.005914
     11      -0.033837   0.002633   0.098378  -0.028658  -0.043616   0.018368
     12      -0.056812   0.097636   0.060783  -0.042016   0.136375  -0.026944
     13       0.028421   0.137961  -0.038762   0.034510  -0.101846   0.016577
     14       0.154144   0.010573  -0.056596  -0.062933   0.070431   0.032827
     15       0.343731  -0.463433  -0.034429   0.409340  -0.470669  -0.083051
     16      -0.342602   0.170875   0.130525  -0.023814   0.148981  -0.350918
     17      -0.002026  -0.387633   0.096004   0.260967  -0.109242  -0.508394
     18      -0.407072  -0.212056   0.235245   0.235908  -0.129849   0.205442
     19       0.319587  -0.298486  -0.183204  -0.195029   0.117563  -0.173499
     20      -0.410953  -0.022920   0.220834   0.370201  -0.342167   0.379428
     21       0.436341   0.289392  -0.140919   0.140877  -0.289851   0.338210
     22      -0.209786  -0.418596  -0.020013  -0.402930   0.404477   0.243351
     23       0.007150   0.368982   0.084806   0.232652  -0.090061  -0.463929
                 18         19         20         21         22         23    
      0       0.014556   0.067618  -0.001787  -0.000349   0.000019   0.002736
      1       0.020538  -0.101067   0.001275  -0.000491  -0.000221  -0.001993
      2       0.001549   0.702951  -0.000139  -0.000037   0.002750   0.000740
      3      -0.001636   0.006132   0.000105   0.000040   0.000404   0.039280
      4      -0.002298   0.000377  -0.000084   0.000056  -0.000273  -0.030497
      5      -0.000177  -0.062394   0.000136   0.000004  -0.000173   0.035401
      6      -0.007562  -0.234152  -0.001467   0.000405  -0.001071  -0.643700
      7      -0.010628   0.140046   0.001236   0.000570   0.000872   0.499480
      8      -0.000787   0.339848  -0.002597   0.000045  -0.001494  -0.576556
      9      -0.001235  -0.022178   0.000120  -0.000113   0.000083  -0.000371
     10      -0.001746   0.049062  -0.000043  -0.000160   0.000018   0.000204
     11      -0.000119  -0.440585  -0.000554  -0.000012  -0.001023   0.000767
     12       0.030068  -0.026716   0.025929  -0.053100  -0.048480  -0.000382
     13       0.042493   0.023271  -0.021329  -0.074953   0.028691   0.000335
     14       0.003205  -0.057824   0.039065  -0.005626   0.075370  -0.000868
     15       0.348582  -0.081572   0.293863   0.315834   0.134199  -0.001906
     16      -0.300554  -0.000928   0.450306   0.493071   0.220102  -0.000781
     17      -0.157069  -0.120022  -0.337343  -0.390603  -0.154754   0.001453
     18      -0.417312   0.100925  -0.282838  -0.008425   0.587731  -0.000036
     19      -0.589578  -0.085716   0.179006  -0.012373  -0.373288  -0.000043
     20      -0.044127   0.189606   0.282857  -0.001143  -0.570405   0.000935
     21      -0.409862  -0.017898  -0.300807   0.330222  -0.151153   0.000006
     22       0.213894   0.088891  -0.389571   0.419356  -0.182884   0.001900
     23       0.150041  -0.113258  -0.400127   0.459301  -0.185209   0.001651


-----------
IR SPECTRUM
-----------

 Mode    freq (cm**-1)   T**2         TX         TY         TZ
-------------------------------------------------------------------
   6:        70.47    0.948611  (  0.559774   0.794860   0.058832)
   7:       414.22    3.839521  (  0.980814  -0.567790  -1.598481)
   8:       528.64   17.036072  (  2.380589   3.361990   0.256700)
   9:       573.46   37.433325  (  4.995350  -3.532640  -0.015892)
  10:       670.24   89.344950  (  5.448016   7.702143   0.584008)
  11:       848.20    3.813569  (  0.870854  -0.735468   1.585645)
  12:       953.87   50.001630  ( -5.381878   3.599399   2.842770)
  13:      1014.24    8.332234  ( -1.671361  -2.346746  -0.177674)
  14:      1167.79  200.089403  (-10.677412   7.105296   5.966326)
  15:      1290.95   10.651069  ( -2.027391   1.268452   2.220762)
  16:      1355.97   81.694300  ( -7.374004   5.225696  -0.102353)
  17:      1397.34   12.514957  ( -0.291091   0.474204  -3.493616)
  18:      1405.36    9.582345  ( -1.782244  -2.523776  -0.191068)
  19:      1803.89  272.895893  ( -1.389415  -0.260647  16.458964)
  20:      2987.35    1.549816  (  0.587351  -0.489195   0.982611)
  21:      3067.28    2.534566  ( -0.916544  -1.298198  -0.095891)
  22:      3119.57    2.677434  ( -1.047230   0.661447   1.069219)
  23:      3617.06   38.775461  ( -4.582325   3.430510  -2.451398)

The first frequency considered to be a vibration is 6
The total number of vibrations considered is 18


--------------------------
THERMOCHEMISTRY AT 298.15K
--------------------------

Temperature         ... 298.15 K
Pressure            ... 1.00 atm
Total Mass          ... 60.05 AMU

Throughout the following assumptions are being made:
  (1) The electronic state is orbitally nondegenerate
  (2) There are no thermally accessible electronically excited states
  (3) Hindered rotations indicated by low frequency modes are not
      treated as such but are treated as vibrations and this may
      cause some error
  (4) All equations used are the standard statistical mechanics
      equations for an ideal gas
  (5) All vibrations are strictly harmonic

freq.      70.47  E(vib)   ...       0.50 
freq.     414.22  E(vib)   ...       0.19 
freq.     528.64  E(vib)   ...       0.13 
freq.     573.46  E(vib)   ...       0.11 
freq.     670.24  E(vib)   ...       0.08 
freq.     848.20  E(vib)   ...       0.04 
freq.     953.87  E(vib)   ...       0.03 
freq.    1014.24  E(vib)   ...       0.02 
freq.    1167.79  E(vib)   ...       0.01 
freq.    1290.95  E(vib)   ...       0.01 
freq.    1355.97  E(vib)   ...       0.01 
freq.    1397.34  E(vib)   ...       0.00 
freq.    1405.36  E(vib)   ...       0.00 
freq.    1803.89  E(vib)   ...       0.00 
freq.    2987.35  E(vib)   ...       0.00 
freq.    3067.28  E(vib)   ...       0.00 
freq.    3119.57  E(vib)   ...       0.00 
freq.    3617.06  E(vib)   ...       0.00 

------------
INNER ENERGY
------------

The inner energy is: U= E(el) + E(ZPE) + E(vib) + E(rot) + E(trans)
    E(el)   - is the total energy from the electronic structure calculation
              = E(kin-el) + E(nuc-el) + E(el-el) + E(nuc-nuc)
    E(ZPE)  - the the zero temperature vibrational energy from the frequency calculation
    E(vib)  - the the finite temperature correction to E(ZPE) due to population
              of excited vibrational states
    E(rot)  - is the rotational thermal energy
    E(trans)- is the translational thermal energy

Summary of contributions to the inner energy U:
Electronic energy                ...   -228.86215998 Eh
Zero point energy                ...      0.05988369 Eh      37.58 kcal/mol
Thermal vibrational correction   ...      0.00179295 Eh       1.13 kcal/mol
Thermal rotational correction    ...      0.00141627 Eh       0.89 kcal/mol
Thermal translational correction ...      0.00141627 Eh       0.89 kcal/mol
-----------------------------------------------------------------------
Total thermal energy                   -228.79765081 Eh


Summary of corrections to the electronic energy:
(perhaps to be used in another calculation)
Total thermal correction                  0.00462549 Eh       2.90 kcal/mol
Non-thermal (ZPE) correction              0.05988369 Eh      37.58 kcal/mol
-----------------------------------------------------------------------
Total correction                          0.06450918 Eh      40.48 kcal/mol


--------
ENTHALPY
--------

The enthalpy is H = U + kB*T
                kB is Boltzmann's constant
Total free energy                 ...   -228.79765081 Eh 
Thermal Enthalpy correction       ...      0.00094421 Eh       0.59 kcal/mol
-----------------------------------------------------------------------
Total Enthalpy                    ...   -228.79670660 Eh


Note: Only C1 symmetry has been detected, increase convergence thresholds 
      if your molecule has a higher symmetry. Symmetry factor of 1.0 is   
      used for the rotational entropy correction. 
 

Note: Rotational entropy computed according to Herzberg 
Infrared and Raman Spectra, Chapter V,1, Van Nostrand Reinhold, 1945 
Point Group:  C1, Symmetry Number:   1  
Rotational constants in cm-1:     0.370485     0.310658     0.174585 

Vibrational entropy computed according to the QRRHO of S. Grimme
Chem.Eur.J. 2012 18 9955


-------
ENTROPY
-------

The entropy contributions are T*S = T*(S(el)+S(vib)+S(rot)+S(trans))
     S(el)   - electronic entropy
     S(vib)  - vibrational entropy
     S(rot)  - rotational entropy
     S(trans)- translational entropy
The entropies will be listed as mutliplied by the temperature to get
units of energy

Electronic entropy                ...      0.00000000 Eh      0.00 kcal/mol
Vibrational entropy               ...      0.00296666 Eh      1.86 kcal/mol
Rotational entropy                ...      0.01135543 Eh      7.13 kcal/mol
Translational entropy             ...      0.01814900 Eh     11.39 kcal/mol
-----------------------------------------------------------------------
Final entropy term                ...      0.03247110 Eh     20.38 kcal/mol

In case the symmetry of your molecule has not been determined correctly
or in case you have a reason to use a different symmetry number we print 
out the resulting rotational entropy values for sn=1,12 :
 --------------------------------------------------------
|  sn= 1 | S(rot)=       0.01135543 Eh      7.13 kcal/mol|
|  sn= 2 | S(rot)=       0.01070098 Eh      6.71 kcal/mol|
|  sn= 3 | S(rot)=       0.01031814 Eh      6.47 kcal/mol|
|  sn= 4 | S(rot)=       0.01004652 Eh      6.30 kcal/mol|
|  sn= 5 | S(rot)=       0.00983583 Eh      6.17 kcal/mol|
|  sn= 6 | S(rot)=       0.00966369 Eh      6.06 kcal/mol|
|  sn= 7 | S(rot)=       0.00951814 Eh      5.97 kcal/mol|
|  sn= 8 | S(rot)=       0.00939206 Eh      5.89 kcal/mol|
|  sn= 9 | S(rot)=       0.00928086 Eh      5.82 kcal/mol|
|  sn=10 | S(rot)=       0.00918138 Eh      5.76 kcal/mol|
|  sn=11 | S(rot)=       0.00909139 Eh      5.70 kcal/mol|
|  sn=12 | S(rot)=       0.00900923 Eh      5.65 kcal/mol|
 --------------------------------------------------------


-------------------
GIBBS FREE ENERGY
-------------------

The Gibbs free energy is G = H - T*S

Total enthalpy                    ...   -228.79670660 Eh 
Total entropy correction          ...     -0.03247110 Eh    -20.38 kcal/mol
-----------------------------------------------------------------------
Final Gibbs free energy         ...   -228.82917770 Eh

For completeness - the Gibbs free energy minus the electronic energy
G-E(el)                           ...      0.03298229 Eh     20.70 kcal/mol


Timings for individual modules:

Sum of individual times         ...       48.735 sec (=   0.812 min)
GTO integral calculation        ...        3.453 sec (=   0.058 min)   7.1 %
SCF iterations                  ...       23.982 sec (=   0.400 min)  49.2 %
SCF Gradient evaluation         ...        7.667 sec (=   0.128 min)  15.7 %
Geometry relaxation             ...        0.231 sec (=   0.004 min)   0.5 %
Analytical frequency calculation...       13.402 sec (=   0.223 min)  27.5 %
                             ****ORCA TERMINATED NORMALLY****
TOTAL RUN TIME: 0 days 0 hours 0 minutes 49 seconds 645 msec
