
                                 *****************
                                 * O   R   C   A *
                                 *****************

           --- An Ab Initio, DFT and Semiempirical electronic structure package ---

                  #######################################################
                  #                        -***-                        #
                  #          Department of theory and spectroscopy      #
                  #               Directorship: Frank Neese             #
                  #        Max Planck Institute fuer Kohlenforschung    #
                  #                Kaiser Wilhelm Platz 1               #
                  #                 D-45470 Muelheim/Ruhr               #
                  #                      Germany                        #
                  #                                                     #
                  #                  All rights reserved                #
                  #                        -***-                        #
                  #######################################################


                         Program Version 4.2.1 -  RELEASE  -


 With contributions from (in alphabetic order):
   Daniel Aravena         : Magnetic Suceptibility
   Michael Atanasov       : Ab Initio Ligand Field Theory (pilot matlab implementation)
   Alexander A. Auer      : GIAO ZORA, VPT2
   Ute Becker             : Parallelization
   Giovanni Bistoni       : ED, misc. LED, open-shell LED, HFLD
   Martin Brehm           : Molecular dynamics
   Dmytro Bykov           : SCF Hessian
   Vijay G. Chilkuri      : MRCI spin determinant printing, contributions to CSF-ICE
   Dipayan Datta          : RHF DLPNO-CCSD density
   Achintya Kumar Dutta   : EOM-CC, STEOM-CC
   Dmitry Ganyushin       : Spin-Orbit,Spin-Spin,Magnetic field MRCI
   Miquel Garcia          : C-PCM Hessian, Gaussian charge scheme
   Yang Guo               : DLPNO-NEVPT2, CIM, IAO-localization
   Andreas Hansen         : Spin unrestricted coupled pair/coupled cluster methods
   Benjamin Helmich-Paris : CASSCF linear response (MC-RPA)
   Lee Huntington         : MR-EOM, pCC
   Robert Izsak           : Overlap fitted RIJCOSX, COSX-SCS-MP3, EOM
   Christian Kollmar      : KDIIS, OOCD, Brueckner-CCSD(T), CCSD density
   Simone Kossmann        : Meta GGA functionals, TD-DFT gradient, OOMP2, MP2 Hessian
   Martin Krupicka        : AUTO-CI
   Lucas Lang             : DCDCAS
   Dagmar Lenk            : GEPOL surface, SMD
   Dimitrios Liakos       : Extrapolation schemes; Compound Job, initial MDCI parallelization
   Dimitrios Manganas     : Further ROCIS development; embedding schemes
   Dimitrios Pantazis     : SARC Basis sets
   Taras Petrenko         : DFT Hessian,TD-DFT gradient, ASA, ECA, R-Raman, ABS, FL, XAS/XES, NRVS
   Peter Pinski           : DLPNO-MP2, DLPNO-MP2 Gradient
   Christoph Reimann      : Effective Core Potentials
   Marius Retegan         : Local ZFS, SOC
   Christoph Riplinger    : Optimizer, TS searches, QM/MM, DLPNO-CCSD(T), (RO)-DLPNO pert. Triples
   Tobias Risthaus        : Range-separated hybrids, TD-DFT gradient, RPA, STAB
   Michael Roemelt        : Original ROCIS implementation
   Masaaki Saitow         : Open-shell DLPNO-CCSD energy and density
   Barbara Sandhoefer     : DKH picture change effects
   Avijit Sen             : IP-ROCIS
   Kantharuban Sivalingam : CASSCF convergence, NEVPT2, FIC-MRCI
   Bernardo de Souza      : ESD, SOC TD-DFT
   Georgi Stoychev        : AutoAux, RI-MP2 NMR
   Willem Van den Heuvel  : Paramagnetic NMR
   Boris Wezisla          : Elementary symmetry handling
   Frank Wennmohs         : Technical directorship


 We gratefully acknowledge several colleagues who have allowed us to
 interface, adapt or use parts of their codes:
   Stefan Grimme, W. Hujo, H. Kruse,             : VdW corrections, initial TS optimization,
                  C. Bannwarth                     DFT functionals, gCP, sTDA/sTD-DF
   Ed Valeev, F. Pavosevic, A. Kumar             : LibInt (2-el integral package), F12 methods
   Garnet Chan, S. Sharma, J. Yang, R. Olivares  : DMRG
   Ulf Ekstrom                                   : XCFun DFT Library
   Mihaly Kallay                                 : mrcc  (arbitrary order and MRCC methods)
   Andreas Klamt, Michael Diedenhofen            : otool_cosmo (COSMO solvation model)
   Jiri Pittner, Ondrej Demel                    : Mk-CCSD
   Frank Weinhold                                : gennbo (NPA and NBO analysis)
   Christopher J. Cramer and Donald G. Truhlar   : smd solvation model
   Lars Goerigk                                  : TD-DFT with DH, B97 family of functionals
   V. Asgeirsson, H. Jonsson                     : NEB implementation
   FAccTs GmbH                                   : IRC, NEB, NEB-TS, Multilevel, MM, QM/MM, CI optimization
   S Lehtola, MJT Oliveira, MAL Marques          : LibXC Library


 Your calculation uses the libint2 library for the computation of 2-el integrals
 For citations please refer to: http://libint.valeyev.net

 Your ORCA version has been built with support for libXC version: 4.2.3
 For citations please refer to: https://tddft.org/programs/libxc/

 This ORCA versions uses:
   CBLAS   interface :  Fast vector & matrix operations
   LAPACKE interface :  Fast linear algebra routines
   SCALAPACK package :  Parallel linear algebra routines




***************************************
The coordinates will be read from file: init.xyz
***************************************


Your calculation utilizes the geometrical counterpoise correction gCP
Please cite in your paper:
H.Kruse, S. Grimme J.Chem.Phys., 136, (2012), 154101 
   

Your calculation utilizes the atom-pairwise dispersion correction
based on tight binding partial charges (D4)
Cite in your paper:
E.Caldeweyher, C.Bannwarth, S.Grimme, J.Chem.Phys., (2017), 147, 034112.
E.Caldeweyher, S.Ehlert, A.Hansen, H.Neugebauer, S.Grimme, J.Chem.Phys., (2018), in progress.
   

----- Orbital basis set information -----
Your calculation utilizes the basis: def2-SVP
   F. Weigend and R. Ahlrichs, Phys. Chem. Chem. Phys. 7, 3297 (2005).

----- AuxJ basis set information -----
Your calculation utilizes the auxiliary basis: def2/J
   F. Weigend, Phys. Chem. Chem. Phys. 8, 1057 (2006).

================================================================================
                                        WARNINGS
                       Please study these warnings very carefully!
================================================================================


WARNING: Geometry Optimization
  ===> : Switching off AutoStart
         For restart on a previous wavefunction, please use MOREAD

INFO   : the flag for use of LIBINT has been found!

================================================================================
                                       INPUT FILE
================================================================================
NAME = opt.inp
|  1> ! revPBE D4 gCP(DFT/TZ) def2-SVP Opt Freq TightOpt TightSCF Grid4 FinalGrid5 LargePrint
|  2> 
|  3> %pal
|  4>  nprocs 8
|  5> end
|  6> 
|  7> *xyzfile 0 1 init.xyz
|  8> 
|  9>                          ****END OF INPUT****
================================================================================

                       *****************************
                       * Geometry Optimization Run *
                       *****************************

Geometry optimization settings:
Update method            Update   .... BFGS
Choice of coordinates    CoordSys .... Z-matrix Internals
Initial Hessian          InHess   .... Almoef's Model

Convergence Tolerances:
Energy Change            TolE     ....  1.0000e-06 Eh
Max. Gradient            TolMAXG  ....  1.0000e-04 Eh/bohr
RMS Gradient             TolRMSG  ....  3.0000e-05 Eh/bohr
Max. Displacement        TolMAXD  ....  1.0000e-03 bohr
RMS Displacement         TolRMSD  ....  6.0000e-04 bohr
Strict Convergence                ....  False
------------------------------------------------------------------------------
                        ORCA OPTIMIZATION COORDINATE SETUP
------------------------------------------------------------------------------

The optimization will be done in new redundant internal coordinates
Making redundant internal coordinates   ...  (new redundants) done
Evaluating the initial hessian          ...  (Almloef) done
Evaluating the coordinates              ...  done
Calculating the B-matrix                .... done
Calculating the G-matrix                .... done
Diagonalizing the G-matrix              .... done
The first mode is                       ....   12
The number of degrees of freedom        ....   24

    -----------------------------------------------------------------
                    Redundant Internal Coordinates


    -----------------------------------------------------------------
         Definition                    Initial Value    Approx d2E/dq
    -----------------------------------------------------------------
      1. B(C   1,C   0)                  1.4978         0.420429   
      2. B(C   2,C   0)                  1.4978         0.420430   
      3. B(H   3,C   2)                  1.1101         0.334507   
      4. B(H   4,C   2)                  1.1110         0.333344   
      5. B(H   5,C   2)                  1.1101         0.334514   
      6. B(O   6,C   0)                  1.2217         1.038622   
      7. B(H   7,C   1)                  1.1101         0.334513   
      8. B(H   8,C   1)                  1.1101         0.334519   
      9. B(H   9,C   1)                  1.1110         0.333347   
     10. A(C   1,C   0,O   6)          119.9750         0.441246   
     11. A(C   2,C   0,O   6)          119.9751         0.441246   
     12. A(C   1,C   0,C   2)          120.0498         0.378425   
     13. A(C   0,C   1,H   8)          109.6463         0.326699   
     14. A(C   0,C   1,H   9)          110.7208         0.326511   
     15. A(H   7,C   1,H   8)          109.2127         0.284217   
     16. A(H   8,C   1,H   9)          108.7937         0.284063   
     17. A(H   7,C   1,H   9)          108.7929         0.284062   
     18. A(C   0,C   1,H   7)          109.6462         0.326698   
     19. A(H   4,C   2,H   5)          108.7936         0.284062   
     20. A(H   3,C   2,H   5)          109.2122         0.284216   
     21. A(C   0,C   2,H   4)          110.7209         0.326510   
     22. A(C   0,C   2,H   5)          109.6462         0.326699   
     23. A(H   3,C   2,H   4)          108.7934         0.284061   
     24. A(C   0,C   2,H   3)          109.6463         0.326698   
     25. D(H   9,C   1,C   0,C   2)    179.9997         0.013070   
     26. D(H   8,C   1,C   0,O   6)    120.0515         0.013070   
     27. D(H   7,C   1,C   0,C   2)     59.9493         0.013070   
     28. D(H   9,C   1,C   0,O   6)      0.0000         0.013070   
     29. D(H   8,C   1,C   0,C   2)    -59.9488         0.013070   
     30. D(H   7,C   1,C   0,O   6)   -120.0504         0.013070   
     31. D(H   3,C   2,C   0,C   1)    -59.9487         0.013070   
     32. D(H   5,C   2,C   0,O   6)   -120.0515         0.013070   
     33. D(H   5,C   2,C   0,C   1)     59.9488         0.013070   
     34. D(H   4,C   2,C   0,O   6)     -0.0002         0.013070   
     35. D(H   4,C   2,C   0,C   1)   -179.9999         0.013070   
     36. D(H   3,C   2,C   0,O   6)    120.0510         0.013070   
    -----------------------------------------------------------------

Number of atoms                         .... 10
Number of degrees of freedom            .... 36

         *************************************************************
         *                GEOMETRY OPTIMIZATION CYCLE   1            *
         *************************************************************
---------------------------------
CARTESIAN COORDINATES (ANGSTROEM)
---------------------------------
  C     -9.662090    2.947350   -1.233390
  C     -8.957690    1.627270   -1.164670
  C    -10.106140    3.492600   -2.555900
  H     -9.226080    3.625540   -3.219280
  H    -10.609030    4.474900   -2.427270
  H    -10.818190    2.785790   -3.030920
  O     -9.874590    3.579790   -0.210010
  H     -8.022990    1.671470   -1.761850
  H     -9.615100    0.831720   -1.573500
  H     -8.699630    1.373630   -0.114230

----------------------------
CARTESIAN COORDINATES (A.U.)
----------------------------
  NO LB      ZA    FRAG     MASS         X           Y           Z
   0 C     6.0000    0    12.011  -18.258704    5.569684   -2.330769
   1 C     6.0000    0    12.011  -16.927581    3.075095   -2.200907
   2 C     6.0000    0    12.011  -19.097837    6.600057   -4.829951
   3 H     1.0000    0     1.008  -17.434764    6.851278   -6.083558
   4 H     1.0000    0     1.008  -20.048161    8.456335   -4.586876
   5 H     1.0000    0     1.008  -20.443416    5.264380   -5.727609
   6 O     8.0000    0    15.999  -18.660271    6.764823   -0.396861
   7 H     1.0000    0     1.008  -15.161254    3.158621   -3.329414
   8 H     1.0000    0     1.008  -18.169906    1.571723   -2.973484
   9 H     1.0000    0     1.008  -16.439918    2.595785   -0.215863

--------------------------------
INTERNAL COORDINATES (ANGSTROEM)
--------------------------------
 C      0   0   0     0.000000000000     0.00000000     0.00000000
 C      1   0   0     1.497836107456     0.00000000     0.00000000
 C      1   2   0     1.497835326429   120.04983193     0.00000000
 H      3   1   2     1.110068318438   109.64633044   300.05126515
 H      3   1   2     1.111016345064   110.72092674   180.00009175
 H      3   1   2     1.110062871643   109.64623960    59.94876783
 O      1   2   3     1.221655936833   119.97503878   180.00027952
 H      2   1   3     1.110063819066   109.64623286    59.94933271
 H      2   1   3     1.110058412652   109.64627057   300.05118581
 H      2   1   3     1.111014134384   110.72080668   179.99972075

---------------------------
INTERNAL COORDINATES (A.U.)
---------------------------
 C      0   0   0     0.000000000000     0.00000000     0.00000000
 C      1   0   0     2.830500036591     0.00000000     0.00000000
 C      1   2   0     2.830498560664   120.04983193     0.00000000
 H      3   1   2     2.097725111791   109.64633044   300.05126515
 H      3   1   2     2.099516622482   110.72092674   180.00009175
 H      3   1   2     2.097714818839   109.64623960    59.94876783
 O      1   2   3     2.308595150494   119.97503878   180.00027952
 H      2   1   3     2.097716609210   109.64623286    59.94933271
 H      2   1   3     2.097706392568   109.64627057   300.05118581
 H      2   1   3     2.099512444900   110.72080668   179.99972075

---------------------
BASIS SET INFORMATION
---------------------
There are 3 groups of distinct atoms

 Group   1 Type C   : 7s4p1d contracted to 3s2p1d pattern {511/31/1}
 Group   2 Type H   : 4s1p contracted to 2s1p pattern {31/1}
 Group   3 Type O   : 7s4p1d contracted to 3s2p1d pattern {511/31/1}

Atom   0C    basis set group =>   1
Atom   1C    basis set group =>   1
Atom   2C    basis set group =>   1
Atom   3H    basis set group =>   2
Atom   4H    basis set group =>   2
Atom   5H    basis set group =>   2
Atom   6O    basis set group =>   3
Atom   7H    basis set group =>   2
Atom   8H    basis set group =>   2
Atom   9H    basis set group =>   2

-------------------------
BASIS SET IN INPUT FORMAT
-------------------------

 # Basis set for element : H 
 NewGTO H 
 S 3 
   1      13.0107010000      0.0334854848
   2       1.9622572000      0.2347218709
   3       0.4445379600      0.8137702853
 S 1 
   1       0.1219496200      1.0000000000
 P 1 
   1       0.8000000000      1.0000000000
  end;

 # Basis set for element : C 
 NewGTO C 
 S 5 
   1    1238.4016938000      0.0055173650
   2     186.2900499200      0.0410888285
   3      42.2511763460      0.1822538213
   4      11.6765579320      0.4682845944
   5       3.5930506482      0.4457581734
 S 1 
   1       0.4024514736      1.0000000000
 S 1 
   1       0.1309018267      1.0000000000
 P 3 
   1       9.4680970621      0.0568883320
   2       2.0103545142      0.3129405934
   3       0.5477100471      0.7606501651
 P 1 
   1       0.1526861379      1.0000000000
 D 1 
   1       0.8000000000      1.0000000000
  end;

 # Basis set for element : O 
 NewGTO O 
 S 5 
   1    2266.1767785000     -0.0053893504
   2     340.8701019100     -0.0402347214
   3      77.3631351670     -0.1800818421
   4      21.4796449400     -0.4682885766
   5       6.6589433124     -0.4469261716
 S 1 
   1       0.8097597567      1.0000000000
 S 1 
   1       0.2553077223      1.0000000000
 P 3 
   1      17.7215043170      0.0626302488
   2       3.8635505440      0.3333113849
   3       1.0480920883      0.7414863830
 P 1 
   1       0.2764154441      1.0000000000
 D 1 
   1       1.2000000000      1.0000000000
  end;

---------------------------------
AUXILIARY/J BASIS SET INFORMATION
---------------------------------
There are 3 groups of distinct atoms

 Group   1 Type C   : 12s5p4d2f1g contracted to 6s4p3d1f1g pattern {711111/2111/211/2/1}
 Group   2 Type H   : 5s2p1d contracted to 3s1p1d pattern {311/2/1}
 Group   3 Type O   : 12s5p4d2f1g contracted to 6s4p3d1f1g pattern {711111/2111/211/2/1}

Atom   0C    basis set group =>   1
Atom   1C    basis set group =>   1
Atom   2C    basis set group =>   1
Atom   3H    basis set group =>   2
Atom   4H    basis set group =>   2
Atom   5H    basis set group =>   2
Atom   6O    basis set group =>   3
Atom   7H    basis set group =>   2
Atom   8H    basis set group =>   2
Atom   9H    basis set group =>   2

-------------------------------------
AUXILIARY/J BASIS SET IN INPUT FORMAT
-------------------------------------

 # Auxiliary/J basis set for element : H 
 NewAuxJGTO H 
 S 3 
   1      15.6752927000      0.1007184237
   2       3.6063578000      0.3404257499
   3       1.2080016000      0.6491996172
 S 1 
   1       0.4726794000      1.0000000000
 S 1 
   1       0.2018100000      1.0000000000
 P 2 
   1       2.0281365000      0.5596620919
   2       0.5358730000      0.5596620919
 D 1 
   1       2.2165124000      1.0000000000
  end;

 # Auxiliary/J basis set for element : C 
 NewAuxJGTO C 
 S 7 
   1    1861.0916331000      0.0134602335
   2     642.9939764000      0.0299160374
   3     235.1105725000      0.1008649584
   4      90.7028894000      0.2370970548
   5      36.7794552000      0.3924037254
   6      15.6046273000      0.3195862154
   7       6.8907294000      0.0530104441
 S 1 
   1       3.1478850000     -1.0000000000
 S 1 
   1       1.4777287000      1.0000000000
 S 1 
   1       0.7076466000      1.0000000000
 S 1 
   1       0.3430122000      1.0000000000
 S 1 
   1       0.1669453000      1.0000000000
 P 2 
   1      13.5472892000     -0.6769313712
   2       5.4669419000     -0.3779500978
 P 1 
   1       2.1751721000      1.0000000000
 P 1 
   1       0.8582194000      1.0000000000
 P 1 
   1       0.3376720000      1.0000000000
 D 2 
   1       5.9287253000     -0.3533329857
   2       1.9809209000     -0.7456525731
 D 1 
   1       0.8055417000     -1.0000000000
 D 1 
   1       0.3531244000     -1.0000000000
 F 2 
   1       1.6755626000      0.6311076882
   2       0.5997536000      0.4968166032
 G 1 
   1       1.0024600000     -1.0000000000
  end;

 # Auxiliary/J basis set for element : O 
 NewAuxJGTO O 
 S 7 
   1    2876.8216605000      0.0168151159
   2    1004.7443032000      0.0340137548
   3     369.7579954000      0.1194951309
   4     142.9442404000      0.2664627624
   5      57.8366425000      0.4202764046
   6      24.3864983000      0.2765077335
   7      10.6622662000      0.0057008815
 S 1 
   1       4.8070437000     -1.0000000000
 S 1 
   1       2.2210770000      1.0000000000
 S 1 
   1       1.0447795000      1.0000000000
 S 1 
   1       0.4968425000      1.0000000000
 S 1 
   1       0.2371384000      1.0000000000
 P 2 
   1      64.2613382000     -0.2731534179
   2      16.3006076000     -0.8168011598
 P 1 
   1       4.3550542000      1.0000000000
 P 1 
   1       1.2019554000      1.0000000000
 P 1 
   1       0.3354196000      1.0000000000
 D 2 
   1       9.2146611000     -0.4661230638
   2       2.8435251000     -0.6600908911
 D 1 
   1       0.9955759000     -1.0000000000
 D 1 
   1       0.3649441000     -1.0000000000
 F 2 
   1       2.6420115000      0.5931563945
   2       0.7345613000      0.5931563945
 G 1 
   1       1.3931000000     -1.0000000000
  end;



           ************************************************************
           *        Program running with 8 parallel MPI-processes     *
           *              working on a common directory               *
           ************************************************************
------------------------------------------------------------------------------
                           ORCA GTO INTEGRAL CALCULATION
                           -- RI-GTO INTEGRALS CHOSEN --
------------------------------------------------------------------------------

                         BASIS SET STATISTICS AND STARTUP INFO

Gaussian basis set:
 # of primitive gaussian shells          ...   78
 # of primitive gaussian functions       ...  138
 # of contracted shells                  ...   42
 # of contracted basis functions         ...   86
 Highest angular momentum                ...    2
 Maximum contraction depth               ...    5
Auxiliary gaussian basis set:
 # of primitive gaussian shells          ...  144
 # of primitive gaussian functions       ...  376
 # of contracted shells                  ...   90
 # of contracted aux-basis functions     ...  262
 Highest angular momentum                ...    4
 Maximum contraction depth               ...    7
Ratio of auxiliary to basis functions    ...  3.05
Integral package used                  ... LIBINT
 One Electron integrals                  ... done
 Ordering auxiliary basis shells         ... done
 Integral threshhold             Thresh  ...  2.500e-11
 Primitive cut-off               TCut    ...  2.500e-12
 Pre-screening matrix                    ... done
 Shell pair data                         ... 
 Ordering of the shell pairs             ... done (   0.000 sec) 898 of 903 pairs
 Determination of significant pairs      ... done (   0.000 sec)
 Creation of shell pair data             ... done (   0.000 sec)
 Storage of shell pair data              ... done (   0.003 sec)
 Shell pair data done in (   0.004 sec)
 Computing two index integrals           ... done
 Cholesky decomposition of the V-matrix  ... done


Timings:
 Total evaluation time                   ...   0.142 sec (  0.002 min)
 One electron matrix time                ...   0.008 sec (  0.000 min) =  5.8%
 Schwartz matrix evaluation time         ...   0.106 sec (  0.002 min) = 74.7%
 Two index repulsion integral time       ...   0.002 sec (  0.000 min) =  1.5%
 Cholesky decomposition of V             ...   0.003 sec (  0.000 min) =  2.0%
 Three index repulsion integral time     ...   0.000 sec (  0.000 min) =  0.0%



           ************************************************************
           *        Program running with 8 parallel MPI-processes     *
           *              working on a common directory               *
           ************************************************************
-------------------------------------------------------------------------------
                                 ORCA SCF
-------------------------------------------------------------------------------

------------
SCF SETTINGS
------------
Hamiltonian:
 Density Functional     Method          .... DFT(GTOs)
 Exchange Functional    Exchange        .... PBE
   PBE kappa parameter   XKappa         ....  1.245000
   PBE mue parameter    XMuePBE         ....  0.219520
 Correlation Functional Correlation     .... PBE
   PBE beta parameter  CBetaPBE         ....  0.066725
 LDA part of GGA corr.  LDAOpt          .... PW91-LDA
 Gradients option       PostSCFGGA      .... off
   Density functional embedding theory  .... OFF
   NL short-range parameter             ....  3.700000
 RI-approximation to the Coulomb term is turned on
   Number of auxiliary basis functions  .... 262


General Settings:
 Integral files         IntName         .... opt
 Hartree-Fock type      HFTyp           .... RHF
 Total Charge           Charge          ....    0
 Multiplicity           Mult            ....    1
 Number of Electrons    NEL             ....   32
 Basis Dimension        Dim             ....   86
 Nuclear Repulsion      ENuc            ....    119.3692927935 Eh

Convergence Acceleration:
 DIIS                   CNVDIIS         .... on
   Start iteration      DIISMaxIt       ....    12
   Startup error        DIISStart       ....  0.200000
   # of expansion vecs  DIISMaxEq       ....     5
   Bias factor          DIISBfac        ....   1.050
   Max. coefficient     DIISMaxC        ....  10.000
 Newton-Raphson         CNVNR           .... off
 SOSCF                  CNVSOSCF        .... on
   Start iteration      SOSCFMaxIt      ....   150
   Startup grad/error   SOSCFStart      ....  0.003300
 Level Shifting         CNVShift        .... on
   Level shift para.    LevelShift      ....    0.2500
   Turn off err/grad.   ShiftErr        ....    0.0010
 Zerner damping         CNVZerner       .... off
 Static damping         CNVDamp         .... on
   Fraction old density DampFac         ....    0.7000
   Max. Damping (<1)    DampMax         ....    0.9800
   Min. Damping (>=0)   DampMin         ....    0.0000
   Turn off err/grad.   DampErr         ....    0.1000
 Fernandez-Rico         CNVRico         .... off

SCF Procedure:
 Maximum # iterations   MaxIter         ....   125
 SCF integral mode      SCFMode         .... Direct
   Integral package                     .... LIBINT
 Reset frequency        DirectResetFreq ....    20
 Integral Threshold     Thresh          ....  2.500e-11 Eh
 Primitive CutOff       TCut            ....  2.500e-12 Eh

Convergence Tolerance:
 Convergence Check Mode ConvCheckMode   .... Total+1el-Energy
 Convergence forced     ConvForced      .... 0
 Energy Change          TolE            ....  1.000e-08 Eh
 1-El. energy change                    ....  1.000e-05 Eh
 Orbital Gradient       TolG            ....  1.000e-05
 Orbital Rotation angle TolX            ....  1.000e-05
 DIIS Error             TolErr          ....  5.000e-07


Diagonalization of the overlap matrix:
Smallest eigenvalue                        ... 3.055e-03
Time for diagonalization                   ...    0.004 sec
Threshold for overlap eigenvalues          ... 1.000e-08
Number of eigenvalues below threshold      ... 0
Time for construction of square roots      ...    0.002 sec
Total time needed                          ...    0.006 sec

-------------------
DFT GRID GENERATION
-------------------

General Integration Accuracy     IntAcc      ...  4.670
Radial Grid Type                 RadialGrid  ... Gauss-Chebyshev
Angular Grid (max. acc.)         AngularGrid ... Lebedev-302
Angular grid pruning method      GridPruning ... 3 (G Style)
Weight generation scheme         WeightScheme... Becke
Basis function cutoff            BFCut       ...    1.0000e-11
Integration weight cutoff        WCut        ...    1.0000e-14
Grids for H and He will be reduced by one unit

# of grid points (after initial pruning)     ...  45212 (   0.0 sec)
# of grid points (after weights+screening)   ...  42656 (   0.0 sec)
nearest neighbour list constructed           ...    0.0 sec
Grid point re-assignment to atoms done       ...    0.0 sec
Grid point division into batches done        ...    0.2 sec
Reduced shell lists constructed in    0.2 sec

Total number of grid points                  ...    42656
Total number of batches                      ...      672
Average number of points per batch           ...       63
Average number of grid points per atom       ...     4266
Average number of shells per batch           ...    39.78 (94.71%)
Average number of basis functions per batch  ...    82.81 (96.29%)
Average number of large shells per batch     ...    36.31 (91.27%)
Average number of large basis fcns per batch ...    75.27 (90.89%)
Maximum spatial batch extension              ...   3.52,  2.32,  2.05 au
Average spatial batch extension              ...   0.13,  0.13,  0.13 au

Time for grid setup =    0.239 sec

------------------------------
INITIAL GUESS: MODEL POTENTIAL
------------------------------
Loading Hartree-Fock densities                     ... done
Calculating cut-offs                               ... done
Setting up the integral package                    ... done
Initializing the effective Hamiltonian             ... done
Starting the Coulomb interaction                   ... done (   0.0 sec)
Reading the grid                                   ... done
Mapping shells                                     ... done
Starting the XC term evaluation                    ... done (   0.0 sec)
  promolecular density results
     # of electrons  =     31.997168740
     EX              =    -25.388627718
     EC              =     -1.031800911
     EX+EC           =    -26.420428629
Transforming the Hamiltonian                       ... done (   0.0 sec)
Diagonalizing the Hamiltonian                      ... done (   0.0 sec)
Back transforming the eigenvectors                 ... done (   0.0 sec)
Now organizing SCF variables                       ... done
                      ------------------
                      INITIAL GUESS DONE (   0.4 sec)
                      ------------------
----------------------
INITIAL GUESS ORBITALS
----------------------
                      0         1         2         3         4         5   
                 -18.95344 -10.08262 -10.08262 -10.06502  -1.07841  -0.80418
                   2.00000   2.00000   2.00000   2.00000   2.00000   2.00000
                  --------  --------  --------  --------  --------  --------
  0C   1s         0.000217 -0.000002  0.000032  0.988043  0.143457 -0.116478
  0C   2s         0.002226  0.000183 -0.002955  0.049122 -0.285228  0.237489
  0C   3s         0.008439 -0.000852  0.013762 -0.024741 -0.009727  0.101107
  0C   1pz       -0.000758  0.001121  0.000937  0.001764 -0.154119 -0.141096
  0C   1px        0.000157  0.000980 -0.000119 -0.000366  0.032002  0.029298
  0C   1py       -0.000468 -0.001607  0.000437  0.001090 -0.095244 -0.087196
  0C   2pz        0.014171 -0.002513 -0.000578  0.014025 -0.015814 -0.053687
  0C   2px       -0.002943 -0.002101 -0.000042 -0.002912  0.003284  0.011147
  0C   2py        0.008758  0.003420 -0.000050  0.008667 -0.009773 -0.033180
  0C   1dz2      -0.000795 -0.001266 -0.000328  0.001700 -0.016194 -0.001268
  0C   1dxz       0.000491 -0.000421 -0.000614 -0.000193  0.005477  0.006157
  0C   1dyz      -0.001275  0.000490  0.000752  0.001429 -0.019110 -0.010158
  0C   1dx2y2     0.000194 -0.000526  0.000622 -0.001100  0.007568 -0.003989
  0C   1dxy       0.000031 -0.000653  0.001085 -0.001356  0.007455 -0.008026
  1C   1s         0.000033 -0.740185  0.653950  0.000824  0.022416 -0.166757
  1C   2s        -0.000320 -0.039945  0.034021 -0.002035 -0.041917  0.348574
  1C   3s         0.004327  0.036527 -0.027949  0.009348 -0.013753  0.041112
  1C   1pz       -0.000051  0.000208  0.000130  0.000011 -0.006619 -0.022736
  1C   1px        0.000088 -0.000304  0.000318  0.001024  0.010726 -0.026551
  1C   1py       -0.000177  0.000623 -0.000573 -0.001940 -0.021819  0.045237
  1C   2pz       -0.004287 -0.002658 -0.001740 -0.003355  0.001314 -0.004420
  1C   2px       -0.000974 -0.001507  0.000413 -0.002088  0.004503 -0.001631
  1C   2py        0.000885  0.002261 -0.001173  0.003207 -0.008247  0.002116
  1C   1dz2       0.000282 -0.000293  0.000252  0.000873  0.001788 -0.002714
  1C   1dxz       0.000251  0.000004  0.000037  0.000098  0.000357  0.001299
  1C   1dyz      -0.000368 -0.000003 -0.000058 -0.000165 -0.000761 -0.002448
  1C   1dx2y2     0.000047 -0.000299  0.000224  0.000817  0.002029 -0.002450
  1C   1dxy      -0.000014 -0.000437  0.000314  0.001159  0.002810 -0.004094
  2C   1s         0.000033  0.653898  0.740232  0.000824  0.022416 -0.166755
  2C   2s        -0.000320  0.035445  0.038686 -0.002035 -0.041917  0.348572
  2C   3s         0.004327 -0.032802 -0.032239  0.009348 -0.013753  0.041122
  2C   1pz       -0.000200 -0.000641 -0.000621 -0.001977 -0.024721  0.037801
  2C   1px       -0.000036 -0.000083 -0.000245 -0.000616 -0.004217  0.023422
  2C   1py        0.000023  0.000014  0.000325  0.000725  0.002451 -0.035930
  2C   2pz       -0.000679 -0.001091 -0.001989  0.002037 -0.007935  0.000527
  2C   2px        0.002005 -0.001810  0.000108  0.002362 -0.003130  0.002448
  2C   2py       -0.003954  0.003188 -0.000651 -0.004021  0.004155 -0.004519
  2C   1dz2      -0.000367 -0.000387 -0.000425 -0.001323 -0.003395  0.002154
  2C   1dxz       0.000019 -0.000239 -0.000218 -0.000685 -0.001492  0.003035
  2C   1dyz      -0.000097  0.000280  0.000240  0.000752  0.001402 -0.004480
  2C   1dx2y2    -0.000200  0.000023 -0.000011 -0.000016  0.000063 -0.000603
  2C   1dxy      -0.000309  0.000101  0.000042  0.000159  0.000450 -0.001878
  3H   1s        -0.000151 -0.001594 -0.002598 -0.000025 -0.005845  0.097063
  3H   2s        -0.001298  0.006443  0.005501  0.000231 -0.000238  0.008983
  3H   1pz        0.000170 -0.000958 -0.001075  0.000703 -0.001073  0.008300
  3H   1px        0.000080  0.001532  0.001736  0.000131  0.001106 -0.010025
  3H   1py        0.000212 -0.000075  0.000298 -0.000056  0.000101 -0.002046
  4H   1s         0.000127 -0.002499 -0.002168  0.000305 -0.009933  0.084476
  4H   2s         0.001168  0.004239  0.006401  0.000969 -0.002967  0.013547
  4H   1pz       -0.000286  0.000389  0.000369  0.000009 -0.000902 -0.001031
  4H   1px       -0.000087 -0.000842 -0.000918  0.000051 -0.001128  0.005745
  4H   1py        0.000100  0.001684  0.001824 -0.000095  0.001936 -0.011123
  5H   1s        -0.000151 -0.001594 -0.002598 -0.000025 -0.005845  0.097066
  5H   2s        -0.001298  0.006443  0.005501  0.000231 -0.000238  0.008982
  5H   1pz        0.000202 -0.000664 -0.000705  0.000707 -0.000837  0.006088
  5H   1px       -0.000186 -0.000953 -0.001391  0.000103 -0.000885  0.008681
  5H   1py        0.000072 -0.001386 -0.001351 -0.000071 -0.000949  0.007821
  6O   1s        -0.988597  0.000001 -0.000015  0.000143 -0.263085 -0.085034
  6O   2s         0.043039  0.000018 -0.000291  0.001325 -0.540747 -0.186822
  6O   3s        -0.035421  0.000044 -0.000712 -0.015463 -0.249242 -0.093618
  6O   1pz       -0.002127  0.000091  0.000133  0.001110  0.142466 -0.006989
  6O   1px        0.000442  0.000083 -0.000021 -0.000230 -0.029583  0.001451
  6O   1py       -0.001314 -0.000138  0.000070  0.000686  0.088043 -0.004319
  6O   2pz        0.006580 -0.000322 -0.000684  0.007435  0.023764 -0.014482
  6O   2px       -0.001366 -0.000308  0.000119 -0.001544 -0.004935  0.003007
  6O   2py        0.004066  0.000512 -0.000379  0.004595  0.014686 -0.008950
  6O   1dz2       0.000168  0.000027  0.000124 -0.000720 -0.008057  0.000907
  6O   1dxz      -0.000071  0.000010  0.000039  0.000271  0.003546 -0.000074
  6O   1dyz       0.000219 -0.000016  0.000023 -0.000891 -0.010749  0.000718
  6O   1dx2y2    -0.000067  0.000020 -0.000120  0.000315  0.003109 -0.000610
  6O   1dxy      -0.000056  0.000026 -0.000175  0.000291  0.002475 -0.000768
  7H   1s        -0.000151  0.001902 -0.002381 -0.000025 -0.005845  0.097067
  7H   2s        -0.001298 -0.007072  0.004664  0.000231 -0.000237  0.008986
  7H   1pz        0.000198  0.001312 -0.000896  0.000193 -0.000903  0.006709
  7H   1px        0.000103 -0.001545  0.001578 -0.000290  0.001247 -0.011340
  7H   1py        0.000175 -0.000270  0.000234  0.000627 -0.000126  0.000088
  8H   1s        -0.000151  0.001902 -0.002381 -0.000025 -0.005845  0.097068
  8H   2s        -0.001298 -0.007072  0.004664  0.000231 -0.000239  0.008987
  8H   1pz        0.000229  0.000975 -0.000565  0.000197 -0.000667  0.004497
  8H   1px       -0.000163  0.001307 -0.001219 -0.000318 -0.000745  0.007368
  8H   1py        0.000035  0.001234 -0.001241  0.000612 -0.001177  0.009955
  9H   1s         0.000127  0.002748 -0.001844  0.000305 -0.009933  0.084478
  9H   2s         0.001168 -0.004996  0.005830  0.000969 -0.002966  0.013548
  9H   1pz       -0.000003 -0.002095  0.001754 -0.000093  0.001644 -0.011738
  9H   1px        0.000147 -0.000424  0.000377 -0.000034  0.000974 -0.003094
  9H   1py       -0.000279  0.000334 -0.000322  0.000043 -0.001478  0.003232
                      6         7         8         9        10        11   
                  -0.75617  -0.58762  -0.52576  -0.52501  -0.51472  -0.46695
                   2.00000   2.00000   2.00000   2.00000   2.00000   2.00000
                  --------  --------  --------  --------  --------  --------
  0C   1s        -0.000001 -0.175056 -0.000003 -0.007049  0.000001  0.000003
  0C   2s         0.000002  0.405217  0.000000  0.004790 -0.000005 -0.000013
  0C   3s         0.000001  0.062010  0.000008  0.065450 -0.000033  0.000001
  0C   1pz       -0.103029 -0.013810 -0.180291 -0.259207 -0.026295  0.000017
  0C   1px       -0.085048  0.002868 -0.148705  0.053916  0.222427 -0.000024
  0C   1py        0.138136 -0.008536  0.241512 -0.160339  0.117318  0.000012
  0C   2pz       -0.066340 -0.038441 -0.064832 -0.069321 -0.011942 -0.000009
  0C   2px       -0.054761  0.007989 -0.053483  0.014430  0.100857  0.000001
  0C   2py        0.088939 -0.023770  0.086870 -0.042894  0.053198 -0.000013
  0C   1dz2       0.006016  0.003724 -0.015976 -0.002322 -0.000498 -0.001821
  0C   1dxz       0.002146  0.000164 -0.005699 -0.000392  0.002495  0.008022
  0C   1dyz      -0.002511  0.002242  0.006666 -0.000963  0.001105  0.006102
  0C   1dx2y2     0.002283 -0.002880 -0.006060  0.002037 -0.001298  0.013628
  0C   1dxy       0.002739 -0.003856 -0.007271  0.002853  0.001238 -0.008050
  1C   1s         0.186399  0.065337 -0.026837  0.017947  0.000003  0.000002
  1C   2s        -0.403459 -0.143388  0.058684 -0.039245 -0.000016 -0.000007
  1C   3s         0.002687 -0.037440  0.052970 -0.044669  0.000035 -0.000009
  1C   1pz       -0.015672 -0.027137 -0.139469 -0.203994 -0.030260 -0.037252
  1C   1px        0.002610 -0.105155  0.100983 -0.083465  0.255872  0.314784
  1C   1py       -0.008461  0.193275 -0.222717  0.112514  0.134960  0.166003
  1C   2pz       -0.005119  0.005003 -0.043721 -0.079833 -0.010102 -0.014994
  1C   2px       -0.015005 -0.030502  0.032219 -0.026983  0.085410  0.126815
  1C   2py        0.027287  0.058945 -0.070893  0.033253  0.045072  0.066873
  1C   1dz2       0.000865 -0.005602  0.001362 -0.005560  0.001304  0.001624
  1C   1dxz       0.000465  0.000576  0.000179  0.001134 -0.006156 -0.008142
  1C   1dyz      -0.000928 -0.001282 -0.002106 -0.003803 -0.003585 -0.003554
  1C   1dx2y2     0.001051 -0.004882  0.005897 -0.000983 -0.002793  0.004632
  1C   1dxy       0.001344 -0.007395  0.008259 -0.002158  0.000997 -0.004304
  2C   1s        -0.186400  0.065339  0.026855  0.017923 -0.000001  0.000001
  2C   2s         0.403462 -0.143397 -0.058725 -0.039195  0.000002 -0.000004
  2C   3s        -0.002685 -0.037406 -0.053002 -0.044598  0.000005 -0.000015
  2C   1pz        0.014425  0.187329  0.278903  0.039356 -0.030282  0.037218
  2C   1px       -0.003640  0.071890  0.014221  0.117610  0.255847 -0.314774
  2C   1py        0.010134 -0.094280  0.035620 -0.214129  0.134955 -0.166062
  2C   2pz       -0.025976  0.062040  0.088530  0.004414 -0.010107  0.015000
  2C   2px       -0.010666  0.016582  0.004809  0.042623  0.085403 -0.126804
  2C   2py        0.014403 -0.017531  0.010748 -0.079818  0.045057 -0.066908
  2C   1dz2       0.002075  0.006598  0.008686  0.000390  0.000077 -0.001703
  2C   1dxz       0.000583  0.004927  0.003408  0.003256 -0.000750  0.008493
  2C   1dyz      -0.000298 -0.006373 -0.002093 -0.006288  0.000524  0.003822
  2C   1dx2y2     0.000064 -0.000253 -0.002083  0.001280  0.006389 -0.004032
  2C   1dxy      -0.000006 -0.001841 -0.003683  0.000558 -0.004425  0.003953
  3H   1s         0.117631 -0.098422 -0.130810  0.012604  0.169334 -0.226108
  3H   2s         0.020261 -0.015142 -0.020622 -0.001811  0.030943 -0.040102
  3H   1pz        0.009380 -0.001450 -0.000798  0.001756  0.009157 -0.009693
  3H   1px       -0.011905  0.009767  0.009626  0.002748 -0.004360  0.006291
  3H   1py       -0.001688 -0.001407  0.002592 -0.005623  0.001295 -0.002926
  4H   1s         0.127478 -0.117605  0.016474 -0.177552  0.000006 -0.000028
  4H   2s         0.015216 -0.030046  0.007534 -0.011571 -0.000003  0.000002
  4H   1pz       -0.001647  0.005717  0.009154  0.002292 -0.000856  0.001065
  4H   1px        0.006950 -0.003717  0.001102 -0.004422  0.007231 -0.009003
  4H   1py       -0.013547  0.008330 -0.000036  0.008899  0.003814 -0.004748
  5H   1s         0.117633 -0.098422 -0.130824  0.012595 -0.169326  0.226139
  5H   2s         0.020270 -0.015148 -0.020626 -0.001823 -0.030940  0.040124
  5H   1pz        0.006835  0.000233  0.001230  0.001679 -0.008287  0.008613
  5H   1px        0.009616 -0.004465 -0.007534  0.003407 -0.003007  0.002834
  5H   1py        0.009665 -0.008915 -0.006461 -0.005277 -0.005181  0.007740
  6O   1s        -0.000001 -0.112118  0.000038  0.086294 -0.000004 -0.000002
  6O   2s        -0.000002 -0.245302  0.000078  0.180600 -0.000012 -0.000006
  6O   3s         0.000003 -0.203949  0.000109  0.232287  0.000006  0.000004
  6O   1pz       -0.033992 -0.235160 -0.160777  0.319763 -0.024114 -0.000027
  6O   1px       -0.028061  0.048828 -0.132857 -0.066312  0.203740 -0.000016
  6O   1py        0.045576 -0.145329  0.215839  0.197474  0.107438 -0.000023
  6O   2pz       -0.008435 -0.112632 -0.085183  0.148234 -0.011946 -0.000017
  6O   2px       -0.006961  0.023386 -0.070378 -0.030735  0.100907 -0.000010
  6O   2py        0.011307 -0.069604  0.114333  0.091533  0.053208 -0.000013
  6O   1dz2       0.004618  0.006336  0.012659 -0.007062  0.001920 -0.000091
  6O   1dxz       0.001647 -0.002995  0.004518  0.002818 -0.009600  0.000406
  6O   1dyz      -0.001927  0.008766 -0.005288 -0.008982 -0.004256  0.000310
  6O   1dx2y2     0.001752 -0.002280  0.004806  0.002949  0.004999  0.000689
  6O   1dxy       0.002102 -0.001636  0.005766  0.002594 -0.004764 -0.000407
  7H   1s        -0.117633 -0.098422  0.130835  0.012492  0.169341  0.226130
  7H   2s        -0.020265 -0.015136  0.020631 -0.001818  0.030943  0.040122
  7H   1pz       -0.008336 -0.006336  0.002907 -0.004894  0.006961  0.009361
  7H   1px        0.012768  0.005733 -0.007886 -0.002735 -0.006175 -0.006567
  7H   1py        0.000289  0.005144 -0.005421  0.003296  0.004241  0.003368
  8H   1s        -0.117633 -0.098419  0.130824  0.012478 -0.169353 -0.226106
  8H   2s        -0.020272 -0.015141  0.020621 -0.001834 -0.030945 -0.040114
  8H   1pz       -0.005791 -0.004653  0.000877 -0.004970 -0.006089 -0.008283
  8H   1px       -0.008755 -0.008499  0.009276 -0.002089 -0.001194 -0.002559
  8H   1py       -0.011064 -0.002364  0.003632  0.003634 -0.008129 -0.008183
  9H   1s        -0.127479 -0.117602 -0.016637 -0.177534  0.000005 -0.000004
  9H   2s        -0.015215 -0.030048 -0.007537 -0.011559 -0.000005 -0.000011
  9H   1pz        0.014440  0.010615 -0.003333  0.009935 -0.000856 -0.001065
  9H   1px        0.003610  0.000326  0.003698  0.001881  0.007232  0.009003
  9H   1py       -0.003605  0.001763 -0.007759 -0.001337  0.003814  0.004748
                     12        13        14        15        16        17   
                  -0.46089  -0.44779  -0.42632  -0.34660  -0.13862  -0.00888
                   2.00000   2.00000   2.00000   2.00000   0.00000   0.00000
                  --------  --------  --------  --------  --------  --------
  0C   1s         0.022727 -0.000003  0.000001  0.000000  0.000000  0.014896
  0C   2s        -0.054939  0.000011 -0.000005  0.000002  0.000009 -0.109496
  0C   3s         0.003334 -0.000018  0.000009 -0.000011 -0.000104  0.334403
  0C   1pz        0.176598  0.097287  0.021557 -0.086261 -0.062421  0.041612
  0C   1px       -0.036664  0.080319 -0.182229 -0.071211  0.527599 -0.008645
  0C   1py        0.109115 -0.130468 -0.096114  0.115664  0.278280  0.025721
  0C   2pz       -0.017379  0.009900  0.009925  0.032117 -0.051814  0.124197
  0C   2px        0.003600  0.008149 -0.083971  0.026506  0.438363 -0.025776
  0C   2py       -0.010722 -0.013227 -0.044294 -0.043051  0.231193  0.076837
  0C   1dz2       0.011799 -0.007191  0.005882  0.034800  0.002909 -0.007590
  0C   1dxz      -0.011443 -0.002564 -0.029411  0.012414 -0.014546 -0.000377
  0C   1dyz       0.025192  0.003000 -0.013043 -0.014522 -0.006450 -0.004508
  0C   1dx2y2     0.000444 -0.002728  0.015317  0.013203  0.007576  0.005901
  0C   1dxy       0.005770 -0.003275 -0.014596  0.015843 -0.007218  0.007922
  1C   1s         0.005774 -0.010234  0.000001  0.040522  0.000001  0.104260
  1C   2s        -0.018432  0.029330 -0.000003 -0.106791 -0.000012 -0.248533
  1C   3s        -0.042025  0.038208 -0.000002 -0.164134  0.000036 -1.372353
  1C   1pz       -0.274589 -0.325335 -0.018095 -0.039371  0.002365  0.072748
  1C   1px        0.047781 -0.099093  0.153008  0.113978 -0.019976 -0.051097
  1C   1py       -0.152261  0.114938  0.080703 -0.224925 -0.010536  0.113076
  1C   2pz       -0.096590 -0.112453 -0.006156 -0.021894 -0.002651  0.104667
  1C   2px        0.025034 -0.041344  0.052046  0.063563  0.022349 -0.138035
  1C   2py       -0.069166  0.053169  0.027454 -0.125424  0.011803  0.284738
  1C   1dz2      -0.004727 -0.011397  0.001283  0.002833 -0.001379  0.002573
  1C   1dxz      -0.005474 -0.005864 -0.006685 -0.000595  0.008500 -0.003027
  1C   1dyz       0.006800  0.006618 -0.002331  0.001355  0.000021  0.003574
  1C   1dx2y2     0.003552 -0.000684  0.007920  0.002077 -0.030673  0.007501
  1C   1dxy       0.006780  0.000591 -0.006317  0.003309  0.021952  0.011807
  2C   1s         0.005773  0.010233 -0.000000 -0.040521 -0.000000  0.104247
  2C   2s        -0.018425 -0.029325 -0.000000  0.106787 -0.000001 -0.248468
  2C   3s        -0.042064 -0.038194 -0.000001  0.164155  0.000061 -1.372395
  2C   1pz       -0.256785  0.002743 -0.018102  0.244186  0.002366  0.142300
  2C   1px        0.062530 -0.167249  0.153025  0.055096 -0.019969  0.006409
  2C   1py       -0.176076  0.317669  0.080710 -0.049685 -0.010537  0.019783
  2C   2pz       -0.106282 -0.012762 -0.006160  0.136146 -0.002603  0.329347
  2C   2px        0.017059 -0.062039  0.052052  0.030754  0.022358  0.047705
  2C   2py       -0.056154  0.114745  0.027460 -0.027767  0.011768 -0.016496
  2C   1dz2       0.001422 -0.008258  0.002191  0.002431 -0.006750 -0.007381
  2C   1dxz      -0.003282 -0.001146 -0.010686  0.002473  0.032152 -0.006573
  2C   1dyz       0.004233  0.001584 -0.005372 -0.003552  0.018004  0.007727
  2C   1dx2y2     0.005885 -0.006774  0.001127 -0.000079  0.009502  0.003723
  2C   1dxy       0.009578 -0.009541 -0.002304 -0.000912 -0.001780  0.007275
  3H   1s         0.143969 -0.088634  0.131228 -0.057423 -0.146010  0.085653
  3H   2s         0.039814 -0.018890  0.047042 -0.031574 -0.162283  0.793421
  3H   1pz       -0.000629 -0.002924  0.005212  0.004671  0.005799 -0.000477
  3H   1px       -0.007546  0.001267 -0.003090  0.005477  0.003573  0.014424
  3H   1py       -0.007291  0.010184  0.001267 -0.000452 -0.003199 -0.000150
  4H   1s        -0.179500  0.286809 -0.000002 -0.007386 -0.000001  0.043458
  4H   2s        -0.043648  0.077094 -0.000004 -0.050431  0.000010  0.462794
  4H   1pz       -0.004380 -0.003324 -0.000508  0.001780  0.000338  0.006154
  4H   1px       -0.004144  0.005548  0.004295  0.000424 -0.002864 -0.002471
  4H   1py        0.006877 -0.011265  0.002266 -0.000405 -0.001511  0.006065
  5H   1s         0.143928 -0.088613 -0.131227 -0.057423  0.146004  0.085676
  5H   2s         0.039799 -0.018886 -0.047044 -0.031572  0.162293  0.793546
  5H   1pz       -0.002701 -0.001646 -0.004657  0.005528 -0.006019  0.002160
  5H   1px        0.009968 -0.009543 -0.001612 -0.001775 -0.001718 -0.007864
  5H   1py        0.001947  0.004483 -0.003749 -0.004278  0.004180 -0.011905
  6O   1s        -0.017969  0.000001  0.000001 -0.000000  0.000000 -0.025099
  6O   2s        -0.028635  0.000003  0.000000  0.000001  0.000000 -0.052649
  6O   3s        -0.059333 -0.000014  0.000007 -0.000007  0.000004 -0.228692
  6O   1pz       -0.245184  0.058349  0.056875  0.320316  0.040070  0.023817
  6O   1px        0.050911  0.048142 -0.480713  0.264423 -0.338697 -0.004948
  6O   1py       -0.151538 -0.078200 -0.253545 -0.429478 -0.178642  0.014718
  6O   2pz       -0.118755  0.030639  0.034176  0.204112  0.036167  0.068619
  6O   2px        0.024659  0.025274 -0.288856  0.168489 -0.305736 -0.014255
  6O   2py       -0.073401 -0.041057 -0.152356 -0.273665 -0.161252  0.042392
  6O   1dz2       0.003884 -0.005041 -0.003008 -0.008121  0.001879 -0.002124
  6O   1dxz      -0.002603 -0.001798  0.015042 -0.002897 -0.009392  0.001191
  6O   1dyz       0.006534  0.002103  0.006670  0.003389 -0.004165 -0.003222
  6O   1dx2y2    -0.000785 -0.001912 -0.007834 -0.003081  0.004891  0.000614
  6O   1dxy       0.000149 -0.002295  0.007465 -0.003697 -0.004661  0.000267
  7H   1s         0.143931  0.088611  0.131215  0.057419 -0.146010  0.085671
  7H   2s         0.039812  0.018897  0.047040  0.031572 -0.162290  0.793829
  7H   1pz       -0.002308 -0.006004  0.004659  0.000962 -0.001696 -0.007162
  7H   1px       -0.008930 -0.008638 -0.003547 -0.000827 -0.002615  0.008906
  7H   1py       -0.005044  0.001789  0.002009 -0.007101  0.006851  0.008816
  8H   1s         0.143978  0.088589 -0.131219  0.057422  0.146007  0.085643
  8H   2s         0.039808  0.018884 -0.047041  0.031567  0.162290  0.793325
  8H   1pz       -0.004377 -0.007282 -0.004103  0.000105  0.001478 -0.004525
  8H   1px        0.008585  0.002170 -0.001156  0.006425  0.004471 -0.013386
  8H   1py        0.004197  0.007489 -0.004490 -0.003275 -0.005871 -0.002945
  9H   1s        -0.179540 -0.286779  0.000006  0.007390  0.000001  0.043482
  9H   2s        -0.043648 -0.077083  0.000001  0.050430 -0.000008  0.462788
  9H   1pz        0.005406  0.012727 -0.000508 -0.000243  0.000339  0.008462
  9H   1px        0.003931  0.002216  0.004295  0.000844 -0.002864 -0.000565
  9H   1py       -0.006244 -0.001344  0.002266 -0.001655 -0.001511  0.002969
                     18        19        20        21        22        23   
                   0.02079   0.03697   0.04768   0.05912   0.06448   0.08496
                   0.00000   0.00000   0.00000   0.00000   0.00000   0.00000
                  --------  --------  --------  --------  --------  --------
  0C   1s        -0.006441  0.000011 -0.000000 -0.000002 -0.000038  0.195028
  0C   2s         0.026446 -0.000021 -0.000014  0.000023  0.000085 -0.482585
  0C   3s        -0.053620 -0.000324  0.000070 -0.000069  0.000820 -3.537653
  0C   1pz       -0.109441 -0.006109 -0.015043 -0.073308 -0.000089  0.202967
  0C   1px        0.022736 -0.004940  0.127574 -0.060413 -0.000090 -0.042150
  0C   1py       -0.067634  0.008237  0.067216  0.098322 -0.000001  0.125401
  0C   2pz       -0.162285  0.079436 -0.039809 -0.203778 -0.000498  1.005090
  0C   2px        0.033683  0.065874  0.335618 -0.168022 -0.000122 -0.208638
  0C   2py       -0.100150 -0.106381  0.176914  0.273319 -0.000137  0.621017
  0C   1dz2       0.020942 -0.004909 -0.000019 -0.017683  0.003528  0.014846
  0C   1dxz      -0.015667 -0.001753  0.000162 -0.006294 -0.015610  0.004050
  0C   1dyz       0.037693  0.002048  0.000055  0.007385 -0.011859  0.003794
  0C   1dx2y2    -0.002922 -0.001865 -0.000088 -0.006689 -0.026508 -0.014201
  0C   1dxy       0.003262 -0.002235  0.000091 -0.008061  0.015652 -0.020467
  1C   1s         0.047111  0.099664 -0.000067 -0.045637 -0.000052 -0.069685
  1C   2s        -0.129364 -0.226968  0.000171  0.109136  0.000201  0.111829
  1C   3s        -0.441535 -1.626864  0.000898  0.706213  0.000059  1.838533
  1C   1pz       -0.250771 -0.094302  0.035843 -0.321310  0.033101 -0.023908
  1C   1px       -0.006939 -0.097379 -0.300173 -0.041595 -0.281770 -0.133085
  1C   1py       -0.043142  0.162901 -0.158535  0.006818 -0.148701  0.246754
  1C   2pz       -0.646015 -0.168044  0.082882 -0.704229  0.083972 -0.385433
  1C   2px       -0.047615 -0.153349 -0.694970 -0.145529 -0.713249 -0.632425
  1C   2py       -0.054844  0.251358 -0.366928  0.118277 -0.376521  1.112281
  1C   1dz2       0.023194  0.005873  0.003107  0.021494  0.004641  0.031205
  1C   1dxz       0.018188 -0.000331 -0.014922  0.011135 -0.023531 -0.002506
  1C   1dyz      -0.022076  0.000702 -0.008287 -0.011715 -0.009551  0.010493
  1C   1dx2y2    -0.005791  0.005414 -0.004007 -0.001005  0.018566  0.015284
  1C   1dxy      -0.013653  0.008059  0.000548 -0.004316 -0.015958  0.024261
  2C   1s         0.047115 -0.099675  0.000040  0.045641  0.000047 -0.069675
  2C   2s        -0.129371  0.226971 -0.000092 -0.109133 -0.000109  0.111790
  2C   3s        -0.441749  1.627221 -0.000775 -0.706297 -0.000947  1.838583
  2C   1pz       -0.136576 -0.131609  0.035539  0.111687 -0.033347  0.243170
  2C   1px        0.087324 -0.089604 -0.299944 -0.131893  0.281943  0.087549
  2C   1py       -0.196266  0.139857 -0.158505  0.274126  0.148977 -0.111309
  2C   2pz       -0.294396 -0.194810  0.082118  0.139323 -0.084530  0.993699
  2C   2px        0.242687 -0.147485 -0.694306 -0.321740  0.713450  0.506204
  2C   2py       -0.526373  0.234763 -0.366857  0.638915  0.377173 -0.736478
  2C   1dz2      -0.013696  0.007664  0.000702  0.012406 -0.005911 -0.020571
  2C   1dxz       0.005029  0.005148 -0.004292  0.000939  0.029239 -0.020960
  2C   1dyz      -0.006682 -0.006354 -0.000213 -0.002437  0.013855  0.032103
  2C   1dx2y2    -0.019785 -0.000274  0.014003  0.013867 -0.008914 -0.004366
  2C   1dxy      -0.030449 -0.001906 -0.010092  0.019748  0.010264  0.000700
  3H   1s        -0.101112 -0.079235  0.080290  0.096861 -0.200903  0.033879
  3H   2s        -0.284523 -0.677215  0.962449  0.764106 -1.044147 -0.173122
  3H   1pz       -0.002038  0.003191 -0.004715 -0.006748  0.015170  0.008140
  3H   1px       -0.002379 -0.010032  0.013228  0.006642 -0.005342  0.005311
  3H   1py       -0.009768 -0.000575 -0.008483  0.013701  0.000493 -0.011700
  4H   1s         0.242416 -0.082572  0.000161 -0.172512 -0.000153  0.089919
  4H   2s         1.180133 -1.046256  0.001216 -0.913023 -0.000675  0.084199
  4H   1pz       -0.005743 -0.007845  0.001415 -0.000641 -0.001393  0.022711
  4H   1px       -0.008121  0.006078 -0.011904  0.005191  0.011724  0.003373
  4H   1py        0.014109 -0.013303 -0.006263 -0.010028  0.006175 -0.001296
  5H   1s        -0.101122 -0.079298 -0.080306  0.096460  0.201039  0.033989
  5H   2s        -0.284771 -0.678536 -0.962465  0.761358  1.045342 -0.172741
  5H   1pz       -0.003371  0.001230  0.003008 -0.004038 -0.013917  0.007799
  5H   1px        0.008906  0.006549  0.001188 -0.016051 -0.005329  0.008131
  5H   1py       -0.003817  0.008192  0.016070  0.001760 -0.006096 -0.010215
  6O   1s         0.019997  0.000006  0.000005 -0.000001  0.000003  0.026841
  6O   2s         0.038672  0.000007  0.000003 -0.000006 -0.000003  0.075559
  6O   3s         0.201272  0.000085  0.000099  0.000008  0.000139  0.032010
  6O   1pz       -0.100113 -0.039339  0.006078  0.019225  0.000026 -0.100413
  6O   1px        0.020785 -0.032508 -0.051130  0.015829  0.000036  0.020854
  6O   1py       -0.061874  0.052711 -0.027004 -0.025784 -0.000007 -0.062055
  6O   2pz       -0.108813 -0.031666  0.010972  0.047171  0.000010 -0.075497
  6O   2px        0.022594 -0.026195 -0.092919  0.038881  0.000067  0.015668
  6O   2py       -0.067271  0.042372 -0.049034 -0.063269 -0.000049 -0.046641
  6O   1dz2      -0.002315  0.001646  0.000734  0.005003  0.000513 -0.001344
  6O   1dxz       0.001483  0.000584 -0.003684  0.001784 -0.002239  0.004418
  6O   1dyz      -0.003792 -0.000687 -0.001629 -0.002088 -0.001702 -0.007579
  6O   1dx2y2     0.000522  0.000624  0.001913  0.001902 -0.003806 -0.002543
  6O   1dxy       0.000012  0.000747 -0.001828  0.002274  0.002252 -0.005338
  7H   1s        -0.101104  0.079325  0.080417 -0.096721  0.200791  0.033959
  7H   2s        -0.284587  0.678712  0.963329 -0.762890  1.043414 -0.172816
  7H   1pz       -0.007267 -0.005693 -0.014811 -0.004563 -0.009343 -0.008082
  7H   1px       -0.006698  0.007986  0.004893 -0.015952  0.010125 -0.008072
  7H   1py       -0.002756  0.003914  0.005053  0.001440 -0.008287  0.010039
  8H   1s        -0.101129  0.079156 -0.080471 -0.096549 -0.201017  0.033860
  8H   2s        -0.284777  0.676919 -0.963388 -0.762453 -1.044634 -0.173215
  8H   1pz       -0.008600 -0.003713  0.013122 -0.007237  0.008077 -0.008409
  8H   1px        0.004589 -0.008598  0.009529  0.006739  0.000516 -0.005251
  8H   1py        0.003193 -0.004841  0.002540  0.013387  0.013908  0.011535
  9H   1s         0.242405  0.082616 -0.000164  0.172483  0.000125  0.089915
  9H   2s         1.180113  1.046220 -0.001568  0.913088  0.000551  0.084141
  9H   1pz        0.012286  0.016474  0.001383  0.010469  0.001387  0.007050
  9H   1px        0.006759  0.001026 -0.011910  0.002899 -0.011705 -0.009555
  9H   1py       -0.010064  0.001729 -0.006280 -0.003152 -0.006183  0.019690
                     24        25        26        27        28        29   
                   0.16059   0.18177   0.29394   0.34773   0.35581   0.36984
                   0.00000   0.00000   0.00000   0.00000   0.00000   0.00000
                  --------  --------  --------  --------  --------  --------
  0C   1s         0.000010  0.010792  0.024136  0.000131 -0.136856 -0.000019
  0C   2s        -0.000046  0.108441  0.078935 -0.001105  1.186304  0.000171
  0C   3s         0.000037 -1.378637  0.645054  0.002711 -2.612907 -0.000276
  0C   1pz       -0.329332 -0.210168  0.013726 -0.000008  0.034468  0.070255
  0C   1px       -0.271895  0.043596 -0.002752 -0.000197 -0.007160 -0.595563
  0C   1py        0.441592 -0.129879  0.008475 -0.000041  0.021455 -0.313722
  0C   2pz       -1.330936 -1.490103 -1.325585 -0.001688  1.932727 -0.033629
  0C   2px       -1.098679  0.309397  0.275193  0.000585 -0.401147  0.289340
  0C   2py        1.784486 -0.920824 -0.819037 -0.001316  1.194130  0.151728
  0C   1dz2      -0.011062  0.019051  0.002399 -0.004046  0.003926  0.002610
  0C   1dxz      -0.003945 -0.006771  0.028865  0.017737  0.034136 -0.013851
  0C   1dyz       0.004613  0.022980 -0.042045  0.013544 -0.048940 -0.006081
  0C   1dx2y2    -0.004200 -0.008639 -0.024846  0.030200 -0.030205  0.007118
  0C   1dxy      -0.005037 -0.008279 -0.045698 -0.017787 -0.055171 -0.006925
  1C   1s        -0.032462  0.004988 -0.053949  0.000010 -0.028706 -0.000169
  1C   2s        -0.041844 -0.020997  0.358131 -0.000005  0.133636  0.001060
  1C   3s         2.235625 -0.342077 -1.552514 -0.002033  1.594597 -0.002384
  1C   1pz        0.064622  0.168582 -0.187372  0.023384  0.191420  0.003396
  1C   1px       -0.066557 -0.015374 -0.194715 -0.199498 -0.126349 -0.029163
  1C   1py        0.140677  0.067050  0.327199 -0.105454  0.282153 -0.014219
  1C   2pz        0.416279  0.486034  0.853476 -0.078141 -1.154126 -0.051623
  1C   2px       -0.706478  0.074681  0.358987  0.669882 -0.192173  0.433662
  1C   2py        1.432826 -0.032381 -0.489631  0.352860  0.106502  0.226809
  1C   1dz2       0.016866  0.013998 -0.045030 -0.013748  0.003856 -0.012391
  1C   1dxz       0.001326  0.022123 -0.023475  0.067933 -0.014089  0.061392
  1C   1dyz      -0.007647 -0.033171  0.021200  0.032057  0.041514  0.029681
  1C   1dx2y2     0.029914 -0.004675  0.011358 -0.021525 -0.036532 -0.014019
  1C   1dxy       0.042349 -0.014176  0.022099  0.024416 -0.045320  0.018247
  2C   1s         0.032448  0.005002 -0.053970  0.000009 -0.028637  0.000149
  2C   2s         0.041895 -0.021039  0.358234 -0.000022  0.133212 -0.000985
  2C   3s        -2.235635 -0.342208 -1.552843 -0.001537  1.595699  0.002557
  2C   1pz       -0.167463  0.130656  0.264995 -0.023937  0.358338  0.002610
  2C   1px       -0.018334 -0.046692  0.178583  0.199516  0.012103 -0.028979
  2C   1py       -0.002772  0.117885 -0.279271  0.105176  0.057984 -0.014905
  2C   2pz       -1.616588  0.146185 -0.185099  0.079512 -0.316401 -0.049660
  2C   2px       -0.284315 -0.205946 -0.497942 -0.669709  0.497430  0.433442
  2C   2py        0.176553  0.423190  0.902502 -0.352069 -1.015886  0.228286
  2C   1dz2       0.045048 -0.019285  0.012907  0.010873  0.068027 -0.008747
  2C   1dxz       0.020759  0.010240 -0.002803 -0.055461  0.008679  0.045170
  2C   1dyz      -0.018184 -0.019287 -0.002972 -0.022633  0.014712  0.017496
  2C   1dx2y2    -0.006421 -0.017303  0.033338  0.042702 -0.012103 -0.041398
  2C   1dxy      -0.014155 -0.029333  0.048466 -0.036824 -0.016128  0.034691
  3H   1s        -0.134150 -0.084047  0.220444  0.495256 -0.201686 -0.444888
  3H   2s        -0.086722  0.398319  0.217232 -0.294226 -0.240938  0.105292
  3H   1pz       -0.012205 -0.002015  0.009874  0.003283 -0.058613  0.033412
  3H   1px       -0.015006  0.008812  0.007593 -0.005664 -0.018695  0.010429
  3H   1py       -0.002957 -0.005399  0.028972 -0.035533 -0.014569  0.015861
  4H   1s        -0.049558  0.192074 -0.401552 -0.000075  0.005499 -0.000863
  4H   2s         0.465868 -0.506419  0.358335 -0.000214  0.387763  0.000689
  4H   1pz       -0.012957 -0.022967  0.000962  0.005832  0.021597 -0.006089
  4H   1px       -0.003846 -0.002259 -0.004606 -0.049485  0.012005  0.051629
  4H   1py        0.004393 -0.000868  0.008937 -0.026086 -0.018039  0.027198
  5H   1s        -0.134098 -0.084068  0.220309 -0.494885 -0.202653  0.446016
  5H   2s        -0.086654  0.398343  0.217267  0.294662 -0.240502 -0.107014
  5H   1pz       -0.014973 -0.000879  0.013857  0.001367 -0.062165 -0.036139
  5H   1px        0.008396 -0.000788 -0.025998 -0.032734  0.011324  0.012408
  5H   1py        0.009384 -0.010467  0.011263  0.015304  0.001332 -0.003653
  6O   1s        -0.000001  0.122343  0.041335  0.000030 -0.039140 -0.000006
  6O   2s        -0.000001  0.241116  0.062658  0.000043 -0.073311 -0.000027
  6O   3s        -0.000010  1.675636  0.931582  0.000776 -0.845165  0.000048
  6O   1pz        0.072034 -0.122250 -0.018479 -0.000066  0.090395  0.003756
  6O   1px        0.059464  0.025393  0.003821  0.000012 -0.018694 -0.028732
  6O   1py       -0.096582 -0.075552 -0.011400 -0.000054  0.055739 -0.015673
  6O   2pz        0.211664 -0.512210 -0.236581 -0.000238  0.243961 -0.002803
  6O   2px        0.174728  0.106363  0.049117  0.000036 -0.050658  0.024057
  6O   2py       -0.283792 -0.316549 -0.146217 -0.000108  0.150734  0.012620
  6O   1dz2       0.013735  0.008222  0.008220 -0.001272  0.008598 -0.003771
  6O   1dxz       0.004900 -0.003578 -0.000251  0.005585 -0.001656  0.019093
  6O   1dyz      -0.005732  0.010911  0.005871  0.004237  0.008255  0.008446
  6O   1dx2y2     0.005211 -0.003204 -0.005869  0.009477 -0.004994 -0.009926
  6O   1dxy       0.006253 -0.002584 -0.007595 -0.005589 -0.005823  0.009487
  7H   1s         0.134152 -0.084116  0.220558 -0.495122 -0.202834 -0.445747
  7H   2s         0.086617  0.398235  0.217233  0.294697 -0.240051  0.106691
  7H   1pz        0.000351 -0.009194  0.022933  0.023363 -0.027260  0.021354
  7H   1px        0.005215  0.002875  0.018372  0.027596  0.007212  0.000459
  7H   1py        0.018857  0.004239  0.011472  0.000002 -0.056586  0.031875
  8H   1s         0.134134 -0.083999  0.220335  0.495461 -0.202077  0.444589
  8H   2s         0.086668  0.398345  0.217207 -0.294106 -0.240713 -0.105067
  8H   1pz        0.003116 -0.008068  0.026913 -0.027862 -0.030855 -0.024169
  8H   1px       -0.018185 -0.006722 -0.015231  0.010775  0.037259  0.022399
  8H   1py        0.006515 -0.000830 -0.006251  0.020354 -0.040700 -0.019767
  9H   1s         0.049521  0.192060 -0.401695  0.000027  0.005897  0.000694
  9H   2s        -0.465829 -0.506453  0.358297 -0.000327  0.387568 -0.000510
  9H   1pz        0.000295 -0.009367  0.009486 -0.005838 -0.010427 -0.006083
  9H   1px       -0.006600  0.008977  0.002420  0.049515 -0.014336  0.051598
  9H   1py        0.012583 -0.019108 -0.002491  0.026094  0.024934  0.027187
                     30        31        32        33        34        35   
                   0.37062   0.45485   0.47219   0.50261   0.50720   0.51533
                   0.00000   0.00000   0.00000   0.00000   0.00000   0.00000
                  --------  --------  --------  --------  --------  --------
  0C   1s        -0.000075  0.230674 -0.000074 -0.077950  0.000031 -0.000067
  0C   2s         0.000598 -1.223199  0.000393  0.389445 -0.000097  0.000509
  0C   3s        -0.001441  3.686986 -0.001226  0.940731 -0.002334 -0.001576
  0C   1pz        0.105025 -0.230983  0.266101  0.633994  0.054342  0.044194
  0C   1px        0.085262  0.048088  0.219614 -0.131943 -0.465417 -0.374911
  0C   1py       -0.141193 -0.142891 -0.356613  0.391714 -0.246145 -0.197520
  0C   2pz       -0.209990 -0.020738 -0.628737 -0.975429 -0.175757 -0.062248
  0C   2px       -0.173716  0.004158 -0.519052  0.204178  1.491401  0.538263
  0C   2py        0.283805 -0.012561  0.842881 -0.602910  0.788329  0.282165
  0C   1dz2       0.072458  0.049893  0.046024 -0.037091  0.005617 -0.002780
  0C   1dxz       0.025832 -0.010915  0.016430  0.019748 -0.027927  0.013940
  0C   1dyz      -0.030275  0.049846 -0.019228 -0.054729 -0.012306  0.006180
  0C   1dx2y2     0.027490 -0.028053  0.017474  0.011585  0.014539 -0.007271
  0C   1dxy       0.032952 -0.031894  0.020974  0.006199 -0.013857  0.006926
  1C   1s         0.078023 -0.123573  0.137229 -0.123565  0.000078 -0.000093
  1C   2s        -0.498563  0.656649 -0.716724  0.793912 -0.000469  0.000629
  1C   3s         1.142779 -1.992158  2.007281 -2.584916  0.002590 -0.002445
  1C   1pz       -0.009888  0.002083 -0.173140 -0.260869 -0.045252  0.053649
  1C   1px        0.215086 -0.071080  0.045785  0.036457  0.384325 -0.450459
  1C   1py       -0.410410  0.135635 -0.125808 -0.125775  0.202466 -0.237770
  1C   2pz        0.158400 -0.128768  0.111989  0.501797  0.177781 -0.070416
  1C   2px       -0.346241  0.401541 -0.264237  0.019890 -1.504107  0.584896
  1C   2py        0.694632 -0.790912  0.526435  0.069674 -0.792152  0.308474
  1C   1dz2      -0.046531  0.006302  0.063119  0.028452  0.006914  0.013805
  1C   1dxz      -0.034959  0.012904  0.020664  0.004909 -0.031891 -0.069477
  1C   1dyz       0.042205 -0.018237 -0.008859  0.006198 -0.021142 -0.029811
  1C   1dx2y2     0.010538 -0.007370 -0.012297 -0.011060 -0.032205  0.042752
  1C   1dxy       0.025410 -0.014848 -0.021230 -0.015433  0.017157 -0.038930
  2C   1s        -0.078029 -0.123668 -0.137147 -0.123555  0.000094 -0.000165
  2C   2s         0.498550  0.657152  0.716270  0.793792 -0.000505  0.001054
  2C   3s        -1.140762 -1.993287 -2.005911 -2.583330  0.001494 -0.000861
  2C   1pz        0.422930  0.139352  0.192228 -0.225153 -0.045211  0.052600
  2C   1px        0.125412  0.041969 -0.030111  0.065772  0.383534 -0.450247
  2C   1py       -0.142914 -0.048190  0.100071 -0.174022  0.202952 -0.237704
  2C   2pz       -0.767499 -0.855247 -0.578208  0.258235  0.177489 -0.066873
  2C   2px       -0.153747 -0.197795 -0.120716 -0.181363 -1.502154  0.584414
  2C   2py        0.121230  0.183000  0.099470  0.398028 -0.793782  0.308740
  2C   1dz2      -0.027326 -0.004541  0.009321  0.008594 -0.002992  0.015173
  2C   1dxz       0.008833  0.009041  0.005153 -0.002129  0.012041 -0.075302
  2C   1dyz      -0.011255 -0.013735 -0.021369  0.014465  0.012295 -0.034422
  2C   1dx2y2    -0.038696 -0.011451  0.039799 -0.018493  0.042582  0.032635
  2C   1dxy      -0.058962 -0.019758  0.054214 -0.024526 -0.026939 -0.032996
  3H   1s        -0.267203 -0.368595 -0.108959 -0.236827  0.180862  0.382783
  3H   2s         0.397734  0.348044  0.168714  0.847177  0.603353 -0.930872
  3H   1pz        0.003811  0.024858  0.027282  0.040574  0.063123 -0.039816
  3H   1px       -0.000853 -0.030523 -0.021782 -0.039101 -0.009614  0.051334
  3H   1py       -0.033536 -0.009688  0.042137 -0.035918 -0.051770 -0.012531
  4H   1s         0.345524 -0.172545 -0.715472  0.115262 -0.000291 -0.000257
  4H   2s        -0.286454  0.224934  0.975347  0.191804  0.000908 -0.000007
  4H   1pz       -0.008579 -0.001100  0.001702 -0.033651  0.006936  0.004972
  4H   1px       -0.006800  0.018701  0.036555 -0.006546 -0.058145 -0.042672
  4H   1py        0.011234 -0.035688 -0.068925  0.004769 -0.030753 -0.022500
  5H   1s        -0.265352 -0.368494 -0.109010 -0.236913 -0.180063 -0.383507
  5H   2s         0.397148  0.347829  0.168901  0.845551 -0.605221  0.933936
  5H   1pz        0.000177  0.017786  0.026786  0.028944 -0.055074  0.030838
  5H   1px        0.028582  0.029178 -0.017460  0.058059 -0.059250  0.025297
  5H   1py       -0.018055  0.021788  0.044412  0.015379  0.015512  0.053050
  6O   1s        -0.000027  0.036285 -0.000008 -0.049809  0.000058 -0.000007
  6O   2s        -0.000059  0.155182 -0.000036 -0.162170  0.000175 -0.000031
  6O   3s        -0.000451 -0.627776  0.000235  0.293984 -0.000151  0.000120
  6O   1pz       -0.146555 -0.272401  0.007255  0.241594  0.005102  0.017037
  6O   1px       -0.121113  0.056571  0.005888 -0.050155 -0.045264 -0.144065
  6O   1py        0.196592 -0.168312 -0.009548  0.149355 -0.024096 -0.075940
  6O   2pz       -0.023390 -0.012210  0.030801  0.187704  0.024988 -0.000063
  6O   2px       -0.019403  0.002533  0.025446 -0.039226 -0.212904 -0.000090
  6O   2py        0.031657 -0.007553 -0.041308  0.115947 -0.112527  0.000140
  6O   1dz2      -0.020118 -0.036221 -0.023991  0.037065 -0.002458 -0.001044
  6O   1dxz      -0.007136  0.011444 -0.008568 -0.018210  0.012088  0.005308
  6O   1dyz       0.008418 -0.041521  0.010031  0.052335  0.005294  0.002351
  6O   1dx2y2    -0.007655  0.017559 -0.009113 -0.012783 -0.006280 -0.002760
  6O   1dxy      -0.009142  0.017869 -0.010935 -0.008513  0.005995  0.002629
  7H   1s         0.265159 -0.368553  0.109287 -0.236901  0.180432  0.383300
  7H   2s        -0.397677  0.348088 -0.169202  0.847639  0.604898 -0.932989
  7H   1pz        0.023871  0.017553 -0.054430  0.008114 -0.008429 -0.051060
  7H   1px        0.023677 -0.036545 -0.000573 -0.065930 -0.068827  0.042243
  7H   1py       -0.003445  0.000062 -0.005770  0.007591  0.044278  0.002370
  8H   1s         0.266976 -0.368403  0.109182 -0.236790 -0.179989 -0.383387
  8H   2s        -0.397859  0.347519 -0.168908  0.844958 -0.605649  0.933240
  8H   1pz        0.027263  0.010469 -0.053901 -0.003434  0.016643  0.041953
  8H   1px       -0.005677  0.023162 -0.004941  0.031352 -0.000039  0.034483
  8H   1py       -0.019045  0.031523 -0.008051  0.058690 -0.080673  0.038050
  9H   1s        -0.345448 -0.172053  0.715573  0.115431 -0.000318 -0.000097
  9H   2s         0.286768  0.224431 -0.975539  0.192424  0.000050  0.001395
  9H   1pz       -0.008275 -0.036806  0.069773 -0.007545  0.006862  0.004989
  9H   1px       -0.006884 -0.010802  0.022435  0.015004 -0.058174 -0.042715
  9H   1py        0.011454  0.012236 -0.026890 -0.030219 -0.030672 -0.022456
                     36        37        38        39        40        41   
                   0.51906   0.52754   0.54618   0.55309   0.56497   0.58396
                   0.00000   0.00000   0.00000   0.00000   0.00000   0.00000
                  --------  --------  --------  --------  --------  --------
  0C   1s         0.082681 -0.000075  0.000004  0.000013 -0.055634  0.000007
  0C   2s        -0.602903  0.000515 -0.000029 -0.000141  0.530511 -0.000077
  0C   3s         2.875354 -0.001977  0.000285  0.001033 -2.628432  0.000410
  0C   1pz        0.361330  0.125868 -0.083472 -0.000194 -0.507145 -0.357446
  0C   1px       -0.075437  0.103859 -0.068889 -0.000486  0.105206 -0.295183
  0C   1py        0.222909 -0.168981  0.111836  0.000753 -0.313150  0.479583
  0C   2pz       -0.685019 -1.472656  0.833342  0.002615  1.365095  1.527106
  0C   2px        0.142270 -1.216074  0.687866  0.003296 -0.283079  1.260961
  0C   2py       -0.420654  1.975004 -1.117314 -0.004711  0.842889 -2.048317
  0C   1dz2      -0.013097 -0.025147  0.023535  0.003470  0.034247 -0.007862
  0C   1dxz       0.008692 -0.008953  0.008441 -0.015121 -0.011582 -0.002795
  0C   1dyz      -0.021907  0.010495 -0.009787 -0.011555  0.040392  0.003276
  0C   1dx2y2     0.002670 -0.009554  0.008989 -0.025673 -0.016026 -0.002965
  0C   1dxy      -0.000442 -0.011435  0.010682  0.015203 -0.015786 -0.003575
  1C   1s         0.082991 -0.021965 -0.097458 -0.000234 -0.000830  0.077975
  1C   2s        -0.635700  0.044923  0.704534  0.001550  0.100330 -0.720277
  1C   3s         0.928460  1.971591 -3.406853 -0.009884  0.950737  0.283166
  1C   1pz       -0.238173 -0.542537 -0.111807  0.066745 -0.494237 -0.268419
  1C   1px       -0.235495 -0.029522  0.201865 -0.565373 -0.019813 -0.112808
  1C   1py        0.392754 -0.067102 -0.404757 -0.299285 -0.073577  0.154626
  1C   2pz        0.389433  1.862642 -0.210854 -0.146811  0.575725  0.283068
  1C   2px        0.664844 -0.244237 -0.203637  1.234319 -0.333550  0.712178
  1C   2py       -1.173942  0.883742  0.332118  0.650489  0.762175 -1.288785
  1C   1dz2       0.060967 -0.031126  0.070100  0.011551  0.042766  0.065020
  1C   1dxz       0.011270  0.036360  0.010914 -0.057760  0.020181 -0.001103
  1C   1dyz      -0.002914 -0.074366  0.015561 -0.023102 -0.007778  0.021604
  1C   1dx2y2     0.013947 -0.009997 -0.021825  0.047267 -0.032739  0.013465
  1C   1dxy       0.018891 -0.030060 -0.030057 -0.040355 -0.050888  0.023382
  2C   1s         0.083003  0.021766  0.097482  0.000153 -0.000894 -0.077993
  2C   2s        -0.635545 -0.043541 -0.704611 -0.001118  0.100959  0.720301
  2C   3s         0.924904 -1.974269  3.406808  0.007745  0.949714 -0.283799
  2C   1pz        0.313585  0.267952  0.455403 -0.066007 -0.257430 -0.058518
  2C   1px        0.219379 -0.198093  0.081426  0.566382  0.175884 -0.157255
  2C   1py       -0.345652  0.434884 -0.055953  0.298771 -0.390532  0.284269
  2C   2pz       -1.056972 -1.587588 -0.263235  0.146486  0.991035  1.210597
  2C   2px       -0.526546  0.472907 -0.186988 -1.235819  0.008517  0.521171
  2C   2py        0.759915 -1.251056  0.303508 -0.651168  0.204697 -0.714801
  2C   1dz2      -0.035922  0.025644 -0.014988 -0.014905  0.021465  0.021337
  2C   1dxz      -0.023324 -0.038400  0.008664  0.073381  0.012641  0.031907
  2C   1dyz       0.037672  0.076601 -0.038603  0.034837  0.001128 -0.057664
  2C   1dx2y2    -0.022785  0.007970  0.042695 -0.020795 -0.040835  0.019320
  2C   1dxy      -0.025204  0.027514  0.055175  0.024896 -0.060560  0.016010
  3H   1s        -0.062187  0.176623  0.303211 -0.320003 -0.030359  0.126315
  3H   2s        -0.445733 -0.605981 -1.167427  1.373721  0.539297  0.392830
  3H   1pz        0.002739 -0.055654 -0.002725  0.056312 -0.035523  0.008266
  3H   1px        0.030838  0.031098  0.064914 -0.061652 -0.049920  0.007158
  3H   1py       -0.030293 -0.035343  0.058805  0.004888 -0.018472  0.032097
  4H   1s         0.372732  0.251248 -0.259755 -0.000927  0.399172 -0.052420
  4H   2s        -1.225714  1.168260 -0.416967 -0.000125 -0.936892  1.070931
  4H   1pz        0.009759  0.079434 -0.044038 -0.002485  0.046542 -0.086982
  4H   1px       -0.033422  0.041218 -0.019823  0.019276 -0.029027  0.008798
  4H   1py        0.065421 -0.060334  0.027582  0.010214  0.065492 -0.036197
  5H   1s        -0.062784  0.176348  0.301482  0.321441 -0.030029  0.126044
  5H   2s        -0.445454 -0.604804 -1.160179 -1.378632  0.537971  0.394293
  5H   1pz        0.005376 -0.052099  0.015151 -0.044117 -0.045733  0.012539
  5H   1px        0.008294  0.001684 -0.083850 -0.040551  0.035876 -0.028554
  5H   1py       -0.042085 -0.050849 -0.019465 -0.058594  0.026756  0.013289
  6O   1s        -0.021406  0.000003  0.000004 -0.000005  0.003965  0.000005
  6O   2s        -0.052233 -0.000007  0.000023 -0.000016  0.004742  0.000031
  6O   3s        -0.171809  0.000225 -0.000078  0.000208 -0.296968  0.000106
  6O   1pz        0.090316  0.051079 -0.090892 -0.000229 -0.082094 -0.131396
  6O   1px       -0.018837  0.042069 -0.075034 -0.000223  0.017026 -0.108447
  6O   1py        0.055685 -0.068541  0.121814  0.000436 -0.050641  0.176208
  6O   2pz        0.095649  0.124446 -0.068544 -0.000253 -0.042021 -0.104158
  6O   2px       -0.019873  0.102854 -0.056579 -0.000315  0.008681 -0.086033
  6O   2py        0.058872 -0.166889  0.091935  0.000340 -0.025917  0.139713
  6O   1dz2       0.006637 -0.009652 -0.002615 -0.001362 -0.022488  0.005752
  6O   1dxz      -0.008789 -0.003442 -0.000947  0.006059  0.014132  0.002040
  6O   1dyz       0.017754  0.004033  0.001077  0.004630 -0.036402 -0.002389
  6O   1dx2y2     0.002125 -0.003668 -0.001015  0.010295  0.005296  0.002169
  6O   1dxy       0.006787 -0.004406 -0.001175 -0.006084  0.000544  0.002616
  7H   1s        -0.062428 -0.176290 -0.302890  0.319808 -0.030281 -0.126379
  7H   2s        -0.445158  0.605193  1.166667 -1.372635  0.538163 -0.392955
  7H   1pz       -0.036731  0.065652 -0.013382 -0.056929 -0.005682 -0.024835
  7H   1px       -0.001850 -0.022754 -0.078142  0.061028 -0.025220 -0.020842
  7H   1py        0.022785  0.021876 -0.037241 -0.003950 -0.058530 -0.009809
  8H   1s        -0.063159 -0.176825 -0.301526 -0.321551 -0.030403 -0.125959
  8H   2s        -0.444395  0.607489  1.160638  1.377876  0.538758 -0.394804
  8H   1pz       -0.033985  0.062227 -0.031204  0.044705 -0.015813 -0.029106
  8H   1px       -0.024265  0.006703  0.070572  0.040968  0.060580  0.014817
  8H   1py        0.010905  0.037502  0.041043  0.057799 -0.013256  0.008955
  9H   1s         0.372297 -0.251955  0.259841  0.000534  0.399126  0.051955
  9H   2s        -1.228011 -1.165829  0.416919  0.001090 -0.938098 -1.069889
  9H   1pz        0.070515  0.032142 -0.011931  0.002258  0.084105  0.068973
  9H   1px        0.016730  0.050968 -0.026386 -0.019438  0.001922 -0.023606
  9H   1py       -0.016064 -0.089450  0.047467 -0.010049  0.015224  0.060235
                     42        43        44        45        46        47   
                   0.68603   0.77720   0.85043   0.87163   0.95332   1.01558
                   0.00000   0.00000   0.00000   0.00000   0.00000   0.00000
                  --------  --------  --------  --------  --------  --------
  0C   1s        -0.007252  0.048101  0.000002  0.000002  0.000002 -0.000002
  0C   2s         0.050497 -0.813396 -0.000034 -0.000046 -0.000009  0.000023
  0C   3s         4.826745  3.671985  0.000305  0.000519  0.000033  0.000078
  0C   1pz        0.057721 -0.157728  0.006310  0.017245  0.000008  0.106680
  0C   1px       -0.012020  0.032728 -0.053302  0.014253 -0.000009  0.088054
  0C   1py        0.035663 -0.097464 -0.028124 -0.023117  0.000005 -0.143021
  0C   2pz       -0.327330 -0.543870 -0.041442 -1.431267  0.000008 -1.838998
  0C   2px        0.068115  0.113055  0.349512 -1.181445  0.000019 -1.518142
  0C   2py       -0.202511 -0.336323  0.184404  1.918813  0.000019  2.465807
  0C   1dz2       0.050572 -0.090549  0.006227  0.058849  0.027007 -0.140827
  0C   1dxz      -0.023470  0.041377 -0.031143  0.020997 -0.118937 -0.050237
  0C   1dyz       0.069307 -0.123111 -0.013813 -0.024559 -0.090426  0.058778
  0C   1dx2y2    -0.018554  0.033715  0.016223  0.022332 -0.202018 -0.053427
  0C   1dxy      -0.013723  0.025518 -0.015455  0.026801  0.119335 -0.064119
  1C   1s        -0.061445 -0.049918 -0.000003  0.087406 -0.000000  0.023764
  1C   2s         0.891630  0.688647  0.000033 -1.243704 -0.000001 -0.283197
  1C   3s        -4.134356 -3.292807 -0.000142  5.446198  0.000005  3.357135
[...]
     12       0.000000   0.000000   0.000000   0.000000   0.000000   0.000000
     13       0.000000   0.000000   0.000000   0.000000   0.000000   0.000000
     14       0.000000   0.000000   0.000000   0.000000   0.000000   0.000000
     15       0.000000   0.000000   0.000000   0.000000   0.000000   0.000000
     16       0.000000   0.000000   0.000000   0.000000   0.000000   0.000000
     17       0.000000   0.000000   0.000000   0.000000   0.000000   0.000000
     18       0.000000   0.000000   0.000000   0.000000   0.000000   0.000000
     19       0.000000   0.000000   0.000000   0.000000   0.000000   0.000000
     20       0.000000   0.000000   0.000000   0.000000   0.000000   0.000000
     21       0.000000   0.000000   0.000000   0.000000   0.000000   0.000000
     22       0.000000   0.000000   0.000000   0.000000   0.000000   0.000000
     23       0.000000   0.000000   0.000000   0.000000   0.000000   0.000000
     24       0.000000   0.000000   0.000000   0.000000   0.000000   0.000000
     25       0.000000   0.000000   0.000000   0.000000   0.000000   0.000000
     26       0.000000   0.000000   0.000000   0.000000   0.000000   0.000000
     27       0.000000   0.000000   0.000000   0.000000   0.000000   0.000000
     28       0.000000   0.000000   0.000000   0.000000   0.000000   0.000000
     29       0.000000   0.000000   0.000000   0.000000   0.000000   0.000000
                  6          7          8          9         10         11    
      0       0.000002   0.022147  -0.022173   0.232639   0.060242   0.023823
      1       0.000021   0.011716   0.066271   0.123030  -0.095590  -0.071104
      2      -0.000005  -0.002649   0.107128  -0.027779   0.071582  -0.115105
      3      -0.017028   0.034089  -0.050317  -0.016483   0.081090  -0.136626
      4      -0.008974   0.018017   0.058902  -0.008143  -0.168642   0.251301
      5       0.002004  -0.003999  -0.162810   0.002177  -0.066316  -0.034421
      6       0.017130   0.034033   0.084138  -0.016343   0.026443   0.093122
      7       0.009033   0.017968  -0.159481  -0.008517  -0.006128  -0.121850
      8      -0.002027  -0.004069   0.000106   0.001449   0.196684   0.243930
      9       0.106400  -0.052413   0.176501  -0.267346  -0.065766   0.062439
     10       0.389477  -0.370384  -0.329990   0.122878   0.168084  -0.051854
     11       0.169538  -0.171150   0.096492  -0.302505   0.102933   0.221852
     12      -0.297804   0.350126   0.034774  -0.284062   0.075982   0.131721
     13      -0.157032   0.184649  -0.146662  -0.149596  -0.021450  -0.138185
     14       0.035238  -0.041557  -0.359871   0.032333   0.559496   0.496377
     15       0.345213  -0.299707   0.190241   0.009590  -0.082580   0.048705
     16      -0.151468   0.184752  -0.322792  -0.259698   0.157094  -0.058906
     17      -0.222941   0.212760   0.095186   0.332613   0.108391   0.223308
     18      -0.000087  -0.067545  -0.022410  -0.081689  -0.134710   0.028292
     19      -0.000053  -0.035703   0.066515  -0.043896   0.217889  -0.084092
     20       0.000020   0.008019   0.107655   0.010048  -0.162664  -0.136070
     21      -0.232644  -0.185549  -0.148342   0.059107  -0.017737  -0.100217
     22      -0.185660  -0.152233   0.197674  -0.407211  -0.036073   0.212347
     23      -0.322873  -0.332292  -0.297043   0.093840  -0.204055   0.024769
     24      -0.219857  -0.165044  -0.134813  -0.317285  -0.001584  -0.113748
     25      -0.053060  -0.032717   0.205239   0.271219  -0.023087   0.204931
     26       0.376420   0.373891  -0.298712  -0.062100  -0.206358   0.026454
     27       0.298831   0.349049   0.098551  -0.284334   0.230645  -0.243430
     28       0.157638   0.184238  -0.250389  -0.148341  -0.481374   0.471121
     29      -0.035360  -0.041238  -0.282532   0.034141  -0.184968   0.042068
                 12         13         14         15         16         17    
      0      -0.000249   0.045583   0.007263   0.208354   0.144701  -0.000970
      1       0.000368  -0.074091  -0.021673   0.109985  -0.234824   0.002873
      2      -0.000269   0.055265  -0.034895  -0.024670   0.175173   0.004574
      3      -0.084762  -0.034780   0.007599  -0.114253  -0.026310   0.046875
      4      -0.045232   0.086831   0.015355  -0.060295   0.031405  -0.090517
      5       0.009528   0.099090   0.132869   0.013538  -0.081931  -0.007121
      6       0.084883   0.012995  -0.048646  -0.114229  -0.042886  -0.025665
      7       0.045057  -0.051421   0.106744  -0.060312   0.080812   0.027333
      8      -0.009431  -0.125563   0.064643   0.013553  -0.001835  -0.094930
      9      -0.224517  -0.132818   0.084321   0.180763  -0.138743   0.287677
     10       0.100751   0.285594  -0.270477  -0.040984  -0.094983  -0.039876
     11      -0.393972  -0.264327   0.178518   0.386045  -0.178717   0.323825
     12      -0.208035   0.076224  -0.119563   0.259608  -0.118375   0.035001
     13      -0.109162  -0.066648   0.121185   0.136802   0.103636   0.008068
     14       0.022841   0.363061  -0.471351  -0.030570  -0.539909   0.330840
     15       0.033524  -0.208305   0.207352  -0.005364   0.120892  -0.065743
     16      -0.205156   0.242929  -0.205722   0.133857   0.041793  -0.226193
     17       0.419496  -0.249878   0.163950  -0.406945  -0.209560   0.365557
     18      -0.000060   0.011716   0.018313  -0.039723  -0.023567  -0.000364
     19       0.000111  -0.019006  -0.054446  -0.020937   0.038227   0.001086
     20      -0.000068   0.014197  -0.088116   0.004683  -0.028487   0.001768
     21      -0.114515  -0.226281  -0.205666  -0.099491   0.060016  -0.003977
     22       0.449845   0.297666   0.200610   0.414033   0.222835   0.434364
     23      -0.016670  -0.170724  -0.172696   0.046602   0.083480  -0.029393
     24       0.309199  -0.146435  -0.082618   0.275079  -0.199382  -0.357806
     25      -0.351527   0.333265   0.265333  -0.321459   0.085684   0.247783
     26      -0.004305  -0.179764  -0.187290  -0.067517   0.114225   0.012254
     27       0.206829   0.168088   0.228058   0.259712  -0.250052  -0.130543
     28       0.111188  -0.330237  -0.443414   0.136623   0.495249   0.277263
     29      -0.024256  -0.066779  -0.050256  -0.030790   0.093444   0.130362
                 18         19         20         21         22         23    
      0      -0.053650   0.007720   0.000116  -0.002485   0.029071   0.126403
      1       0.087076  -0.012508  -0.000370   0.007405   0.015341  -0.375934
      2      -0.064959   0.009313  -0.000670   0.012046  -0.003442  -0.608364
      3       0.064733   0.009439   0.039828  -0.011440   0.029016  -0.009571
      4      -0.118838  -0.010127   0.019579   0.019061   0.015274   0.025484
      5       0.017638   0.034690  -0.002707  -0.035156  -0.003439   0.032811
      6       0.044647   0.017140  -0.040104   0.017629   0.028982  -0.005159
      7      -0.058765  -0.032959  -0.018691  -0.037351   0.015341   0.018335
      8       0.114911  -0.002513   0.004348   0.005651  -0.003438   0.038142
      9      -0.292053   0.113380  -0.126529   0.086451   0.134407   0.083267
     10       0.106192   0.378816   0.283561   0.405117  -0.307505   0.051202
     11      -0.314763   0.196623  -0.081777   0.173039   0.101047   0.140829
     12      -0.013175  -0.032012   0.460118  -0.007281  -0.442616  -0.034193
     13      -0.039767  -0.013642   0.242474  -0.001878  -0.233373   0.008788
     14      -0.285402  -0.324859  -0.036178  -0.340992   0.052698  -0.249322
     15       0.015568  -0.335738   0.212867  -0.325154  -0.195149  -0.061612
     16       0.268579   0.142858  -0.274095   0.148087   0.274689  -0.025177
     17      -0.351044   0.249554   0.051339   0.231168  -0.094144   0.157958
     18       0.007140  -0.002663  -0.000299   0.005613  -0.001916  -0.082484
     19      -0.011581   0.004335   0.000902  -0.016692  -0.001009   0.245313
     20       0.008630  -0.003183   0.001464  -0.027032   0.000229   0.396956
     21      -0.039202  -0.217415  -0.165918   0.210779  -0.161524   0.016337
     22       0.431408  -0.211174   0.133483   0.189874   0.174048   0.159829
     23      -0.086391  -0.322972  -0.279428   0.315392  -0.257360   0.059776
     24      -0.346576   0.232383   0.091668  -0.203873   0.100389  -0.128458
     25       0.269435   0.025990  -0.179454  -0.053504  -0.205930   0.083403
     26      -0.050356  -0.376130   0.249329   0.395178   0.264742   0.076925
     27      -0.101952  -0.127019  -0.465552   0.105857  -0.442588   0.103201
     28       0.226651   0.270777  -0.226457  -0.293060  -0.233516  -0.214280
     29       0.145585   0.133919   0.061900  -0.136706   0.052344  -0.083036
                 24         25         26         27         28         29    
      0       0.001104  -0.000028   0.000000  -0.000738   0.000206   0.000606
      1      -0.001793   0.000079  -0.000004  -0.000389  -0.000347  -0.001803
      2       0.001338   0.000119   0.000002   0.000089   0.000202  -0.002926
      3      -0.015030  -0.015142  -0.056988  -0.056942   0.008590  -0.008814
      4       0.031074   0.031124  -0.030071  -0.030042  -0.001735   0.001796
      5       0.011589   0.010928   0.006746   0.006738   0.064771  -0.066502
      6      -0.005112   0.005457   0.056939  -0.057013   0.027326   0.026607
      7       0.001653  -0.002253   0.030010  -0.030062  -0.056940  -0.055434
      8      -0.035835   0.036000  -0.006748   0.006748  -0.022721  -0.022108
      9      -0.361935   0.361849  -0.392204   0.392609  -0.166785  -0.167283
     10      -0.043282   0.042125  -0.038927   0.038854  -0.026561  -0.027064
     11       0.264691  -0.263635   0.303805  -0.304084   0.123115   0.124317
     12       0.135774  -0.140762   0.010987  -0.009486  -0.295355  -0.285659
     13      -0.265656   0.274911   0.005897  -0.005017   0.574499   0.555573
     14      -0.036389   0.035490  -0.001298   0.001122   0.063981   0.061569
     15       0.282127  -0.281007  -0.302223   0.302545   0.135699   0.136575
     16       0.296335  -0.296889  -0.327182   0.327704   0.132977   0.133192
     17       0.188453  -0.187596  -0.221530   0.221804   0.087378   0.088395
     18      -0.000115   0.000166  -0.000001  -0.000243  -0.000142  -0.000244
     19       0.000185  -0.000495   0.000001  -0.000128   0.000235   0.000726
     20      -0.000140  -0.000799  -0.000000   0.000029  -0.000153   0.001180
     21       0.375207   0.370287   0.407821   0.407355   0.171961  -0.182670
     22       0.025008   0.025561   0.014145   0.014175   0.010097  -0.010016
     23      -0.252180  -0.250155  -0.285459  -0.285269  -0.107993   0.114325
     24      -0.272004  -0.269340   0.287285   0.286977  -0.122294   0.129148
     25      -0.316350  -0.311737   0.352604   0.352114  -0.145194   0.154465
     26      -0.175543  -0.174364   0.203308   0.203176  -0.073257   0.077429
     27       0.069506   0.072076  -0.011071  -0.009497  -0.151389   0.154519
     28      -0.067606  -0.071076  -0.005787  -0.004979   0.153729  -0.157042
     29       0.286158   0.292355   0.001174   0.001043  -0.594259   0.605947


-----------
IR SPECTRUM
-----------

 Mode    freq (cm**-1)   T**2         TX         TY         TZ
-------------------------------------------------------------------
   6:        23.41    0.000002  (  0.000528   0.000813   0.001075)
   7:       134.31    0.433475  ( -0.580858  -0.302879   0.065901)
   8:       376.41    1.039838  (  0.176627  -0.526157  -0.855453)
   9:       473.61    0.005872  (  0.060568   0.044998  -0.013354)
  10:       523.48   12.148575  (  1.542226  -2.504227   1.870550)
  11:       773.27    1.995487  (  0.245985  -0.730572  -1.183741)
  12:       832.69    0.000276  ( -0.006132   0.013666  -0.007159)
  13:       847.47    8.621165  (  1.300817  -2.108604   1.575699)
  14:      1036.16    0.038021  (  0.035594  -0.100844  -0.163049)
  15:      1062.47    4.174025  (  1.795484   0.950859  -0.214783)
  16:      1187.54   66.329431  (  3.606037  -5.855017   4.364024)
  17:      1311.61   19.369127  ( -0.763858   2.280478   3.685793)
  18:      1321.31   74.788496  ( -3.826402   6.215265  -4.638710)
  19:      1383.17    1.094651  ( -0.462134   0.747877  -0.567242)
  20:      1394.32    0.062680  (  0.042453  -0.123482  -0.213611)
  21:      1394.75   20.759576  ( -0.795039   2.359884   3.815552)
  22:      1417.03   18.959162  ( -3.830035  -2.020727   0.454594)
  23:      1769.25  157.807566  (  2.186005  -6.502327 -10.523720)
  24:      2961.89    1.716716  ( -0.582753   0.943496  -0.697804)
  25:      2968.28    4.438585  ( -0.366711   1.086125   1.767609)
  26:      3039.13    0.000024  ( -0.002467  -0.004041   0.001371)
  27:      3045.39   12.505027  ( -3.110475  -1.641167   0.369517)
  28:      3097.20    7.897277  (  1.247907  -2.035279   1.482445)
  29:      3097.89    4.839221  (  0.367150  -1.111756  -1.862369)

The first frequency considered to be a vibration is 6
The total number of vibrations considered is 24


--------------------------
THERMOCHEMISTRY AT 298.15K
--------------------------

Temperature         ... 298.15 K
Pressure            ... 1.00 atm
Total Mass          ... 58.08 AMU

Throughout the following assumptions are being made:
  (1) The electronic state is orbitally nondegenerate
  (2) There are no thermally accessible electronically excited states
  (3) Hindered rotations indicated by low frequency modes are not
      treated as such but are treated as vibrations and this may
      cause some error
  (4) All equations used are the standard statistical mechanics
      equations for an ideal gas
  (5) All vibrations are strictly harmonic

freq.      23.41  E(vib)   ...       0.56 
freq.     134.31  E(vib)   ...       0.42 
freq.     376.41  E(vib)   ...       0.21 
freq.     473.61  E(vib)   ...       0.15 
freq.     523.48  E(vib)   ...       0.13 
freq.     773.27  E(vib)   ...       0.05 
freq.     832.69  E(vib)   ...       0.04 
freq.     847.47  E(vib)   ...       0.04 
freq.    1036.16  E(vib)   ...       0.02 
freq.    1062.47  E(vib)   ...       0.02 
freq.    1187.54  E(vib)   ...       0.01 
freq.    1311.61  E(vib)   ...       0.01 
freq.    1321.31  E(vib)   ...       0.01 
freq.    1383.17  E(vib)   ...       0.00 
freq.    1394.32  E(vib)   ...       0.00 
freq.    1394.75  E(vib)   ...       0.00 
freq.    1417.03  E(vib)   ...       0.00 
freq.    1769.25  E(vib)   ...       0.00 
freq.    2961.89  E(vib)   ...       0.00 
freq.    2968.28  E(vib)   ...       0.00 
freq.    3039.13  E(vib)   ...       0.00 
freq.    3045.39  E(vib)   ...       0.00 
freq.    3097.20  E(vib)   ...       0.00 
freq.    3097.89  E(vib)   ...       0.00 

------------
INNER ENERGY
------------

The inner energy is: U= E(el) + E(ZPE) + E(vib) + E(rot) + E(trans)
    E(el)   - is the total energy from the electronic structure calculation
              = E(kin-el) + E(nuc-el) + E(el-el) + E(nuc-nuc)
    E(ZPE)  - the the zero temperature vibrational energy from the frequency calculation
    E(vib)  - the the finite temperature correction to E(ZPE) due to population
              of excited vibrational states
    E(rot)  - is the rotational thermal energy
    E(trans)- is the translational thermal energy

Summary of contributions to the inner energy U:
Electronic energy                ...   -192.96888314 Eh
Zero point energy                ...      0.08081131 Eh      50.71 kcal/mol
Thermal vibrational correction   ...      0.00270063 Eh       1.69 kcal/mol
Thermal rotational correction    ...      0.00141627 Eh       0.89 kcal/mol
Thermal translational correction ...      0.00141627 Eh       0.89 kcal/mol
-----------------------------------------------------------------------
Total thermal energy                   -192.88253865 Eh


Summary of corrections to the electronic energy:
(perhaps to be used in another calculation)
Total thermal correction                  0.00553317 Eh       3.47 kcal/mol
Non-thermal (ZPE) correction              0.08081131 Eh      50.71 kcal/mol
-----------------------------------------------------------------------
Total correction                          0.08634449 Eh      54.18 kcal/mol


--------
ENTHALPY
--------

The enthalpy is H = U + kB*T
                kB is Boltzmann's constant
Total free energy                 ...   -192.88253865 Eh 
Thermal Enthalpy correction       ...      0.00094421 Eh       0.59 kcal/mol
-----------------------------------------------------------------------
Total Enthalpy                    ...   -192.88159445 Eh


Note: Only C1 symmetry has been detected, increase convergence thresholds 
      if your molecule has a higher symmetry. Symmetry factor of 1.0 is   
      used for the rotational entropy correction. 
 

Note: Rotational entropy computed according to Herzberg 
Infrared and Raman Spectra, Chapter V,1, Van Nostrand Reinhold, 1945 
Point Group:  C1, Symmetry Number:   1  
Rotational constants in cm-1:     0.331027     0.279800     0.160901 

Vibrational entropy computed according to the QRRHO of S. Grimme
Chem.Eur.J. 2012 18 9955


-------
ENTROPY
-------

The entropy contributions are T*S = T*(S(el)+S(vib)+S(rot)+S(trans))
     S(el)   - electronic entropy
     S(vib)  - vibrational entropy
     S(rot)  - rotational entropy
     S(trans)- translational entropy
The entropies will be listed as mutliplied by the temperature to get
units of energy

Electronic entropy                ...      0.00000000 Eh      0.00 kcal/mol
Vibrational entropy               ...      0.00494563 Eh      3.10 kcal/mol
Rotational entropy                ...      0.01149652 Eh      7.21 kcal/mol
Translational entropy             ...      0.01810171 Eh     11.36 kcal/mol
-----------------------------------------------------------------------
Final entropy term                ...      0.03454386 Eh     21.68 kcal/mol

In case the symmetry of your molecule has not been determined correctly
or in case you have a reason to use a different symmetry number we print 
out the resulting rotational entropy values for sn=1,12 :
 --------------------------------------------------------
|  sn= 1 | S(rot)=       0.01149652 Eh      7.21 kcal/mol|
|  sn= 2 | S(rot)=       0.01084206 Eh      6.80 kcal/mol|
|  sn= 3 | S(rot)=       0.01045923 Eh      6.56 kcal/mol|
|  sn= 4 | S(rot)=       0.01018761 Eh      6.39 kcal/mol|
|  sn= 5 | S(rot)=       0.00997692 Eh      6.26 kcal/mol|
|  sn= 6 | S(rot)=       0.00980477 Eh      6.15 kcal/mol|
|  sn= 7 | S(rot)=       0.00965923 Eh      6.06 kcal/mol|
|  sn= 8 | S(rot)=       0.00953315 Eh      5.98 kcal/mol|
|  sn= 9 | S(rot)=       0.00942194 Eh      5.91 kcal/mol|
|  sn=10 | S(rot)=       0.00932246 Eh      5.85 kcal/mol|
|  sn=11 | S(rot)=       0.00923247 Eh      5.79 kcal/mol|
|  sn=12 | S(rot)=       0.00915032 Eh      5.74 kcal/mol|
 --------------------------------------------------------


-------------------
GIBBS FREE ENERGY
-------------------

The Gibbs free energy is G = H - T*S

Total enthalpy                    ...   -192.88159445 Eh 
Total entropy correction          ...     -0.03454386 Eh    -21.68 kcal/mol
-----------------------------------------------------------------------
Final Gibbs free energy         ...   -192.91613831 Eh

For completeness - the Gibbs free energy minus the electronic energy
G-E(el)                           ...      0.05274483 Eh     33.10 kcal/mol


Timings for individual modules:

Sum of individual times         ...       54.150 sec (=   0.903 min)
GTO integral calculation        ...        3.215 sec (=   0.054 min)   5.9 %
SCF iterations                  ...       21.830 sec (=   0.364 min)  40.3 %
SCF Gradient evaluation         ...        8.025 sec (=   0.134 min)  14.8 %
Geometry relaxation             ...        0.237 sec (=   0.004 min)   0.4 %
Analytical frequency calculation...       20.843 sec (=   0.347 min)  38.5 %
                             ****ORCA TERMINATED NORMALLY****
TOTAL RUN TIME: 0 days 0 hours 0 minutes 55 seconds 82 msec
