
                                 *****************
                                 * O   R   C   A *
                                 *****************

           --- An Ab Initio, DFT and Semiempirical electronic structure package ---

                  #######################################################
                  #                        -***-                        #
                  #          Department of theory and spectroscopy      #
                  #               Directorship: Frank Neese             #
                  #        Max Planck Institute fuer Kohlenforschung    #
                  #                Kaiser Wilhelm Platz 1               #
                  #                 D-45470 Muelheim/Ruhr               #
                  #                      Germany                        #
                  #                                                     #
                  #                  All rights reserved                #
                  #                        -***-                        #
                  #######################################################


                         Program Version 4.2.1 -  RELEASE  -


 With contributions from (in alphabetic order):
   Daniel Aravena         : Magnetic Suceptibility
   Michael Atanasov       : Ab Initio Ligand Field Theory (pilot matlab implementation)
   Alexander A. Auer      : GIAO ZORA, VPT2
   Ute Becker             : Parallelization
   Giovanni Bistoni       : ED, misc. LED, open-shell LED, HFLD
   Martin Brehm           : Molecular dynamics
   Dmytro Bykov           : SCF Hessian
   Vijay G. Chilkuri      : MRCI spin determinant printing, contributions to CSF-ICE
   Dipayan Datta          : RHF DLPNO-CCSD density
   Achintya Kumar Dutta   : EOM-CC, STEOM-CC
   Dmitry Ganyushin       : Spin-Orbit,Spin-Spin,Magnetic field MRCI
   Miquel Garcia          : C-PCM Hessian, Gaussian charge scheme
   Yang Guo               : DLPNO-NEVPT2, CIM, IAO-localization
   Andreas Hansen         : Spin unrestricted coupled pair/coupled cluster methods
   Benjamin Helmich-Paris : CASSCF linear response (MC-RPA)
   Lee Huntington         : MR-EOM, pCC
   Robert Izsak           : Overlap fitted RIJCOSX, COSX-SCS-MP3, EOM
   Christian Kollmar      : KDIIS, OOCD, Brueckner-CCSD(T), CCSD density
   Simone Kossmann        : Meta GGA functionals, TD-DFT gradient, OOMP2, MP2 Hessian
   Martin Krupicka        : AUTO-CI
   Lucas Lang             : DCDCAS
   Dagmar Lenk            : GEPOL surface, SMD
   Dimitrios Liakos       : Extrapolation schemes; Compound Job, initial MDCI parallelization
   Dimitrios Manganas     : Further ROCIS development; embedding schemes
   Dimitrios Pantazis     : SARC Basis sets
   Taras Petrenko         : DFT Hessian,TD-DFT gradient, ASA, ECA, R-Raman, ABS, FL, XAS/XES, NRVS
   Peter Pinski           : DLPNO-MP2, DLPNO-MP2 Gradient
   Christoph Reimann      : Effective Core Potentials
   Marius Retegan         : Local ZFS, SOC
   Christoph Riplinger    : Optimizer, TS searches, QM/MM, DLPNO-CCSD(T), (RO)-DLPNO pert. Triples
   Tobias Risthaus        : Range-separated hybrids, TD-DFT gradient, RPA, STAB
   Michael Roemelt        : Original ROCIS implementation
   Masaaki Saitow         : Open-shell DLPNO-CCSD energy and density
   Barbara Sandhoefer     : DKH picture change effects
   Avijit Sen             : IP-ROCIS
   Kantharuban Sivalingam : CASSCF convergence, NEVPT2, FIC-MRCI
   Bernardo de Souza      : ESD, SOC TD-DFT
   Georgi Stoychev        : AutoAux, RI-MP2 NMR
   Willem Van den Heuvel  : Paramagnetic NMR
   Boris Wezisla          : Elementary symmetry handling
   Frank Wennmohs         : Technical directorship


 We gratefully acknowledge several colleagues who have allowed us to
 interface, adapt or use parts of their codes:
   Stefan Grimme, W. Hujo, H. Kruse,             : VdW corrections, initial TS optimization,
                  C. Bannwarth                     DFT functionals, gCP, sTDA/sTD-DF
   Ed Valeev, F. Pavosevic, A. Kumar             : LibInt (2-el integral package), F12 methods
   Garnet Chan, S. Sharma, J. Yang, R. Olivares  : DMRG
   Ulf Ekstrom                                   : XCFun DFT Library
   Mihaly Kallay                                 : mrcc  (arbitrary order and MRCC methods)
   Andreas Klamt, Michael Diedenhofen            : otool_cosmo (COSMO solvation model)
   Jiri Pittner, Ondrej Demel                    : Mk-CCSD
   Frank Weinhold                                : gennbo (NPA and NBO analysis)
   Christopher J. Cramer and Donald G. Truhlar   : smd solvation model
   Lars Goerigk                                  : TD-DFT with DH, B97 family of functionals
   V. Asgeirsson, H. Jonsson                     : NEB implementation
   FAccTs GmbH                                   : IRC, NEB, NEB-TS, Multilevel, MM, QM/MM, CI optimization
   S Lehtola, MJT Oliveira, MAL Marques          : LibXC Library


 Your calculation uses the libint2 library for the computation of 2-el integrals
 For citations please refer to: http://libint.valeyev.net

 Your ORCA version has been built with support for libXC version: 4.2.3
 For citations please refer to: https://tddft.org/programs/libxc/

 This ORCA versions uses:
   CBLAS   interface :  Fast vector & matrix operations
   LAPACKE interface :  Fast linear algebra routines
   SCALAPACK package :  Parallel linear algebra routines




***************************************
The coordinates will be read from file: init.xyz
***************************************


Your calculation utilizes the geometrical counterpoise correction gCP
Please cite in your paper:
H.Kruse, S. Grimme J.Chem.Phys., 136, (2012), 154101 
   

Your calculation utilizes the atom-pairwise dispersion correction
based on tight binding partial charges (D4)
Cite in your paper:
E.Caldeweyher, C.Bannwarth, S.Grimme, J.Chem.Phys., (2017), 147, 034112.
E.Caldeweyher, S.Ehlert, A.Hansen, H.Neugebauer, S.Grimme, J.Chem.Phys., (2018), in progress.
   

----- Orbital basis set information -----
Your calculation utilizes the basis: def2-SVP
   F. Weigend and R. Ahlrichs, Phys. Chem. Chem. Phys. 7, 3297 (2005).

----- AuxJ basis set information -----
Your calculation utilizes the auxiliary basis: def2/J
   F. Weigend, Phys. Chem. Chem. Phys. 8, 1057 (2006).

================================================================================
                                        WARNINGS
                       Please study these warnings very carefully!
================================================================================


WARNING: Geometry Optimization
  ===> : Switching off AutoStart
         For restart on a previous wavefunction, please use MOREAD

INFO   : the flag for use of LIBINT has been found!

================================================================================
                                       INPUT FILE
================================================================================
NAME = opt.inp
|  1> ! revPBE D4 gCP(DFT/TZ) def2-SVP Opt Freq TightOpt TightSCF Grid4 FinalGrid5 LargePrint
|  2> 
|  3> %pal
|  4>  nprocs 8
|  5> end
|  6> 
|  7> *xyzfile 0 1 init.xyz
|  8> 
|  9>                          ****END OF INPUT****
================================================================================

                       *****************************
                       * Geometry Optimization Run *
                       *****************************

Geometry optimization settings:
Update method            Update   .... BFGS
Choice of coordinates    CoordSys .... Z-matrix Internals
Initial Hessian          InHess   .... Almoef's Model

Convergence Tolerances:
Energy Change            TolE     ....  1.0000e-06 Eh
Max. Gradient            TolMAXG  ....  1.0000e-04 Eh/bohr
RMS Gradient             TolRMSG  ....  3.0000e-05 Eh/bohr
Max. Displacement        TolMAXD  ....  1.0000e-03 bohr
RMS Displacement         TolRMSD  ....  6.0000e-04 bohr
Strict Convergence                ....  False
------------------------------------------------------------------------------
                        ORCA OPTIMIZATION COORDINATE SETUP
------------------------------------------------------------------------------

The optimization will be done in new redundant internal coordinates
Making redundant internal coordinates   ...  (new redundants) done
Evaluating the initial hessian          ...  (Almloef) done
Evaluating the coordinates              ...  done
Calculating the B-matrix                .... done
Calculating the G-matrix                .... done
Diagonalizing the G-matrix              .... done
The first mode is                       ....    1
The number of degrees of freedom        ....   12

    -----------------------------------------------------------------
                    Redundant Internal Coordinates


    -----------------------------------------------------------------
         Definition                    Initial Value    Approx d2E/dq
    -----------------------------------------------------------------
      1. B(N   1,C   0)                  1.1572         1.316330   
      2. B(C   2,C   0)                  1.4632         0.477502   
      3. B(H   3,C   2)                  1.1095         0.335221   
      4. B(H   4,C   2)                  1.1094         0.335290   
      5. B(H   5,C   2)                  1.1094         0.335345   
      6. L(N   1,C   0,C   2,H   5, 2) 179.9733         0.471516   
      7. L(N   1,C   0,C   2,H   5, 1) 179.9840         0.471516   
      8. A(C   0,C   2,H   3)          109.5171         0.333763   
      9. A(H   3,C   2,H   4)          109.4674         0.284412   
     10. A(C   0,C   2,H   5)          109.4524         0.333784   
     11. A(H   3,C   2,H   5)          109.4549         0.284419   
     12. A(H   4,C   2,H   5)          109.4613         0.284429   
     13. A(C   0,C   2,H   4)          109.4742         0.333775   
    -----------------------------------------------------------------

Number of atoms                         .... 6
Number of degrees of freedom            .... 13

         *************************************************************
         *                GEOMETRY OPTIMIZATION CYCLE   1            *
         *************************************************************
---------------------------------
CARTESIAN COORDINATES (ANGSTROEM)
---------------------------------
  C     -8.695440    2.126240   -1.340430
  N     -7.993180    1.788840   -0.484860
  C     -9.583840    2.552670   -2.422010
  H     -8.991710    2.713620   -3.346370
  H    -10.087140    3.499050   -2.135840
  H    -10.347150    1.768470   -2.604020

----------------------------
CARTESIAN COORDINATES (A.U.)
----------------------------
  NO LB      ZA    FRAG     MASS         X           Y           Z
   0 C     6.0000    0    12.011  -16.432000    4.018011   -2.533046
   1 N     7.0000    0    14.007  -15.104921    3.380418   -0.916253
   2 C     6.0000    0    12.011  -18.110833    4.823847   -4.576936
   3 H     1.0000    0     1.008  -16.991869    5.127999   -6.323723
   4 H     1.0000    0     1.008  -19.061932    6.612246   -4.036153
   5 H     1.0000    0     1.008  -19.553280    3.341924   -4.920885

--------------------------------
INTERNAL COORDINATES (ANGSTROEM)
--------------------------------
 C      0   0   0     0.000000000000     0.00000000     0.00000000
 N      1   0   0     1.157155085760     0.00000000     0.00000000
 C      1   2   0     1.463185702944   179.97925561     0.00000000
 H      3   1   2     1.109488282498   109.51711389   200.40542231
 H      3   1   2     1.109431955237   109.47418327    80.38015798
 H      3   1   2     1.109386964138   109.45238497   320.40197043

---------------------------
INTERNAL COORDINATES (A.U.)
---------------------------
 C      0   0   0     0.000000000000     0.00000000     0.00000000
 N      1   0   0     2.186706206560     0.00000000     0.00000000
 C      1   2   0     2.765020261633   179.97925561     0.00000000
 H      3   1   2     2.096629002716   109.51711389   200.40542231
 H      3   1   2     2.096522559618   109.47418327    80.38015798
 H      3   1   2     2.096437538764   109.45238497   320.40197043

---------------------
BASIS SET INFORMATION
---------------------
There are 3 groups of distinct atoms

 Group   1 Type C   : 7s4p1d contracted to 3s2p1d pattern {511/31/1}
 Group   2 Type N   : 7s4p1d contracted to 3s2p1d pattern {511/31/1}
 Group   3 Type H   : 4s1p contracted to 2s1p pattern {31/1}

Atom   0C    basis set group =>   1
Atom   1N    basis set group =>   2
Atom   2C    basis set group =>   1
Atom   3H    basis set group =>   3
Atom   4H    basis set group =>   3
Atom   5H    basis set group =>   3

-------------------------
BASIS SET IN INPUT FORMAT
-------------------------

 # Basis set for element : H 
 NewGTO H 
 S 3 
   1      13.0107010000      0.0334854848
   2       1.9622572000      0.2347218709
   3       0.4445379600      0.8137702853
 S 1 
   1       0.1219496200      1.0000000000
 P 1 
   1       0.8000000000      1.0000000000
  end;

 # Basis set for element : C 
 NewGTO C 
 S 5 
   1    1238.4016938000      0.0055173650
   2     186.2900499200      0.0410888285
   3      42.2511763460      0.1822538213
   4      11.6765579320      0.4682845944
   5       3.5930506482      0.4457581734
 S 1 
   1       0.4024514736      1.0000000000
 S 1 
   1       0.1309018267      1.0000000000
 P 3 
   1       9.4680970621      0.0568883320
   2       2.0103545142      0.3129405934
   3       0.5477100471      0.7606501651
 P 1 
   1       0.1526861379      1.0000000000
 D 1 
   1       0.8000000000      1.0000000000
  end;

 # Basis set for element : N 
 NewGTO N 
 S 5 
   1    1712.8415853000     -0.0054477995
   2     257.6481267700     -0.0406271746
   3      58.4582458530     -0.1811196225
   4      16.1983679050     -0.4684397556
   5       5.0052600809     -0.4461684629
 S 1 
   1       0.5873185657      1.0000000000
 S 1 
   1       0.1876459225      1.0000000000
 P 3 
   1      13.5714702330     -0.0588481170
   2       2.9257372874     -0.3202462476
   3       0.7992775075     -0.7532822652
 P 1 
   1       0.2195434803      1.0000000000
 D 1 
   1       1.0000000000      1.0000000000
  end;

---------------------------------
AUXILIARY/J BASIS SET INFORMATION
---------------------------------
There are 3 groups of distinct atoms

 Group   1 Type C   : 12s5p4d2f1g contracted to 6s4p3d1f1g pattern {711111/2111/211/2/1}
 Group   2 Type N   : 12s5p4d2f1g contracted to 6s4p3d1f1g pattern {711111/2111/211/2/1}
 Group   3 Type H   : 5s2p1d contracted to 3s1p1d pattern {311/2/1}

Atom   0C    basis set group =>   1
Atom   1N    basis set group =>   2
Atom   2C    basis set group =>   1
Atom   3H    basis set group =>   3
Atom   4H    basis set group =>   3
Atom   5H    basis set group =>   3

-------------------------------------
AUXILIARY/J BASIS SET IN INPUT FORMAT
-------------------------------------

 # Auxiliary/J basis set for element : H 
 NewAuxJGTO H 
 S 3 
   1      15.6752927000      0.1007184237
   2       3.6063578000      0.3404257499
   3       1.2080016000      0.6491996172
 S 1 
   1       0.4726794000      1.0000000000
 S 1 
   1       0.2018100000      1.0000000000
 P 2 
   1       2.0281365000      0.5596620919
   2       0.5358730000      0.5596620919
 D 1 
   1       2.2165124000      1.0000000000
  end;

 # Auxiliary/J basis set for element : C 
 NewAuxJGTO C 
 S 7 
   1    1861.0916331000      0.0134602335
   2     642.9939764000      0.0299160374
   3     235.1105725000      0.1008649584
   4      90.7028894000      0.2370970548
   5      36.7794552000      0.3924037254
   6      15.6046273000      0.3195862154
   7       6.8907294000      0.0530104441
 S 1 
   1       3.1478850000     -1.0000000000
 S 1 
   1       1.4777287000      1.0000000000
 S 1 
   1       0.7076466000      1.0000000000
 S 1 
   1       0.3430122000      1.0000000000
 S 1 
   1       0.1669453000      1.0000000000
 P 2 
   1      13.5472892000     -0.6769313712
   2       5.4669419000     -0.3779500978
 P 1 
   1       2.1751721000      1.0000000000
 P 1 
   1       0.8582194000      1.0000000000
 P 1 
   1       0.3376720000      1.0000000000
 D 2 
   1       5.9287253000     -0.3533329857
   2       1.9809209000     -0.7456525731
 D 1 
   1       0.8055417000     -1.0000000000
 D 1 
   1       0.3531244000     -1.0000000000
 F 2 
   1       1.6755626000      0.6311076882
   2       0.5997536000      0.4968166032
 G 1 
   1       1.0024600000     -1.0000000000
  end;

 # Auxiliary/J basis set for element : N 
 NewAuxJGTO N 
 S 7 
   1    2542.9401785000      0.0128431329
   2    1029.5472946000      0.0206655120
   3     424.9053546000      0.0652200677
   4     178.4573708000      0.1617388940
   5      76.1362742000      0.3094256941
   6      32.9338653000      0.3918849307
   7      14.4155436000      0.1822470660
 S 1 
   1       6.3718891000     -1.0000000000
 S 1 
   1       2.8381742000      1.0000000000
 S 1 
   1       1.2711793000      1.0000000000
 S 1 
   1       0.5712407000      1.0000000000
 S 1 
   1       0.2569887000      1.0000000000
 P 2 
   1      17.8975990000     -1.0974070137
   2       6.5346319000      0.1380055963
 P 1 
   1       2.3523645000      1.0000000000
 P 1 
   1       0.8397377000      1.0000000000
 P 1 
   1       0.2989335000      1.0000000000
 D 2 
   1       7.6909870000      0.1770780943
   2       2.3044972000      0.8918319220
 D 1 
   1       0.8403987000      1.0000000000
 D 1 
   1       0.3303797000      1.0000000000
 F 2 
   1       2.3331076000      0.6223178877
   2       0.8446137000      0.5036714203
 G 1 
   1       1.4037700000     -1.0000000000
  end;



           ************************************************************
           *        Program running with 8 parallel MPI-processes     *
           *              working on a common directory               *
           ************************************************************
------------------------------------------------------------------------------
                           ORCA GTO INTEGRAL CALCULATION
                           -- RI-GTO INTEGRALS CHOSEN --
------------------------------------------------------------------------------

                         BASIS SET STATISTICS AND STARTUP INFO

Gaussian basis set:
 # of primitive gaussian shells          ...   51
 # of primitive gaussian functions       ...   93
 # of contracted shells                  ...   27
 # of contracted basis functions         ...   57
 Highest angular momentum                ...    2
 Maximum contraction depth               ...    5
Auxiliary gaussian basis set:
 # of primitive gaussian shells          ...   96
 # of primitive gaussian functions       ...  258
 # of contracted shells                  ...   60
 # of contracted aux-basis functions     ...  180
 Highest angular momentum                ...    4
 Maximum contraction depth               ...    7
Ratio of auxiliary to basis functions    ...  3.16
Integral package used                  ... LIBINT
 One Electron integrals                  ... done
 Ordering auxiliary basis shells         ... done
 Integral threshhold             Thresh  ...  2.500e-11
 Primitive cut-off               TCut    ...  2.500e-12
 Pre-screening matrix                    ... done
 Shell pair data                         ... 
 Ordering of the shell pairs             ... done (   0.000 sec) 377 of 378 pairs
 Determination of significant pairs      ... done (   0.000 sec)
 Creation of shell pair data             ... done (   0.000 sec)
 Storage of shell pair data              ... done (   0.026 sec)
 Shell pair data done in (   0.026 sec)
 Computing two index integrals           ... done
 Cholesky decomposition of the V-matrix  ... done


Timings:
 Total evaluation time                   ...   0.135 sec (  0.002 min)
 One electron matrix time                ...   0.008 sec (  0.000 min) =  5.9%
 Schwartz matrix evaluation time         ...   0.080 sec (  0.001 min) = 59.3%
 Two index repulsion integral time       ...   0.001 sec (  0.000 min) =  0.8%
 Cholesky decomposition of V             ...   0.001 sec (  0.000 min) =  0.9%
 Three index repulsion integral time     ...   0.000 sec (  0.000 min) =  0.0%



           ************************************************************
           *        Program running with 8 parallel MPI-processes     *
           *              working on a common directory               *
           ************************************************************
-------------------------------------------------------------------------------
                                 ORCA SCF
-------------------------------------------------------------------------------

------------
SCF SETTINGS
------------
Hamiltonian:
 Density Functional     Method          .... DFT(GTOs)
 Exchange Functional    Exchange        .... PBE
   PBE kappa parameter   XKappa         ....  1.245000
   PBE mue parameter    XMuePBE         ....  0.219520
 Correlation Functional Correlation     .... PBE
   PBE beta parameter  CBetaPBE         ....  0.066725
 LDA part of GGA corr.  LDAOpt          .... PW91-LDA
 Gradients option       PostSCFGGA      .... off
   Density functional embedding theory  .... OFF
   NL short-range parameter             ....  3.700000
 RI-approximation to the Coulomb term is turned on
   Number of auxiliary basis functions  .... 180


General Settings:
 Integral files         IntName         .... opt
 Hartree-Fock type      HFTyp           .... RHF
 Total Charge           Charge          ....    0
 Multiplicity           Mult            ....    1
 Number of Electrons    NEL             ....   22
 Basis Dimension        Dim             ....   57
 Nuclear Repulsion      ENuc            ....     58.1915165540 Eh

Convergence Acceleration:
 DIIS                   CNVDIIS         .... on
   Start iteration      DIISMaxIt       ....    12
   Startup error        DIISStart       ....  0.200000
   # of expansion vecs  DIISMaxEq       ....     5
   Bias factor          DIISBfac        ....   1.050
   Max. coefficient     DIISMaxC        ....  10.000
 Newton-Raphson         CNVNR           .... off
 SOSCF                  CNVSOSCF        .... on
   Start iteration      SOSCFMaxIt      ....   150
   Startup grad/error   SOSCFStart      ....  0.003300
 Level Shifting         CNVShift        .... on
   Level shift para.    LevelShift      ....    0.2500
   Turn off err/grad.   ShiftErr        ....    0.0010
 Zerner damping         CNVZerner       .... off
 Static damping         CNVDamp         .... on
   Fraction old density DampFac         ....    0.7000
   Max. Damping (<1)    DampMax         ....    0.9800
   Min. Damping (>=0)   DampMin         ....    0.0000
   Turn off err/grad.   DampErr         ....    0.1000
 Fernandez-Rico         CNVRico         .... off

SCF Procedure:
 Maximum # iterations   MaxIter         ....   125
 SCF integral mode      SCFMode         .... Direct
   Integral package                     .... LIBINT
 Reset frequency        DirectResetFreq ....    20
 Integral Threshold     Thresh          ....  2.500e-11 Eh
 Primitive CutOff       TCut            ....  2.500e-12 Eh

Convergence Tolerance:
 Convergence Check Mode ConvCheckMode   .... Total+1el-Energy
 Convergence forced     ConvForced      .... 0
 Energy Change          TolE            ....  1.000e-08 Eh
 1-El. energy change                    ....  1.000e-05 Eh
 Orbital Gradient       TolG            ....  1.000e-05
 Orbital Rotation angle TolX            ....  1.000e-05
 DIIS Error             TolErr          ....  5.000e-07


Diagonalization of the overlap matrix:
Smallest eigenvalue                        ... 1.285e-03
Time for diagonalization                   ...    0.001 sec
Threshold for overlap eigenvalues          ... 1.000e-08
Number of eigenvalues below threshold      ... 0
Time for construction of square roots      ...    0.001 sec
Total time needed                          ...    0.002 sec

-------------------
DFT GRID GENERATION
-------------------

General Integration Accuracy     IntAcc      ...  4.670
Radial Grid Type                 RadialGrid  ... Gauss-Chebyshev
Angular Grid (max. acc.)         AngularGrid ... Lebedev-302
Angular grid pruning method      GridPruning ... 3 (G Style)
Weight generation scheme         WeightScheme... Becke
Basis function cutoff            BFCut       ...    1.0000e-11
Integration weight cutoff        WCut        ...    1.0000e-14
Grids for H and He will be reduced by one unit

# of grid points (after initial pruning)     ...  28818 (   0.0 sec)
# of grid points (after weights+screening)   ...  27966 (   0.0 sec)
nearest neighbour list constructed           ...    0.0 sec
Grid point re-assignment to atoms done       ...    0.0 sec
Grid point division into batches done        ...    0.1 sec
Reduced shell lists constructed in    0.1 sec

Total number of grid points                  ...    27966
Total number of batches                      ...      441
Average number of points per batch           ...       63
Average number of grid points per atom       ...     4661
Average number of shells per batch           ...    25.33 (93.83%)
Average number of basis functions per batch  ...    54.70 (95.97%)
Average number of large shells per batch     ...    24.11 (95.15%)
Average number of large basis fcns per batch ...    52.46 (95.89%)
Maximum spatial batch extension              ...   4.86,  6.60,  4.92 au
Average spatial batch extension              ...   0.21,  0.22,  0.20 au

Time for grid setup =    0.163 sec

------------------------------
INITIAL GUESS: MODEL POTENTIAL
------------------------------
Loading Hartree-Fock densities                     ... done
Calculating cut-offs                               ... done
Setting up the integral package                    ... done
Initializing the effective Hamiltonian             ... done
Starting the Coulomb interaction                   ... done (   0.0 sec)
Reading the grid                                   ... done
Mapping shells                                     ... done
Starting the XC term evaluation                    ... done (   0.0 sec)
  promolecular density results
     # of electrons  =     21.998535929
     EX              =    -17.681041469
     EC              =     -0.691891551
     EX+EC           =    -18.372933021
Transforming the Hamiltonian                       ... done (   0.0 sec)
Diagonalizing the Hamiltonian                      ... done (   0.0 sec)
Back transforming the eigenvectors                 ... done (   0.0 sec)
Now organizing SCF variables                       ... done
                      ------------------
                      INITIAL GUESS DONE (   0.3 sec)
                      ------------------
----------------------
INITIAL GUESS ORBITALS
----------------------
                      0         1         2         3         4         5   
                 -14.18985 -10.08557 -10.07761  -0.97969  -0.78780  -0.54392
                   2.00000   2.00000   2.00000   2.00000   2.00000   2.00000
                  --------  --------  --------  --------  --------  --------
  0C   1s        -0.000294  0.006478  0.987627 -0.187719  0.081839  0.157529
  0C   2s        -0.001941 -0.000758  0.055889  0.374197 -0.162170 -0.363105
  0C   3s        -0.017729  0.014306 -0.015344  0.052855 -0.088500 -0.079496
  0C   1pz        0.002956  0.001400  0.002601  0.172804  0.155417  0.181336
  0C   1px        0.002426  0.001150  0.002134  0.141828  0.127666  0.149024
  0C   1py       -0.001166 -0.000552 -0.001026 -0.068148 -0.061273 -0.071508
  0C   2pz       -0.025364  0.002607  0.046489  0.048611  0.101562  0.000247
  0C   2px       -0.020822  0.002141  0.038171  0.039903  0.083418  0.000253
  0C   2py        0.010002 -0.001028 -0.018331 -0.019170 -0.040042 -0.000101
  0C   1dz2       0.000886 -0.000708  0.001729  0.009689 -0.002802 -0.000317
  0C   1dxz       0.002152 -0.001724  0.004201  0.023534 -0.006832 -0.000786
  0C   1dyz      -0.001034  0.000827 -0.002018 -0.011306  0.003274  0.000373
  0C   1dx2y2     0.000680 -0.000545  0.001327  0.007429 -0.002163 -0.000250
  0C   1dxy      -0.000849  0.000680 -0.001657 -0.009281  0.002692  0.000309
  1N   1s         0.988536  0.000203  0.000536  0.241408  0.051186  0.079422
  1N   2s        -0.046250  0.002313  0.000697  0.495713  0.113718  0.178491
  1N   3s         0.058353 -0.010301 -0.061395  0.079312 -0.040082  0.136739
  1N   1pz       -0.003977  0.000543 -0.002298  0.173437  0.026936 -0.038954
  1N   1px       -0.003264  0.000445 -0.001887  0.142360  0.022087 -0.032069
  1N   1py        0.001568 -0.000214  0.000906 -0.068396 -0.010626  0.015361
  1N   2pz       -0.011498  0.002410  0.017271  0.000310  0.014977  0.021869
  1N   2px       -0.009436  0.001977  0.014172  0.000254  0.012285  0.017983
  1N   2py        0.004534 -0.000950 -0.006812 -0.000123 -0.005908 -0.008623
  1N   1dz2      -0.000471  0.000086 -0.000561  0.008001  0.001012 -0.001291
  1N   1dxz      -0.001145  0.000209 -0.001361  0.019433  0.002451 -0.003151
  1N   1dyz       0.000550 -0.000101  0.000654 -0.009336 -0.001180  0.001510
  1N   1dx2y2    -0.000361  0.000066 -0.000429  0.006135  0.000772 -0.000998
  1N   1dxy       0.000451 -0.000082  0.000537 -0.007663 -0.000967  0.001242
  2C   1s         0.000172  0.987637 -0.005614 -0.021581  0.251900 -0.063066
  2C   2s        -0.001623  0.052400 -0.002993  0.042764 -0.535764  0.138255
  2C   3s        -0.021632 -0.040948  0.055247  0.050588  0.020940 -0.014438
  2C   1pz       -0.000885 -0.000347 -0.001546  0.014899 -0.046174 -0.315034
  2C   1px       -0.000727 -0.000289 -0.001270  0.012226 -0.037819 -0.258493
  2C   1py        0.000349  0.000136  0.000610 -0.005876  0.018235  0.124174
  2C   2pz       -0.004661 -0.000922  0.014658  0.014064  0.023639 -0.122902
  2C   2px       -0.003832 -0.000752  0.012047  0.011554  0.019407 -0.100858
  2C   2py        0.001838  0.000365 -0.005779 -0.005546 -0.009317  0.048447
  2C   1dz2      -0.000128 -0.000165 -0.000694  0.000845 -0.002018 -0.006243
  2C   1dxz      -0.000313 -0.000406 -0.001687  0.002052 -0.004898 -0.015202
  2C   1dyz       0.000150  0.000194  0.000810 -0.000986  0.002354  0.007293
  2C   1dx2y2    -0.000099 -0.000129 -0.000532  0.000647 -0.001544 -0.004798
  2C   1dxy       0.000123  0.000160  0.000665 -0.000809  0.001931  0.005990
  3H   1s         0.000181 -0.003217 -0.000893  0.007572 -0.147890  0.158232
  3H   2s         0.002046  0.007705 -0.002562 -0.002998 -0.023915  0.032840
  3H   1pz       -0.000031 -0.002174  0.000365  0.001211 -0.017404  0.004582
  3H   1px       -0.000172  0.001638  0.000281 -0.000474  0.009672 -0.014380
  3H   1py        0.000034  0.000342 -0.000141 -0.000256  0.003254  0.000926
  4H   1s         0.000180 -0.003216 -0.000890  0.007583 -0.147963  0.157863
  4H   2s         0.002047  0.007707 -0.002560 -0.003001 -0.023928  0.032800
  4H   1pz       -0.000162  0.000892  0.000350 -0.000104  0.004063 -0.011674
  4H   1px       -0.000053 -0.001138  0.000297  0.000718 -0.009758  0.000312
  4H   1py       -0.000051  0.002332 -0.000153 -0.001111  0.017193 -0.009593
  5H   1s         0.000180 -0.003216 -0.000890  0.007589 -0.148020  0.157771
  5H   2s         0.002047  0.007708 -0.002559 -0.003003 -0.023932  0.032791
  5H   1pz       -0.000112 -0.000294  0.000358  0.000406 -0.004245 -0.005407
  5H   1px       -0.000025 -0.001797  0.000302  0.001001 -0.014379  0.003788
  5H   1py        0.000137 -0.002052 -0.000129  0.000771 -0.013520  0.013595
                      6         7         8         9        10        11   
                  -0.49592  -0.49589  -0.45172  -0.40990  -0.40989  -0.09073
                   2.00000   2.00000   2.00000   2.00000   2.00000   0.00000
                  --------  --------  --------  --------  --------  --------
  0C   1s         0.000025  0.000162  0.066229  0.000009  0.000007 -0.000020
  0C   2s        -0.000055 -0.000368 -0.157617 -0.000015 -0.000010  0.000016
  0C   3s        -0.000012 -0.000044 -0.037658 -0.000020 -0.000032  0.000281
  0C   1pz       -0.069705  0.138209 -0.197307 -0.225678 -0.015492 -0.362306
  0C   1px       -0.019764 -0.181411 -0.161891  0.213434  0.160508  0.422400
  0C   1py       -0.218008 -0.027771  0.077805 -0.128104  0.294754 -0.039406
  0C   2pz       -0.027920  0.055399 -0.003969 -0.095236 -0.006489 -0.333284
  0C   2px       -0.007912 -0.072700 -0.003223  0.090148  0.067810  0.388328
  0C   2py       -0.087389 -0.011142  0.001566 -0.054105  0.124425 -0.036177
  0C   1dz2       0.000633 -0.002548 -0.000500 -0.036218 -0.002839  0.023210
  0C   1dxz       0.000787  0.001423 -0.001210  0.003002  0.013969 -0.003420
  0C   1dyz       0.000694  0.001087  0.000582 -0.003121  0.027408 -0.003002
  0C   1dx2y2     0.001074  0.000202 -0.000381  0.010840  0.022635 -0.014581
  0C   1dxy       0.002684 -0.000173  0.000477 -0.017721  0.017191  0.007567
  1N   1s         0.000012  0.000093  0.160227 -0.000000  0.000000 -0.000015
  1N   2s         0.000029  0.000221  0.352320  0.000003  0.000004 -0.000055
  1N   3s        -0.000012  0.000074  0.378904 -0.000059 -0.000054  0.000089
  1N   1pz        0.050415 -0.099967 -0.378165  0.338711  0.023263 -0.291230
  1N   1px        0.014299  0.131218 -0.310465 -0.320287 -0.240892  0.339522
  1N   1py        0.157656  0.020088  0.149135  0.192239 -0.442387 -0.031671
  1N   2pz       -0.020139  0.039990  0.161017 -0.179972 -0.012351  0.297988
  1N   2px       -0.005706 -0.052418  0.132192  0.170206  0.128016 -0.347481
  1N   2py       -0.063007 -0.008040 -0.063500 -0.102156  0.235075  0.032421
  1N   1dz2       0.005705 -0.011294 -0.008179  0.026480  0.001816  0.012481
  1N   1dxz       0.003636  0.003210 -0.019871 -0.001906 -0.010010 -0.002391
  1N   1dyz       0.009001  0.003881  0.009545  0.002651 -0.020385 -0.001991
  1N   1dx2y2     0.004825  0.007557 -0.006274 -0.008449 -0.016801 -0.006775
  1N   1dxy       0.008076 -0.002305  0.007836  0.012823 -0.012098  0.003974
  2C   1s         0.000022  0.000016 -0.006666 -0.000003  0.000003  0.000009
  2C   2s        -0.000053 -0.000033  0.021860  0.000007 -0.000011 -0.000040
  2C   3s        -0.000002 -0.000078  0.032550  0.000074  0.000090 -0.000165
  2C   1pz       -0.136419  0.270154  0.104287  0.139917  0.009661 -0.007508
  2C   1px       -0.038652 -0.355171  0.085820 -0.132275 -0.099482  0.008491
  2C   1py       -0.426577 -0.054200 -0.041104  0.079371 -0.182740 -0.000756
  2C   2pz       -0.048079  0.095231  0.046355  0.063789  0.004427 -0.094678
  2C   2px       -0.013617 -0.125233  0.038148 -0.060277 -0.045327  0.109940
  2C   2py       -0.150345 -0.019088 -0.018270  0.036176 -0.083300 -0.010171
  2C   1dz2      -0.003496 -0.002170  0.001051 -0.013715 -0.003739 -0.041897
  2C   1dxz       0.000451  0.005597  0.002558  0.004094  0.007368  0.015166
  2C   1dyz      -0.007690  0.002241 -0.001228  0.002616  0.006799  0.011570
  2C   1dx2y2     0.000820 -0.009141  0.000811 -0.001269  0.005968  0.008926
  2C   1dxy       0.007537  0.001966 -0.001010 -0.008083  0.011334 -0.012104
  3H   1s         0.022822 -0.310003 -0.033227 -0.162017 -0.080860 -0.216037
  3H   2s         0.004129 -0.056221 -0.010318 -0.045026 -0.022479 -0.337361
  3H   1pz       -0.002083 -0.015903  0.000363 -0.004373 -0.004004  0.007312
  3H   1px       -0.002088  0.003768  0.003765  0.003350  0.000658  0.008304
  3H   1py       -0.012230  0.002768 -0.000664  0.003624 -0.004922 -0.003014
  4H   1s        -0.279988  0.135419 -0.033276  0.151071 -0.099856  0.131879
  4H   2s        -0.050795  0.024556 -0.010328  0.041963 -0.027753  0.205983
  4H   1pz        0.001661  0.004900  0.003466  0.000211  0.002952 -0.005185
  4H   1px       -0.012842 -0.004231  0.000958  0.000041 -0.005684 -0.004889
  4H   1py        0.009250 -0.011752  0.001351 -0.006555  0.000389  0.000466
  5H   1s         0.257202  0.174919 -0.033288  0.011024  0.180786  0.084139
  5H   2s         0.046654  0.031728 -0.010329  0.003059  0.050215  0.131475
  5H   1pz        0.000634  0.010572  0.002267  0.004282  0.001053 -0.002336
  5H   1px        0.014988  0.001005  0.000291 -0.003519  0.004926 -0.003234
  5H   1py        0.003642  0.009068 -0.003089  0.003006  0.004366  0.002539
                     12        13        14        15        16        17   
                  -0.09070  -0.00137   0.06003   0.06005   0.06061   0.16990
                   0.00000   0.00000   0.00000   0.00000   0.00000   0.00000
                  --------  --------  --------  --------  --------  --------
  0C   1s        -0.000012  0.038724  0.007068  0.009127  0.146995 -0.101183
  0C   2s         0.000008 -0.050395 -0.016445 -0.021239 -0.341424  0.293589
  0C   3s         0.000146 -1.087342 -0.100405 -0.129729 -2.110485 -0.019167
  0C   1pz        0.099249  0.038478  0.002836  0.112606  0.159981 -0.172191
  0C   1px        0.134770  0.031585 -0.054077 -0.095919  0.145837 -0.141274
  0C   1py        0.532268 -0.015170 -0.142477  0.037969 -0.061378  0.067913
  0C   2pz        0.091183 -0.203121  0.011251  0.266769  0.465656 -3.762958
  0C   2px        0.123891 -0.166753 -0.121292 -0.217079  0.415963 -3.089727
  0C   2py        0.489573  0.080116 -0.331826  0.085569 -0.179662  1.483755
  0C   1dz2      -0.007356  0.011280 -0.003466  0.010224  0.017174  0.007791
  0C   1dxz      -0.007749  0.027394  0.001022  0.006152  0.042422  0.018948
  0C   1dyz      -0.020159 -0.013163 -0.014197  0.003683 -0.020133 -0.009094
  0C   1dx2y2    -0.012261  0.008648 -0.007827 -0.011082  0.014585  0.005980
  0C   1dxy      -0.012568 -0.010804  0.001471  0.001888 -0.017084 -0.007467
  1N   1s        -0.000008  0.048626  0.003956  0.005112  0.083103  0.061559
  1N   2s        -0.000033  0.116630  0.012237  0.015810  0.256663  0.017318
  1N   3s         0.000082  0.638108  0.008775  0.011418  0.194711  4.319598
  1N   1pz        0.079764  0.077520  0.002729  0.093524  0.141587 -0.008561
  1N   1px        0.108314  0.063680 -0.044343 -0.078774  0.128133 -0.007058
  1N   1py        0.427791 -0.030561 -0.117912  0.031167 -0.054436  0.003366
  1N   2pz       -0.081661 -0.186635 -0.000364 -0.125626 -0.127666 -0.944510
  1N   2px       -0.110885 -0.153189  0.064454  0.113171 -0.121467 -0.774988
  1N   2py       -0.437813  0.073594  0.162534 -0.045078  0.048382  0.372525
  1N   1dz2      -0.003501  0.002014 -0.000121 -0.006420  0.001366  0.009971
  1N   1dxz      -0.004282  0.004888  0.002778  0.001471  0.002102  0.024213
  1N   1dyz      -0.009966 -0.002350  0.004184  0.000493 -0.001353 -0.011634
  1N   1dx2y2    -0.006410  0.001543  0.003470  0.001502  0.000471  0.007640
  1N   1dxy      -0.007503 -0.001928  0.004154 -0.002947 -0.000935 -0.009548
  2C   1s         0.000005 -0.180114 -0.001565 -0.002006 -0.032275  0.017370
  2C   2s        -0.000018  0.445279  0.004052  0.005144  0.082489  0.179810
  2C   3s        -0.000161  1.971618  0.024660  0.032100  0.521057 -5.495488
  2C   1pz        0.001930  0.012745  0.034691 -0.294969  0.408856  0.125987
  2C   1px        0.002649  0.010526  0.204312  0.345080  0.291350  0.103729
  2C   1py        0.010746 -0.004998  0.427536 -0.140590 -0.166394 -0.049650
  2C   2pz        0.025721 -0.116991  0.086080 -0.684252  1.057865 -1.869861
  2C   2px        0.034983 -0.096220  0.482250  0.812753  0.764553 -1.535580
  2C   2py        0.138593  0.046011  0.998873 -0.331590 -0.429268  0.737344
  2C   1dz2       0.005799  0.000755 -0.010551 -0.010139 -0.014645  0.013272
  2C   1dxz       0.015853  0.001873  0.007766  0.010926 -0.039386  0.032368
  2C   1dyz       0.021953 -0.000890 -0.008425  0.014028  0.017949 -0.015513
  2C   1dx2y2     0.019067  0.000591 -0.003359 -0.019469 -0.010769  0.010233
  2C   1dxy       0.034840 -0.000729  0.023946 -0.005604  0.014324 -0.012747
  3H   1s        -0.027565 -0.081343 -0.057180 -0.167237  0.122540 -0.053362
  3H   2s        -0.043013 -0.922503 -0.524990 -1.497554  0.569094  0.614045
  3H   1pz        0.000503  0.011493  0.010058  0.013111  0.003107 -0.009421
  3H   1px        0.000817 -0.007887 -0.001035 -0.012555  0.022202 -0.005769
  3H   1py       -0.001965 -0.001914  0.016266 -0.008444 -0.004662  0.003415
  4H   1s        -0.173243 -0.081220 -0.114595  0.148109  0.106123 -0.053379
  4H   2s        -0.270535 -0.922367 -1.028587  1.267309  0.421942  0.615312
  4H   1pz        0.007903 -0.004045 -0.010344  0.002518  0.020605 -0.007665
  4H   1px        0.004405  0.006160  0.016201  0.003786  0.005969 -0.007386
  4H   1py       -0.002016 -0.011988 -0.003425  0.020133  0.004830  0.004579
  5H   1s         0.200797 -0.081151  0.187374  0.039326  0.098498 -0.053338
  5H   2s         0.313656 -0.922356  1.618271  0.313475  0.354168  0.615977
  5H   1pz       -0.008379  0.001959  0.002071 -0.011839  0.014742 -0.008369
  5H   1px       -0.005177  0.009485 -0.014448  0.009340  0.003675 -0.007776
  5H   1py        0.004233  0.010206 -0.015447 -0.012072 -0.015303  0.002035
                     18        19        20        21        22        23   
                   0.36070   0.36074   0.41031   0.45043   0.45056   0.50835
                   0.00000   0.00000   0.00000   0.00000   0.00000   0.00000
                  --------  --------  --------  --------  --------  --------
  0C   1s        -0.000126  0.000009 -0.186204  0.000026  0.000048 -0.038010
  0C   2s         0.000673  0.000052  0.792119 -0.000043 -0.000387  0.392037
  0C   3s        -0.003022 -0.000861 -2.547283 -0.001343  0.003741 -0.121710
  0C   1pz       -0.160361 -0.384937  0.064531 -0.082242 -0.426716 -0.030067
  0C   1px        0.405863  0.278081  0.052943 -0.193524  0.475224 -0.024612
  0C   1py        0.438575 -0.397180 -0.025856 -0.610957 -0.092962  0.011922
  0C   2pz        0.083309  0.197621 -0.517946  0.176513  0.909288  1.250033
  0C   2px       -0.206025 -0.141470 -0.425603  0.413573 -1.016417  1.025545
  0C   2py       -0.223795  0.202134  0.204749  1.303138  0.199370 -0.492961
  0C   1dz2      -0.006033 -0.026599 -0.038567  0.000248 -0.027985  0.011944
  0C   1dxz       0.005100 -0.005196 -0.093734 -0.012036  0.011703  0.029106
  0C   1dyz       0.022722 -0.017597  0.044994 -0.011578  0.008474 -0.013973
  0C   1dx2y2     0.026400  0.010231 -0.029634 -0.012028  0.000399  0.009172
  0C   1dxy       0.000241 -0.011369  0.036950 -0.025828 -0.009709 -0.011479
  1N   1s        -0.000001  0.000001  0.036005  0.000012 -0.000058 -0.101736
  1N   2s        -0.000017  0.000015  0.170656  0.000030 -0.000294 -0.468441
  1N   3s        -0.000377 -0.000735  1.098287 -0.000632  0.001084 -0.941815
  1N   1pz        0.003111  0.007743 -0.215343  0.034932  0.181763  0.132560
  1N   1px       -0.008186 -0.005566 -0.176908  0.082172 -0.202235  0.108957
  1N   1py       -0.008724  0.007958  0.084971  0.259518  0.039560 -0.052278
  1N   2pz        0.022764  0.054899 -0.254679 -0.006966 -0.036013  0.477869
  1N   2px       -0.057849 -0.039425 -0.208901 -0.016340  0.040049  0.392524
  1N   2py       -0.062651  0.056626  0.100437 -0.051653 -0.007838 -0.188453
  1N   1dz2       0.013350  0.031907  0.024165  0.005117  0.025295 -0.005398
  1N   1dxz      -0.013185  0.001760  0.058708  0.008830 -0.003986 -0.013107
  1N   1dyz      -0.023998  0.011663 -0.028181  0.020287 -0.002319  0.006295
  1N   1dx2y2    -0.024151 -0.003343  0.018547  0.013830 -0.012686 -0.004139
  1N   1dxy      -0.009664  0.020926 -0.023137  0.014144  0.009047  0.005166
  2C   1s         0.000054 -0.000006  0.161010  0.000019 -0.000152  0.182705
  2C   2s        -0.000190 -0.000020 -0.919908 -0.000167  0.001175 -1.113436
  2C   3s         0.002453  0.001538  1.477843  0.002404 -0.006388  4.411951
  2C   1pz       -0.027519 -0.065881 -0.380226  0.029960  0.154841  0.450782
  2C   1px        0.069605  0.047659 -0.312436  0.070089 -0.172365  0.369952
  2C   1py        0.075625 -0.068250  0.149977  0.221503  0.033720 -0.177303
  2C   2pz        0.200403  0.478213  0.816195 -0.162042 -0.848465 -0.330144
  2C   2px       -0.502505 -0.343888  0.671153 -0.381880  0.940792 -0.269462
  2C   2py       -0.546649  0.493388 -0.321917 -1.210085 -0.183739  0.129411
  2C   1dz2       0.049732  0.022194 -0.007202  0.024645 -0.019501 -0.013198
  2C   1dxz      -0.055482 -0.028351 -0.017410 -0.017570  0.038057 -0.032242
  2C   1dyz       0.004937 -0.054256  0.008387  0.036978  0.030287  0.015450
  2C   1dx2y2     0.032984  0.056447 -0.005592  0.005310 -0.055904 -0.010284
  2C   1dxy      -0.068416  0.062548  0.006933 -0.059686 -0.005480  0.012781
  3H   1s         0.516515  0.512536  0.317025  0.095068 -0.460038  0.371217
  3H   2s        -0.182312 -0.180900 -0.252900  0.003415 -0.017831 -1.237858
  3H   1pz       -0.026096  0.003933 -0.025051 -0.008690 -0.053556 -0.069978
  3H   1px       -0.016429  0.000246  0.015747 -0.003664 -0.035348  0.054703
  3H   1py       -0.050956  0.059796  0.004449 -0.073872  0.003859  0.010758
  4H   1s         0.186618 -0.703158  0.317548  0.350023  0.312459  0.371256
  4H   2s        -0.065568  0.247789 -0.253293  0.014100  0.013223 -1.235940
  4H   1pz        0.028822  0.022539  0.007434  0.053050  0.006144  0.030494
  4H   1px       -0.062514 -0.003440 -0.013662 -0.007223  0.068683 -0.036051
  4H   1py       -0.039612 -0.017497  0.025606 -0.043451  0.013630  0.075826
  5H   1s        -0.701672  0.190850  0.317979 -0.445046  0.147341  0.371706
  5H   2s         0.247221 -0.067246 -0.253708 -0.018028  0.006565 -1.236812
  5H   1pz        0.028704  0.048971 -0.005215 -0.059858 -0.032976 -0.008315
  5H   1px       -0.000564 -0.051209 -0.020759 -0.025450  0.056203 -0.057685
  5H   1py        0.004480  0.035583 -0.021037  0.002476 -0.035038 -0.067777
                     24        25        26        27        28        29   
                   0.52649   0.52651   0.53068   0.59610   0.70595   0.70600
                   0.00000   0.00000   0.00000   0.00000   0.00000   0.00000
                  --------  --------  --------  --------  --------  --------
  0C   1s         0.000122 -0.000120 -0.136633  0.091484  0.000001 -0.000031
  0C   2s        -0.000840  0.001014  1.108410 -0.679500  0.000260  0.000800
  0C   3s        -0.000608 -0.000207  0.283112  2.425643 -0.004112 -0.008306
  0C   1pz        0.068890 -0.038015  0.363124  0.557025 -0.031388  0.176050
  0C   1px       -0.093866 -0.007003  0.297675  0.457412 -0.083487 -0.195744
  0C   1py       -0.017612 -0.111399 -0.143157 -0.219650 -0.251304  0.043036
  0C   2pz        0.075413 -0.039855  0.182810 -2.641739  0.120440 -0.668629
  0C   2px       -0.100188 -0.006483  0.150360 -2.169249  0.318897  0.748262
  0C   2py       -0.019319 -0.119433 -0.071941  1.041747  0.957485 -0.165023
  0C   1dz2      -0.040002  0.013647  0.005207 -0.011129  0.012992 -0.047453
  0C   1dxz       0.020788  0.011949  0.012813 -0.026986  0.014932  0.002053
  0C   1dyz       0.017044  0.015010 -0.006131  0.012986  0.045508 -0.000677
  0C   1dx2y2     0.008883  0.016845  0.004046 -0.008477  0.028677  0.032951
  0C   1dxy      -0.002693  0.039654 -0.005072  0.010636  0.018766 -0.017460
  1N   1s         0.000289 -0.000124 -0.172790  0.040560 -0.000020 -0.000025
  1N   2s         0.001265 -0.000507 -0.697731  0.310656 -0.000263 -0.000371
  1N   3s        -0.000496 -0.000973 -0.358121  1.204244 -0.000510 -0.002103
  1N   1pz       -0.042014  0.023044  0.219341 -0.083510 -0.102495  0.588391
  1N   1px        0.055807  0.004361  0.180322 -0.069191 -0.275983 -0.647369
  1N   1py        0.010771  0.066671 -0.086533  0.032950 -0.835980  0.141574
  1N   2pz       -0.067012  0.036781  1.068782  0.018707 -0.166755  0.954504
  1N   2px        0.087138  0.007231  0.877481  0.014805 -0.448240 -1.051280
  1N   2py        0.017286  0.104518 -0.421558 -0.007365 -1.356488  0.230017
  1N   1dz2      -0.008750  0.003167  0.021485  0.024566 -0.004481  0.027213
  1N   1dxz       0.004260  0.002632  0.052225  0.059635 -0.009833 -0.004918
  1N   1dyz       0.003706  0.003640 -0.025083 -0.028660 -0.020694 -0.002677
  1N   1dx2y2     0.002325  0.003666  0.016488  0.018819 -0.014724 -0.012069
  1N   1dxy      -0.000663  0.008408 -0.020598 -0.023520 -0.015949  0.009995
  2C   1s         0.000040 -0.000001 -0.102559  0.070793  0.000107  0.000197
  2C   2s         0.000103  0.000218  0.715599 -0.915349 -0.000990 -0.001893
  2C   3s        -0.000735  0.000290 -1.735380 -0.559837  0.006484  0.013633
  2C   1pz        0.541397 -0.295974 -0.071529  0.169261 -0.002028  0.009830
  2C   1px       -0.725877 -0.054697 -0.060251  0.138542 -0.004987 -0.011680
  2C   1py       -0.139262 -0.865232  0.028827 -0.066837 -0.014517  0.002671
  2C   2pz       -1.154055  0.631216  0.247920 -1.644297 -0.040779  0.248516
  2C   2px        1.546881  0.116677  0.206689 -1.350625 -0.113230 -0.266275
  2C   2py        0.296677  1.843218 -0.099051  0.648132 -0.347830  0.057370
  2C   1dz2       0.096482 -0.019655 -0.001342 -0.022502  0.028651 -0.038034
  2C   1dxz      -0.063927 -0.027429 -0.003661 -0.054924  0.004624 -0.020677
  2C   1dyz      -0.044278 -0.009076  0.001671  0.026314  0.069612 -0.019401
  2C   1dx2y2     0.008815 -0.041034 -0.001076 -0.017210  0.033772  0.068162
  2C   1dxy      -0.000939 -0.111957  0.001472  0.021525 -0.016298 -0.014328
  3H   1s         0.458820 -0.048667 -0.073595 -0.289529  0.025068  0.112459
  3H   2s        -1.970379  0.210666  0.559953 -0.637142 -0.013341 -0.058544
  3H   1pz       -0.123778  0.008241  0.025167  0.027514 -0.006333  0.059899
  3H   1px        0.047624 -0.007857 -0.014943  0.029337  0.008820  0.088323
  3H   1py        0.024181 -0.021013 -0.004564 -0.011938 -0.075863 -0.012321
  4H   1s        -0.186539  0.422054 -0.074810 -0.290084  0.084588 -0.078990
  4H   2s         0.803272 -1.811774  0.564466 -0.636213 -0.043953  0.039382
  4H   1pz        0.002942  0.012754 -0.006761  0.033550  0.089821 -0.041346
  4H   1px        0.016665 -0.072969  0.014041  0.023775  0.002403 -0.078318
  4H   1py       -0.055112  0.099696 -0.025530 -0.008125 -0.029883 -0.025427
  5H   1s        -0.271507 -0.372768 -0.074484 -0.290754 -0.110353 -0.035008
  5H   2s         1.167933  1.601324  0.562988 -0.635373  0.056077  0.016822
  5H   1pz        0.034813  0.026024  0.005664  0.031257 -0.091058  0.023798
  5H   1px        0.050933  0.089473  0.020881  0.022619 -0.031324 -0.057152
  5H   1py        0.053049  0.058677  0.020503 -0.016379  0.045331  0.048116
                     30        31        32        33        34        35   
                   0.76045   0.90698   0.98319   1.04085   1.04088   1.35902
                   0.00000   0.00000   0.00000   0.00000   0.00000   0.00000
                  --------  --------  --------  --------  --------  --------
  0C   1s        -0.039769  0.168062  0.118733 -0.000056 -0.000099 -0.000002
  0C   2s        -0.095285 -1.500773 -1.886376  0.001289  0.001925  0.000022
  0C   3s         3.478757  5.659968 -2.228428  0.010381  0.011549  0.000005
  0C   1pz        0.442900 -0.160537  0.007985 -0.079362 -0.011678  0.000005
  0C   1px        0.362684 -0.132277  0.006809  0.071013  0.062622 -0.000013
  0C   1py       -0.174736  0.063272 -0.003098 -0.053407  0.100705  0.000006
  0C   2pz       -2.262357 -6.483217 -7.215946  0.529611  0.083064  0.000085
  0C   2px       -1.854912 -5.322027 -5.926298 -0.468613 -0.410878  0.000005
  0C   2py        0.892160  2.556312  2.845069  0.353067 -0.670208 -0.000059
  0C   1dz2      -0.023960  0.029854 -0.075154  0.277926  0.062313  0.000237
  0C   1dxz      -0.057612  0.072853 -0.183915 -0.033766 -0.125842  0.000045
  0C   1dyz       0.027827 -0.034951  0.087941  0.012673 -0.188458  0.000360
  0C   1dx2y2    -0.018092  0.022934 -0.058345 -0.034762 -0.161423 -0.000175
  0C   1dxy       0.022756 -0.028695  0.072392  0.159860 -0.155419 -0.000221
  1N   1s        -0.040810  0.079453 -0.218544  0.000327  0.000400  0.000001
  1N   2s        -0.113638  0.264043 -1.995576  0.002797  0.003485  0.000012
  1N   3s         0.926714  4.905996 11.881030 -0.011693 -0.015866 -0.000087
  1N   1pz       -0.478371  0.413508 -0.093559 -0.043951 -0.006249  0.000054
  1N   1px       -0.394392  0.338975 -0.076458  0.039763  0.035063 -0.000040
  1N   1py        0.188529 -0.163080  0.036958 -0.029836  0.055929  0.000049
  1N   2pz       -0.364368 -0.603407 -2.873801 -0.361416 -0.049426  0.000022
  1N   2px       -0.302169 -0.495808 -2.356782  0.329059  0.291262  0.000022
  1N   2py        0.143529  0.238090  1.133664 -0.246721  0.461070  0.000010
  1N   1dz2       0.025322 -0.013670 -0.009914 -0.092733 -0.010837 -0.000051
  1N   1dxz       0.061356 -0.033171 -0.023600  0.001082  0.033331  0.000011
  1N   1dyz      -0.029511  0.015963  0.011491 -0.019139  0.074312  0.000069
  1N   1dx2y2     0.019327 -0.010473 -0.007311  0.030445  0.064493 -0.000031
  1N   1dxy      -0.024194  0.013103  0.009336 -0.046546  0.034088 -0.000136
  2C   1s        -0.151277  0.009091  0.004650 -0.000078 -0.000078 -0.000002
  2C   2s         1.518396  0.713514 -0.181969  0.001735  0.001819  0.000013
  2C   3s        -7.365673-12.078273 -7.135796 -0.004929 -0.002856  0.000037
  2C   1pz        0.333595 -0.239168 -0.136674  0.082601  0.012435  0.000035
  2C   1px        0.274311 -0.196167 -0.112874 -0.073582 -0.064804 -0.000061
  2C   1py       -0.131500  0.094293  0.053777  0.055376 -0.104719 -0.000015
  2C   2pz       -1.585306 -2.951859 -1.868561 -0.495338 -0.073637 -0.000181
  2C   2px       -1.302943 -2.425916 -1.533127  0.441225  0.389101  0.000287
  2C   2py        0.625271  1.164047  0.737078 -0.331873  0.626843  0.000062
  2C   1dz2      -0.030643 -0.014281 -0.035241 -0.333181  0.024947 -0.000005
  2C   1dxz      -0.074772 -0.035203 -0.084941 -0.064103  0.061929 -0.000062
  2C   1dyz       0.035819  0.016799  0.041062 -0.165225  0.341390 -0.000038
  2C   1dx2y2    -0.023715 -0.011417 -0.026010  0.232053  0.300446  0.000034
  2C   1dxy       0.029494  0.013953  0.033302 -0.122749  0.008374 -0.000083
  3H   1s         0.459969  0.625685  0.007914 -0.099028 -0.059048 -0.000139
  3H   2s         0.665616  0.731719  0.526889 -0.211508 -0.127005 -0.000099
  3H   1pz        0.011850  0.006113  0.061871  0.178516  0.031929  0.153184
  3H   1px        0.034714  0.064023  0.057896  0.321413  0.151053  0.084937
  3H   1py       -0.008390 -0.011222 -0.025663  0.037769 -0.255125  0.566724
  4H   1s         0.459816  0.625503  0.007866  0.102604 -0.055579  0.000022
  4H   2s         0.665839  0.731360  0.528084  0.216046 -0.119522  0.000048
  4H   1pz        0.034196  0.059574  0.067616 -0.266273  0.264352  0.243263
  4H   1px        0.014495  0.016617  0.051336 -0.248267 -0.075922 -0.443747
  4H   1py        0.006117  0.023171 -0.021752 -0.085083 -0.101515 -0.309556
  5H   1s         0.459978  0.625610  0.007889 -0.001158  0.117159  0.000101
  5H   2s         0.666045  0.731419  0.528778 -0.003878  0.246630  0.000066
  5H   1pz        0.025561  0.039207  0.064997  0.171388 -0.284337 -0.396100
  5H   1px        0.009663  0.005216  0.050113 -0.148611 -0.141787  0.358459
  5H   1py       -0.025911 -0.053297 -0.029303  0.103932  0.250312 -0.257096
                     36        37        38        39        40        41   
                   1.41086   1.41090   1.45602   1.45614   1.60904   1.60923
                   0.00000   0.00000   0.00000   0.00000   0.00000   0.00000
                  --------  --------  --------  --------  --------  --------
  0C   1s        -0.000092  0.000048  0.000036  0.000025  0.000071 -0.000066
  0C   2s         0.001126 -0.000587 -0.000460 -0.000325 -0.000645  0.000567
  0C   3s        -0.005551  0.003128  0.003381  0.002127 -0.002217  0.002117
  0C   1pz        0.013055  0.002858 -0.000851  0.000031  0.006166  0.000939
  0C   1px       -0.014484  0.005179  0.000581  0.000273 -0.006613  0.002570
  0C   1py        0.002026  0.018590 -0.000104  0.001155  0.001283  0.008562
  0C   2pz       -0.093048 -0.026460  0.017722 -0.005598 -0.361764 -0.067862
  0C   2px        0.118448 -0.043698 -0.025309 -0.011768  0.400197 -0.164011
  0C   2py       -0.018749 -0.142286  0.006393 -0.029242 -0.079781 -0.515672
  0C   1dz2       0.275450  0.248174 -0.386906 -0.203173  0.259204 -0.005939
  0C   1dxz       0.173731  0.037238  0.390667  0.249863 -0.111018  0.112911
  0C   1dyz       0.130766  0.563224  0.312989 -0.181274 -0.080962  0.101875
  0C   1dx2y2    -0.564091  0.233070 -0.433775  0.052008  0.003021  0.109624
  0C   1dxy       0.116825 -0.145811 -0.141596  0.684117  0.090411  0.243646
  1N   1s        -0.000065  0.000040  0.000060  0.000036 -0.000028  0.000035
  1N   2s        -0.000271  0.000182  0.000357  0.000206 -0.000334  0.000348
  1N   3s        -0.004790  0.002477  0.001766  0.001271  0.002435 -0.001797
  1N   1pz        0.131195  0.030757 -0.079624  0.013609  0.087938  0.016718
  1N   1px       -0.150118  0.054324  0.087852  0.038265 -0.097701  0.040130
  1N   1py        0.021663  0.190241 -0.020073  0.113517  0.019544  0.125771
  1N   2pz        0.068762  0.015472 -0.031946  0.005278  0.163876  0.031615
  1N   2px       -0.077020  0.027747  0.034805  0.015185 -0.183227  0.075324
  1N   2py        0.010873  0.098552 -0.007907  0.045566  0.036767  0.234847
  1N   1dz2      -0.211366  0.011589  0.067347 -0.110773 -0.069688 -0.047085
  1N   1dxz       0.112950 -0.092947  0.110977  0.017676 -0.029675 -0.011644
  1N   1dyz       0.083386 -0.050758  0.098392 -0.231928 -0.026946 -0.116654
  1N   1dx2y2    -0.034181 -0.081744 -0.258249 -0.096562  0.110657 -0.056798
  1N   1dxy      -0.063336 -0.227125  0.025200  0.134469 -0.026530  0.017957
  2C   1s        -0.000014  0.000009  0.000030  0.000018 -0.000032  0.000032
  2C   2s        -0.000523  0.000285  0.000114  0.000071 -0.000140  0.000154
  2C   3s         0.011148 -0.006062 -0.005447 -0.003535  0.000538 -0.001315
  2C   1pz       -0.022130 -0.005270 -0.067987  0.011360 -0.195481 -0.036833
  2C   1px        0.025505 -0.009315  0.074365  0.032287  0.216875 -0.088840
  2C   1py       -0.003672 -0.032391 -0.016950  0.096454 -0.043302 -0.278905
  2C   2pz        0.018573  0.001523  0.176162 -0.031204  0.823058  0.154509
  2C   2px       -0.014504  0.004690 -0.196849 -0.085748 -0.912461  0.373439
  2C   2py        0.001046  0.022418  0.045345 -0.252213  0.182151  1.174257
  2C   1dz2      -0.119210 -0.000511 -0.034589 -0.036742 -0.193338  0.096581
  2C   1dxz       0.055315 -0.050255  0.057351  0.029910  0.195231 -0.119397
  2C   1dyz       0.040596 -0.041870  0.047373 -0.049706  0.152635  0.093231
  2C   1dx2y2    -0.003006 -0.049479 -0.080990 -0.006552 -0.213188 -0.029793
  2C   1dxy      -0.036676 -0.116225 -0.012532  0.093227 -0.063133 -0.339116
  3H   1s         0.051978 -0.008547  0.085490  0.019832  0.518541 -0.108855
  3H   2s        -0.036096  0.006173  0.127781  0.029668  0.151458 -0.031659
  3H   1pz       -0.255295  0.096821  0.090729  0.045264 -0.343588 -0.048245
  3H   1px       -0.356107  0.089569  0.341156  0.092678  0.325412 -0.135324
  3H   1py        0.157986  0.173772 -0.097133  0.066507 -0.054211 -0.434878
  4H   1s        -0.033992 -0.040444 -0.059693  0.064232 -0.353836 -0.394434
  4H   2s         0.022335  0.027946 -0.089209  0.095929 -0.103240 -0.114974
  4H   1pz        0.318144  0.252982 -0.260148  0.225543 -0.288901 -0.041163
  4H   1px        0.038088  0.289682 -0.041041  0.143437  0.355613 -0.115086
  4H   1py       -0.110276  0.035839 -0.019233  0.089627 -0.084835 -0.451985
  5H   1s        -0.018931  0.049495 -0.025381 -0.083808 -0.164942  0.503587
  5H   2s         0.012007 -0.033192 -0.037969 -0.125213 -0.047981  0.146785
  5H   1pz        0.251270 -0.276332 -0.129657 -0.219930 -0.293904 -0.084629
  5H   1px       -0.040491 -0.249462  0.028924 -0.092786  0.346546 -0.170400
  5H   1py        0.003971  0.245874  0.041182  0.270229 -0.065862 -0.435217
                     42        43        44        45        46        47   
                   1.71861   1.86431   1.86457   1.97509   2.04858   2.04858
                   0.00000   0.00000   0.00000   0.00000   0.00000   0.00000
                  --------  --------  --------  --------  --------  --------
  0C   1s         0.102694  0.000093  0.000122  0.014399  0.000031 -0.000031
  0C   2s        -0.944855 -0.000769 -0.001000 -0.229033 -0.000274  0.000274
  0C   3s        -1.867286 -0.001710 -0.001889  0.240257 -0.000162  0.000151
  0C   1pz        0.370790  0.021358 -0.134092  0.185529 -0.042423  0.001592
  0C   1px        0.304272  0.065814  0.146856  0.152261  0.041074 -0.029073
  0C   1py       -0.146244  0.189685 -0.035860 -0.073226 -0.022499 -0.056092
  0C   2pz       -1.377889  0.031187 -0.204361 -0.366560 -0.008264  0.000858
  0C   2px       -1.131947  0.098600  0.220792 -0.300502  0.007176 -0.004833
  0C   2py        0.543011  0.287039 -0.053574  0.144533 -0.003864 -0.010208
  0C   1dz2       0.010689 -0.064944  0.259737  0.096027 -0.037671  0.157772
  0C   1dxz       0.027626 -0.081822 -0.010892  0.232991  0.181931 -0.130991
  0C   1dyz      -0.012670 -0.245974  0.006632 -0.111969  0.215015  0.191418
  0C   1dx2y2     0.009084 -0.158660 -0.173655  0.073480 -0.310745  0.122910
  0C   1dxy      -0.010663 -0.102704  0.096755 -0.091842 -0.088693 -0.302305
  1N   1s        -0.073247 -0.000049 -0.000039 -0.053709 -0.000012  0.000009
  1N   2s        -0.661375 -0.000444 -0.000405 -0.424387 -0.000115  0.000100
  1N   3s         3.031111  0.001834  0.002490  0.666533  0.000722 -0.000746
  1N   1pz       -0.147927 -0.014488  0.091841 -0.219129  0.008598 -0.000340
  1N   1px       -0.120884 -0.044921 -0.100223 -0.179966 -0.008336  0.005873
  1N   1py        0.058479 -0.129768  0.024429  0.086426  0.004547  0.011318
  1N   2pz       -0.785510 -0.021544  0.133944 -0.265702  0.017083 -0.000538
  1N   2px       -0.644053 -0.066018 -0.147234 -0.218328 -0.016802  0.011870
  1N   2py        0.309990 -0.189731  0.035991  0.104798  0.009144  0.022555
  1N   1dz2       0.005630 -0.007618 -0.368610  0.031641  0.026973 -0.336954
  1N   1dxz       0.012536  0.159767  0.137400  0.076790 -0.386529  0.261272
  1N   1dyz      -0.006444  0.170769  0.097224 -0.036943 -0.466305 -0.453082
  1N   1dx2y2     0.003476  0.163290  0.019492  0.024260  0.686035 -0.297863
  1N   1dxy      -0.005001  0.319754 -0.139290 -0.030433  0.165237  0.624285
  2C   1s        -0.043162 -0.000028 -0.000020 -0.052908  0.000009 -0.000007
  2C   2s         0.062580 -0.000080 -0.000135  0.287610 -0.000091  0.000065
  2C   3s        -0.428849  0.000816  0.000102  0.093966 -0.000404  0.000501
  2C   1pz       -0.020093 -0.038423  0.246812 -0.215264  0.049396 -0.002050
  2C   1px       -0.016474 -0.120150 -0.268428 -0.177320 -0.047506  0.033512
  2C   1py        0.007847 -0.348472  0.065378  0.084872  0.025989  0.064951
  2C   2pz        0.703337 -0.092976  0.601576 -0.472694  0.050021 -0.002107
  2C   2px        0.578468 -0.291926 -0.653707 -0.389452 -0.048172  0.033894
  2C   2py       -0.276710 -0.847897  0.159086  0.186451  0.026269  0.065541
  2C   1dz2       0.152981  0.016278  0.352926  0.205664  0.113899  0.031259
  2C   1dxz       0.373028 -0.156318 -0.141318  0.501132  0.031896  0.015818
  2C   1dyz      -0.178704 -0.148037 -0.102227 -0.240164  0.058778  0.138460
  2C   1dx2y2     0.118101 -0.150819  0.000516  0.158843 -0.112611  0.104688
  2C   1dxy      -0.147031 -0.321742  0.133360 -0.197513  0.037213 -0.011415
  3H   1s         0.075188  0.039940  0.164652 -0.086078  0.024384 -0.011274
  3H   2s         0.117525  0.144920  0.595406 -0.225435  0.088730 -0.041095
  3H   1pz       -0.402123  0.240795  0.442832  0.036138  0.135506 -0.047242
  3H   1px       -0.316626  0.072105 -0.007122  0.546792  0.040943 -0.010326
  3H   1py        0.156209  0.433032 -0.242601 -0.092007 -0.018944  0.065914
  4H   1s         0.074944  0.122213 -0.117065 -0.086304 -0.021850 -0.015326
  4H   2s         0.117538  0.442769 -0.423047 -0.226053 -0.079819 -0.056180
  4H   1pz       -0.389515 -0.042130 -0.244043  0.498834 -0.048609 -0.061280
  4H   1px       -0.328039  0.494789  0.044751  0.127908 -0.107632 -0.026013
  4H   1py        0.164381 -0.080019  0.437575  0.208788  0.056402  0.074300
  5H   1s         0.075147 -0.162348 -0.047586 -0.086321 -0.002413  0.026465
  5H   2s         0.117766 -0.587682 -0.171925 -0.225987 -0.008759  0.097077
  5H   1pz       -0.394359 -0.168390 -0.397937  0.319673  0.026944  0.104153
  5H   1px       -0.330638 -0.470793  0.177364  0.028420 -0.043254  0.114130
  5H   1py        0.146432 -0.072915 -0.247054 -0.453711  0.022740  0.009989
                     48        49        50        51        52        53   
                   2.21010   2.21017   2.41392   2.63042   2.63070   2.72754
                   0.00000   0.00000   0.00000   0.00000   0.00000   0.00000
                  --------  --------  --------  --------  --------  --------
  0C   1s         0.000075 -0.000046  0.006023 -0.000017  0.000014 -0.022312
  0C   2s        -0.000691  0.000446 -0.427984 -0.000467  0.000167  1.085019
  0C   3s         0.001199 -0.000358 -0.448888 -0.001044  0.000761  0.518987
  0C   1pz       -0.032433  0.121476  0.055112 -0.055488 -0.004481  0.475511
  0C   1px        0.110757 -0.099434  0.045065  0.057489 -0.030748  0.390581
  0C   1py        0.147430  0.101717 -0.021709 -0.019897 -0.075923 -0.187494
  0C   2pz        0.017164 -0.070548 -1.404388 -0.007128 -0.000046  2.587505
  0C   2px       -0.066870  0.059655 -1.152907  0.005061 -0.002932  2.124649
  0C   2py       -0.085884 -0.060343  0.553760 -0.001595 -0.008271 -1.020278
  0C   1dz2       0.037466  0.076848  0.136361 -0.355359 -0.004930 -0.214791
  0C   1dxz      -0.029531  0.053453  0.330583  0.076642 -0.143174 -0.520112
  0C   1dyz       0.108916  0.110288 -0.158896  0.036458 -0.234280  0.250305
  0C   1dx2y2     0.122482 -0.114384  0.104425  0.091331 -0.187285 -0.163775
  0C   1dxy      -0.070413 -0.009941 -0.130434 -0.150202 -0.231556  0.205140
  1N   1s        -0.000022  0.000026 -0.067976 -0.000083  0.000046  0.068332
  1N   2s        -0.000237  0.000256 -0.662513 -0.000905  0.000481  0.918432
  1N   3s         0.002195 -0.001511  2.438582  0.003028 -0.001415 -4.578017
  1N   1pz       -0.001364  0.005015 -0.223829 -0.034060 -0.002679  0.192335
  1N   1px        0.004446 -0.003988 -0.183716  0.035046 -0.018782  0.157965
  1N   1py        0.005979  0.004102  0.088284 -0.012133 -0.046596 -0.075845
  1N   2pz        0.006515 -0.025714 -0.685016  0.089476  0.008088  1.413268
  1N   2px       -0.024150  0.021589 -0.562066 -0.095316  0.051039  1.159388
  1N   2py       -0.031520 -0.021968  0.270153  0.033185  0.124423 -0.557407
  1N   1dz2      -0.146740  0.346364  0.049657 -0.387440 -0.045059 -0.248005
  1N   1dxz       0.193508 -0.048633  0.119961  0.035237 -0.133817 -0.600391
  1N   1dyz       0.216793  0.004258 -0.057720 -0.008098 -0.321397  0.288977
  1N   1dx2y2     0.181692  0.023732  0.037645  0.187648 -0.233609 -0.189036
  1N   1dxy       0.218658  0.252273 -0.047201 -0.156665 -0.181048  0.236842
  2C   1s        -0.000101  0.000005  0.262894  0.000116 -0.000060  0.005777
  2C   2s         0.000664 -0.000008 -1.526759 -0.000795  0.000476 -0.090101
  2C   3s        -0.002945  0.001498 -2.258038 -0.000863  0.000065  2.351885
  2C   1pz       -0.034448  0.127411  0.231390 -0.636780 -0.053145  0.404317
  2C   1px        0.115553 -0.104009  0.190280  0.663358 -0.355701  0.332916
  2C   1py        0.154199  0.106256 -0.090983 -0.230533 -0.877587 -0.159385
  2C   2pz       -0.096745  0.356149 -0.080095 -0.445363 -0.037277  0.784185
  2C   2px        0.321908 -0.290111 -0.066174  0.463876 -0.248797  0.644795
  2C   2py        0.430417  0.296421  0.031792 -0.161256 -0.613554 -0.309148
  2C   1dz2      -0.067852 -0.541289  0.156112  0.533053 -0.350133  0.245040
  2C   1dxz       0.006078 -0.198335  0.381437 -0.544829  0.411806  0.596893
  2C   1dyz      -0.597699 -0.471236 -0.182888 -0.484867 -0.243262 -0.286306
  2C   1dx2y2    -0.633498  0.471519  0.120362  0.653004  0.014328  0.189575
  2C   1dxy       0.162469 -0.114118 -0.150114  0.287494  0.987475 -0.235387
  3H   1s        -0.106396  0.138076  0.585863 -0.871686  0.279556  0.204523
  3H   2s        -0.198414  0.257547  0.430045 -0.450640  0.144481 -0.071591
  3H   1pz       -0.121852 -0.106027  0.660663 -0.879133  0.254414  0.275265
  3H   1px        0.156754 -0.349783 -0.446673  0.436758 -0.155332 -0.049424
  3H   1py       -0.507366 -0.317139 -0.111664  0.139634 -0.146578 -0.067039
  4H   1s        -0.066259 -0.161196  0.585455  0.678199  0.615657  0.205173
  4H   2s        -0.123514 -0.300695  0.429754  0.350654  0.318133 -0.071315
  4H   1pz        0.364232  0.213518 -0.225518 -0.156619 -0.085929  0.028486
  4H   1px       -0.402004  0.249216  0.355005  0.437228  0.294307  0.174449
  4H   1py       -0.242352  0.265445 -0.686333 -0.619162 -0.633493 -0.227731
  5H   1s         0.172565  0.023037  0.585548  0.193851 -0.895407  0.205263
  5H   2s         0.322060  0.042934  0.429891  0.100236 -0.462703 -0.071266
  5H   1pz       -0.152863 -0.440856  0.116950 -0.013898 -0.256163  0.124260
  5H   1px       -0.057508  0.372781  0.545440  0.219870 -0.725384  0.227698
  5H   1py        0.346383 -0.226400  0.580481  0.099371 -0.666606  0.125972
                     54        55        56   
                   2.85473   2.85490   3.21770
                   0.00000   0.00000   0.00000
                  --------  --------  --------
  0C   1s         0.000018 -0.000032 -0.226165
  0C   2s        -0.000586  0.001033  1.634336
  0C   3s        -0.000588  0.000992  1.712579
  0C   1pz        0.020134  0.104948  0.666171
  0C   1px        0.046492 -0.115913  0.546788
  0C   1py        0.149628  0.021893 -0.262709
  0C   2pz        0.031252  0.166021  0.161918
  0C   2px        0.072748 -0.181580  0.132724
  0C   2py        0.235417  0.034093 -0.063873
  0C   1dz2       0.151301  0.728749  0.445596
  0C   1dxz       0.253849 -0.114756  1.082918
  0C   1dyz       0.584653 -0.068648 -0.520064
  0C   1dx2y2     0.397021 -0.368670  0.342034
  0C   1dxy       0.406825  0.259139 -0.427007
  1N   1s        -0.000007  0.000018 -0.115043
  1N   2s        -0.000259  0.000490 -0.688778
  1N   3s         0.002092 -0.003803 -1.717494
  1N   1pz        0.016511  0.083779 -0.658283
  1N   1px        0.037616 -0.093582 -0.540236
  1N   1py        0.120031  0.017807  0.259612
  1N   2pz       -0.041618 -0.206858  0.765017
  1N   2px       -0.093901  0.233251  0.627924
  1N   2py       -0.297822 -0.044668 -0.301696
  1N   1dz2       0.136056  0.707476 -0.364909
  1N   1dxz       0.250950 -0.125518 -0.885820
  1N   1dyz       0.547370 -0.077385  0.425725
  1N   1dx2y2     0.379627 -0.332628 -0.279509
  1N   1dxy       0.413789  0.251150  0.349358
  2C   1s         0.000038 -0.000074  0.043943
  2C   2s        -0.000137  0.000284 -0.094789
  2C   3s        -0.000881  0.001898 -0.361791
  2C   1pz       -0.050408 -0.256690 -0.349017
  2C   1px       -0.115085  0.286631 -0.287120
  2C   1py       -0.367243 -0.054449  0.137535
  2C   2pz       -0.052321 -0.265982 -0.360819
  2C   2px       -0.119306  0.297114 -0.296694
  2C   2py       -0.380730 -0.056521  0.142182
  2C   1dz2       0.004148  0.740993 -0.196096
  2C   1dxz       0.312717 -0.297754 -0.476662
  2C   1dyz       0.319131 -0.217406  0.228882
  2C   1dx2y2     0.321084 -0.031764 -0.150890
  2C   1dxy       0.668195  0.253671  0.188056
  3H   1s         0.105140 -0.518669 -0.100886
  3H   2s         0.039947 -0.196774 -0.091024
  3H   1pz        0.089508 -0.330598 -0.111949
  3H   1px       -0.072859  0.420884  0.045866
  3H   1py        0.074201  0.043813  0.023401
  4H   1s         0.396034  0.350367 -0.101226
  4H   2s         0.150188  0.132593 -0.091229
  4H   1pz       -0.241876 -0.167252  0.011609
  4H   1px        0.151793  0.049461 -0.066012
  4H   1py       -0.299438 -0.324140  0.103837
  5H   1s        -0.501263  0.168253 -0.101414
  5H   2s        -0.189883  0.063565 -0.091352
  5H   1pz        0.062696  0.038986 -0.036330
  5H   1px       -0.284096  0.041252 -0.092769
  5H   1py       -0.430382  0.183239 -0.073439
--------------
SCF ITERATIONS
--------------
               ***  Starting incremental Fock matrix formation  ***

                         ----------------------------
                         !        ITERATION     0   !
                         ----------------------------
   Total Energy        :    -132.517389958659 Eh
   Energy Change       :    -132.517389958659 Eh
   MAX-DP              :       0.088895386366
   RMS-DP              :       0.004985188085
   Actual Damping      :       0.7000
   Actual Level Shift  :       0.2500 Eh
   Int. Num. El.       :    21.99999092 (UP=   10.99999546 DN=   10.99999546)
   Exchange            :   -18.30669667
   Correlation         :    -0.71583525


                         ----------------------------
                         !        ITERATION     1   !
                         ----------------------------
   Total Energy        :    -132.572413192806 Eh
   Energy Change       :      -0.055023234148 Eh
   MAX-DP              :       0.046245921380
   RMS-DP              :       0.003071059070
   Actual Damping      :       0.7000
   Actual Level Shift  :       0.2500 Eh
   Int. Num. El.       :    21.99998998 (UP=   10.99999499 DN=   10.99999499)
   Exchange            :   -18.15640904
   Correlation         :    -0.71202411

                               ***Turning on DIIS***

                         ----------------------------
                         !        ITERATION     2   !
                         ----------------------------
   Total Energy        :    -132.584716159706 Eh
   Energy Change       :      -0.012302966900 Eh
   MAX-DP              :       0.079573249222
   RMS-DP              :       0.004479530927
   Actual Damping      :       0.0000
   Actual Level Shift  :       0.2500 Eh
   Int. Num. El.       :    21.99998920 (UP=   10.99999460 DN=   10.99999460)
   Exchange            :   -18.06505274
   Correlation         :    -0.70927191
   DIIS-Error          :       0.034890391424


                         ----------------------------
                         !        ITERATION     3   !
                         ----------------------------
   Total Energy        :    -132.614896409450 Eh
   Energy Change       :      -0.030180249743 Eh
   MAX-DP              :       0.033797118634
   RMS-DP              :       0.002426592455
   Actual Damping      :       0.0000
   Actual Level Shift  :       0.2500 Eh
   Int. Num. El.       :    21.99998859 (UP=   10.99999430 DN=   10.99999430)
   Exchange            :   -17.95737552
   Correlation         :    -0.70483138
   DIIS-Error          :       0.039608062666
   DIIS coefficients:
      0.50116   0.49884


                         ----------------------------
                         !        ITERATION     4   !
                         ----------------------------
   Total Energy        :    -132.618118838644 Eh
   Energy Change       :      -0.003222429194 Eh
   MAX-DP              :       0.017148712565
   RMS-DP              :       0.000899530666
   Actual Damping      :       0.0000
   Actual Level Shift  :       0.2500 Eh
   Int. Num. El.       :    21.99998942 (UP=   10.99999471 DN=   10.99999471)
   Exchange            :   -18.02396979
   Correlation         :    -0.70707219
   DIIS-Error          :       0.039141820005
   DIIS coefficients:
      0.37082   0.22128   0.40790


                         ----------------------------
                         !        ITERATION     5   !
                         ----------------------------
   Total Energy        :    -132.619975618409 Eh
   Energy Change       :      -0.001856779765 Eh
   MAX-DP              :       0.004386330630
   RMS-DP              :       0.000273193711
   Actual Damping      :       0.0000
   Actual Level Shift  :       0.2500 Eh
   Int. Num. El.       :    21.99998949 (UP=   10.99999475 DN=   10.99999475)
   Exchange            :   -18.02225070
   Correlation         :    -0.70757011
   DIIS-Error          :       0.011968508724
   DIIS coefficients:
      0.10006   0.08422  -0.15746   0.97319

                      *** Initiating the SOSCF procedure ***
                           *** Shutting down DIIS ***
                      *** Re-Reading the Fockian *** 
                      *** Removing any level shift *** 

                         ----------------------------
                         !        ITERATION     6   !
                         ----------------------------
   Total Energy        :    -132.620139350449 Eh
   Energy Change       :      -0.000163732041 Eh
   MAX-DP              :       0.001121925468
   RMS-DP              :       0.000079226022
   Orbital gradient    :       0.000561850991
   Orbital Rotation    :       0.000561850991
   Actual Damping      :       0.0000
   Int. Num. El.       :    21.99998944 (UP=   10.99999472 DN=   10.99999472)
   Exchange            :   -18.02227358
   Correlation         :    -0.70765626

               *** Restarting incremental Fock matrix formation ***

                         ----------------------------
                         !        ITERATION     7   !
                         ----------------------------
   Total Energy        :    -132.620151384380 Eh
   Energy Change       :      -0.000012033930 Eh
   MAX-DP              :       0.001303150174
   RMS-DP              :       0.000068524754
   Orbital gradient    :       0.000338751062
   Orbital Rotation    :       0.001164217385
   Actual Damping      :       0.0000
   Int. Num. El.       :    21.99998941 (UP=   10.99999471 DN=   10.99999471)
   Exchange            :   -18.02171691
   Correlation         :    -0.70766545


                         ----------------------------
                         !        ITERATION     8   !
                         ----------------------------
   Total Energy        :    -132.620146489980 Eh
   Energy Change       :       0.000004894400 Eh
   MAX-DP              :       0.000957984155
   RMS-DP              :       0.000050440091
   Orbital gradient    :       0.001039696762
   Orbital Rotation    :       0.000840966998
   Actual Damping      :       0.0000
   Int. Num. El.       :    21.99998939 (UP=   10.99999470 DN=   10.99999470)
   Exchange            :   -18.02089491
   Correlation         :    -0.70765032


                         ----------------------------
                         !        ITERATION     9   !
                         ----------------------------
   Total Energy        :    -132.620152063285 Eh
   Energy Change       :      -0.000005573306 Eh
   MAX-DP              :       0.000582121194
   RMS-DP              :       0.000024614373
   Orbital gradient    :       0.000115482413
   Orbital Rotation    :       0.000213896081
   Actual Damping      :       0.0000
   Int. Num. El.       :    21.99998941 (UP=   10.99999470 DN=   10.99999470)
   Exchange            :   -18.02153130
   Correlation         :    -0.70765287


                         ----------------------------
                         !        ITERATION    10   !
                         ----------------------------
   Total Energy        :    -132.620151849566 Eh
   Energy Change       :       0.000000213720 Eh
   MAX-DP              :       0.000359314604
   RMS-DP              :       0.000015057202
   Orbital gradient    :       0.000198406813
   Orbital Rotation    :       0.000138882434
   Actual Damping      :       0.0000
   Int. Num. El.       :    21.99998940 (UP=   10.99999470 DN=   10.99999470)
   Exchange            :   -18.02166974
   Correlation         :    -0.70767165


                         ----------------------------
                         !        ITERATION    11   !
                         ----------------------------
   Total Energy        :    -132.620152225208 Eh
   Energy Change       :      -0.000000375642 Eh
   MAX-DP              :       0.000019368474
[...]
     13       0.000000   0.000000   0.000000   0.000000   0.000000   0.000000
     14       0.000000   0.000000   0.000000   0.000000   0.000000   0.000000
     15       0.000000   0.000000   0.000000   0.000000   0.000000   0.000000
     16      -0.000019   0.000036  -0.000010  -0.000001  -0.000019   0.000011
     17       0.000000   0.000000   0.000000   0.000000   0.000000   0.000000
                 12         13         14         15         16         17    
      0       0.000000   0.000000   0.000000   0.000000  -0.000008   0.000000
      1       0.000000   0.000000   0.000000   0.000000  -0.000030   0.000000
      2       0.000000   0.000000   0.000000   0.000000  -0.000007   0.000000
      3       0.000000   0.000000   0.000000   0.000000  -0.000000   0.000000
      4       0.000000   0.000000   0.000000   0.000000  -0.000022   0.000000
      5       0.000000   0.000000   0.000000   0.000000   0.000000   0.000000
      6       0.000000   0.000000   0.000000   0.000000  -0.000019   0.000000
      7       0.000000   0.000000   0.000000   0.000000   0.000036   0.000000
      8       0.000000   0.000000   0.000000   0.000000  -0.000010   0.000000
      9       0.000000   0.000000   0.000000   0.000000  -0.000001   0.000000
     10       0.000000   0.000000   0.000000   0.000000  -0.000019   0.000000
     11       0.000000   0.000000   0.000000   0.000000   0.000011   0.000000
     12       0.000000   0.000000   0.000000   0.000000   0.000007   0.000000
     13       0.000000   0.000000   0.000000   0.000000  -0.000017   0.000000
     14       0.000000   0.000000   0.000000   0.000000  -0.000001   0.000000
     15       0.000000   0.000000   0.000000   0.000000   0.000089   0.000000
     16       0.000007  -0.000017  -0.000001   0.000089   0.000115   0.000000
     17       0.000000   0.000000   0.000000   0.000000   0.000000   0.000000

done   (      0.3 sec)
gCP correction in the Hessian                    ...  
-----------------
gCP hessian 
from Numerical Differentiation: 
-----------------
                  0          1          2          3          4          5    
      0      -0.000001  -0.000055   0.000140   0.000021   0.000011  -0.000028
      1      -0.000055  -0.000090  -0.000067   0.000011   0.000039   0.000013
      2       0.000140  -0.000067   0.000055  -0.000028   0.000013   0.000010
      3       0.000021   0.000011  -0.000028  -0.000001  -0.000027   0.000068
      4       0.000011   0.000039   0.000013  -0.000027  -0.000045  -0.000033
      5      -0.000028   0.000013   0.000010   0.000068  -0.000033   0.000026
      6       0.000008   0.000013  -0.000032  -0.000003   0.000005  -0.000014
      7       0.000013   0.000029   0.000015   0.000005   0.000006   0.000007
      8      -0.000032   0.000015  -0.000005  -0.000014   0.000007  -0.000008
      9       0.000022   0.000004  -0.000013   0.000001   0.000002  -0.000007
     10       0.000004   0.000017   0.000025   0.000002   0.000001   0.000006
     11      -0.000013   0.000025  -0.000060  -0.000007   0.000006  -0.000016
     12      -0.000017   0.000040  -0.000023  -0.000007   0.000008  -0.000008
     13       0.000040  -0.000015   0.000023   0.000008  -0.000004   0.000007
     14      -0.000023   0.000023   0.000010  -0.000008   0.000007  -0.000003
     15      -0.000033  -0.000012  -0.000044  -0.000010  -0.000000  -0.000012
     16      -0.000012   0.000021  -0.000009  -0.000000   0.000003  -0.000000
     17      -0.000044  -0.000009  -0.000010  -0.000012  -0.000000  -0.000008
                  6          7          8          9         10         11    
      0       0.000008   0.000013  -0.000032   0.000022   0.000004  -0.000013
      1       0.000013   0.000029   0.000015   0.000004   0.000017   0.000025
      2      -0.000032   0.000015  -0.000005  -0.000013   0.000025  -0.000060
      3      -0.000003   0.000005  -0.000014   0.000001   0.000002  -0.000007
      4       0.000005   0.000006   0.000007   0.000002   0.000001   0.000006
      5      -0.000014   0.000007  -0.000008  -0.000007   0.000006  -0.000016
      6      -0.000173   0.000016  -0.000040   0.000066  -0.000016   0.000088
      7       0.000016  -0.000148   0.000019  -0.000016   0.000116   0.000025
      8      -0.000040   0.000019  -0.000189   0.000088   0.000025  -0.000021
      9       0.000066  -0.000016   0.000088  -0.000011   0.000040  -0.000235
     10      -0.000016   0.000116   0.000025   0.000040  -0.000165  -0.000038
     11       0.000088   0.000025  -0.000021  -0.000235  -0.000038   0.000102
     12       0.000078   0.000079   0.000023  -0.000016   0.000061   0.000095
     13       0.000079  -0.000026  -0.000042   0.000061   0.000026  -0.000068
     14       0.000023  -0.000042   0.000109   0.000095  -0.000068  -0.000035
     15       0.000024  -0.000097  -0.000025  -0.000061  -0.000091   0.000072
     16      -0.000097   0.000023  -0.000025  -0.000091   0.000006   0.000050
     17      -0.000025  -0.000025   0.000114   0.000072   0.000050   0.000030
                 12         13         14         15         16         17    
      0      -0.000017   0.000040  -0.000023  -0.000033  -0.000012  -0.000044
      1       0.000040  -0.000015   0.000023  -0.000012   0.000021  -0.000009
      2      -0.000023   0.000023   0.000010  -0.000044  -0.000009  -0.000010
      3      -0.000007   0.000008  -0.000008  -0.000010  -0.000000  -0.000012
      4       0.000008  -0.000004   0.000007  -0.000000   0.000003  -0.000000
      5      -0.000008   0.000007  -0.000003  -0.000012  -0.000000  -0.000008
      6       0.000078   0.000079   0.000023   0.000024  -0.000097  -0.000025
      7       0.000079  -0.000026  -0.000042  -0.000097   0.000023  -0.000025
      8       0.000023  -0.000042   0.000109  -0.000025  -0.000025   0.000114
      9      -0.000016   0.000061   0.000095  -0.000061  -0.000091   0.000072
     10       0.000061   0.000026  -0.000068  -0.000091   0.000006   0.000050
     11       0.000095  -0.000068  -0.000035   0.000072   0.000050   0.000030
     12      -0.000103  -0.000156  -0.000077   0.000065  -0.000032  -0.000009
     13      -0.000156   0.000163   0.000138  -0.000032  -0.000144  -0.000058
     14      -0.000077   0.000138  -0.000135  -0.000009  -0.000058   0.000054
     15       0.000065  -0.000032  -0.000009   0.000016   0.000233   0.000017
     16      -0.000032  -0.000144  -0.000058   0.000233   0.000091   0.000042
     17      -0.000009  -0.000058   0.000054   0.000017   0.000042  -0.000182

done   (      0.0 sec)
Dipol derivatives                                ... done   (      0.1 sec)

-------
TIMINGS
-------

Total SCF Hessian time: 0 days 0 hours 0 min 7 sec 
                   F(y)            G[Q(x)]           CPSCF         Total
Table01         0.2  0.03         0.2  0.03         2.9  0.41         7.1 
Table01a        0.2  0.03,        0.2, 0.03,        2.9  0.41         7.1 
Table01b        0.2   3.3,        0.2,  3.0,        2.9  40.8         7.1 

Writing the Hessian file to the disk             ... done


Maximum memory used throughout the entire calculation: 132.0 MB

-----------------------
VIBRATIONAL FREQUENCIES
-----------------------

Scaling factor for frequencies =  1.000000000  (already applied!)

   0:         0.00 cm**-1
   1:         0.00 cm**-1
   2:         0.00 cm**-1
   3:         0.00 cm**-1
   4:         0.00 cm**-1
   5:         0.00 cm**-1
   6:       363.79 cm**-1
   7:       364.42 cm**-1
   8:       928.06 cm**-1
   9:      1003.66 cm**-1
  10:      1003.70 cm**-1
  11:      1339.69 cm**-1
  12:      1397.93 cm**-1
  13:      1397.95 cm**-1
  14:      2292.73 cm**-1
  15:      2976.78 cm**-1
  16:      3068.70 cm**-1
  17:      3068.71 cm**-1


------------
NORMAL MODES
------------

These modes are the Cartesian displacements weighted by the diagonal matrix
M(i,i)=1/sqrt(m[i]) where m[i] is the mass of the displaced atom
Thus, these vectors are normalized but *not* orthogonal

                  0          1          2          3          4          5    
      0       0.000000   0.000000   0.000000   0.000000   0.000000   0.000000
      1       0.000000   0.000000   0.000000   0.000000   0.000000   0.000000
      2       0.000000   0.000000   0.000000   0.000000   0.000000   0.000000
      3       0.000000   0.000000   0.000000   0.000000   0.000000   0.000000
      4       0.000000   0.000000   0.000000   0.000000   0.000000   0.000000
      5       0.000000   0.000000   0.000000   0.000000   0.000000   0.000000
      6       0.000000   0.000000   0.000000   0.000000   0.000000   0.000000
      7       0.000000   0.000000   0.000000   0.000000   0.000000   0.000000
      8       0.000000   0.000000   0.000000   0.000000   0.000000   0.000000
      9       0.000000   0.000000   0.000000   0.000000   0.000000   0.000000
     10       0.000000   0.000000   0.000000   0.000000   0.000000   0.000000
     11       0.000000   0.000000   0.000000   0.000000   0.000000   0.000000
     12       0.000000   0.000000   0.000000   0.000000   0.000000   0.000000
     13       0.000000   0.000000   0.000000   0.000000   0.000000   0.000000
     14       0.000000   0.000000   0.000000   0.000000   0.000000   0.000000
     15       0.000000   0.000000   0.000000   0.000000   0.000000   0.000000
     16       0.000000   0.000000   0.000000   0.000000   0.000000   0.000000
     17       0.000000   0.000000   0.000000   0.000000   0.000000   0.000000
                  6          7          8          9         10         11    
      0      -0.332093  -0.043560   0.109160  -0.095663   0.017149  -0.002106
      1      -0.144097   0.376523  -0.052377  -0.006677   0.116786   0.001003
      2       0.215960   0.184217   0.132825   0.075853   0.031969  -0.002540
      3       0.184875   0.024265   0.175318   0.016189  -0.002903  -0.009851
      4       0.080143  -0.209539  -0.084160   0.001153  -0.019838   0.004730
      5      -0.120078  -0.102488   0.213515  -0.012946  -0.005432  -0.012001
      6       0.057806   0.007563  -0.238275   0.124691  -0.022366   0.092693
      7       0.025157  -0.065586   0.114405   0.008713  -0.152193  -0.044488
      8      -0.037716  -0.032113  -0.290236  -0.098844  -0.041646   0.112823
      9       0.564434   0.137100  -0.323727  -0.512748   0.051464  -0.502074
     10      -0.057954  -0.319087   0.142132   0.196041   0.357494   0.138659
     11       0.255901   0.001371  -0.345263  -0.445537   0.094625  -0.232949
     12       0.161492  -0.312948  -0.290876  -0.047190   0.480456  -0.250107
     13       0.138384  -0.097939   0.118549  -0.224857  -0.000860  -0.041851
     14      -0.241981  -0.544652  -0.379991   0.418950   0.424726  -0.511034
     15      -0.026608   0.267595  -0.283103  -0.010920  -0.429413  -0.190347
     16       0.223161  -0.376276   0.169680  -0.011467   0.340929   0.355617
     17      -0.469223   0.155014  -0.366044   0.480440  -0.328562  -0.403357
                 12         13         14         15         16         17    
      0       0.018570  -0.007872   0.485990   0.001149   0.000124   0.000073
      1      -0.004015  -0.023949  -0.233327  -0.000551  -0.000050   0.000167
      2      -0.016831  -0.002983   0.591870   0.001400  -0.000123   0.000006
      3      -0.002780   0.001179  -0.351265  -0.001333   0.000151   0.000087
      4       0.000603   0.003583   0.168637   0.000640  -0.000060   0.000201
      5       0.002514   0.000448  -0.427807  -0.001624  -0.000147   0.000008
      6       0.032750  -0.013886  -0.066649   0.030058   0.064141   0.037220
      7      -0.007071  -0.042218   0.032005  -0.014427  -0.025600   0.085541
      8      -0.029672  -0.005255  -0.081150   0.036589  -0.062794   0.003144
      9       0.384369   0.016902  -0.042345   0.306542  -0.398466  -0.140196
     10       0.042431   0.671193   0.018277   0.084125  -0.119708  -0.026111
     11       0.214024   0.136636  -0.043908  -0.481155   0.642156   0.234535
     12      -0.511939   0.212250  -0.037254  -0.262362  -0.278273   0.252138
     13      -0.284818   0.226244   0.014645   0.491955   0.534477  -0.441847
     14      -0.047304  -0.472483  -0.049590   0.147118   0.146116  -0.132745
     15      -0.445309   0.013717  -0.036009  -0.397515  -0.091119  -0.557528
     16       0.366104  -0.158794   0.022619  -0.406500  -0.108295  -0.556095
     17       0.352447   0.427789  -0.047340  -0.096066  -0.036540  -0.139432


-----------
IR SPECTRUM
-----------

 Mode    freq (cm**-1)   T**2         TX         TY         TZ
-------------------------------------------------------------------
   6:       363.79    0.028340  ( -0.133533  -0.058409   0.084245)
   7:       364.42    0.028336  ( -0.017593   0.150872   0.072554)
   8:       928.06    0.521852  ( -0.439672   0.209615  -0.533481)
   9:      1003.66    3.610089  ( -1.485559  -0.102314   1.180142)
  10:      1003.70    3.615071  (  0.268610   1.814883   0.499120)
  11:      1339.69    2.245846  ( -0.909504   0.434980  -1.108802)
  12:      1397.93   10.779837  ( -2.401799   0.519813   2.177382)
  13:      1397.95   10.782361  (  1.019476   3.097957   0.381693)
  14:      2292.73    9.773465  (  1.898861  -0.911523   2.310177)
  15:      2976.78    2.830315  (  1.021586  -0.490228   1.243525)
  16:      3068.70    0.194083  (  0.302579  -0.120665  -0.296596)
  17:      3068.71    0.193580  (  0.174842   0.403505   0.013898)

The first frequency considered to be a vibration is 6
The total number of vibrations considered is 12


--------------------------
THERMOCHEMISTRY AT 298.15K
--------------------------

Temperature         ... 298.15 K
Pressure            ... 1.00 atm
Total Mass          ... 41.05 AMU

Throughout the following assumptions are being made:
  (1) The electronic state is orbitally nondegenerate
  (2) There are no thermally accessible electronically excited states
  (3) Hindered rotations indicated by low frequency modes are not
      treated as such but are treated as vibrations and this may
      cause some error
  (4) All equations used are the standard statistical mechanics
      equations for an ideal gas
  (5) All vibrations are strictly harmonic

freq.     363.79  E(vib)   ...       0.22 
freq.     364.42  E(vib)   ...       0.22 
freq.     928.06  E(vib)   ...       0.03 
freq.    1003.66  E(vib)   ...       0.02 
freq.    1003.70  E(vib)   ...       0.02 
freq.    1339.69  E(vib)   ...       0.01 
freq.    1397.93  E(vib)   ...       0.00 
freq.    1397.95  E(vib)   ...       0.00 
freq.    2292.73  E(vib)   ...       0.00 
freq.    2976.78  E(vib)   ...       0.00 
freq.    3068.70  E(vib)   ...       0.00 
freq.    3068.71  E(vib)   ...       0.00 

------------
INNER ENERGY
------------

The inner energy is: U= E(el) + E(ZPE) + E(vib) + E(rot) + E(trans)
    E(el)   - is the total energy from the electronic structure calculation
              = E(kin-el) + E(nuc-el) + E(el-el) + E(nuc-nuc)
    E(ZPE)  - the the zero temperature vibrational energy from the frequency calculation
    E(vib)  - the the finite temperature correction to E(ZPE) due to population
              of excited vibrational states
    E(rot)  - is the rotational thermal energy
    E(trans)- is the translational thermal energy

Summary of contributions to the inner energy U:
Electronic energy                ...   -132.62666331 Eh
Zero point energy                ...      0.04375474 Eh      27.46 kcal/mol
Thermal vibrational correction   ...      0.00083786 Eh       0.53 kcal/mol
Thermal rotational correction    ...      0.00141627 Eh       0.89 kcal/mol
Thermal translational correction ...      0.00141627 Eh       0.89 kcal/mol
-----------------------------------------------------------------------
Total thermal energy                   -132.57923817 Eh


Summary of corrections to the electronic energy:
(perhaps to be used in another calculation)
Total thermal correction                  0.00367040 Eh       2.30 kcal/mol
Non-thermal (ZPE) correction              0.04375474 Eh      27.46 kcal/mol
-----------------------------------------------------------------------
Total correction                          0.04742514 Eh      29.76 kcal/mol


--------
ENTHALPY
--------

The enthalpy is H = U + kB*T
                kB is Boltzmann's constant
Total free energy                 ...   -132.57923817 Eh 
Thermal Enthalpy correction       ...      0.00094421 Eh       0.59 kcal/mol
-----------------------------------------------------------------------
Total Enthalpy                    ...   -132.57829396 Eh


Note: Only C1 symmetry has been detected, increase convergence thresholds 
      if your molecule has a higher symmetry. Symmetry factor of 1.0 is   
      used for the rotational entropy correction. 
 

Note: Rotational entropy computed according to Herzberg 
Infrared and Raman Spectra, Chapter V,1, Van Nostrand Reinhold, 1945 
Point Group:  C1, Symmetry Number:   1  
Rotational constants in cm-1:     5.153890     0.301727     0.301727 

Vibrational entropy computed according to the QRRHO of S. Grimme
Chem.Eur.J. 2012 18 9955


-------
ENTROPY
-------

The entropy contributions are T*S = T*(S(el)+S(vib)+S(rot)+S(trans))
     S(el)   - electronic entropy
     S(vib)  - vibrational entropy
     S(rot)  - rotational entropy
     S(trans)- translational entropy
The entropies will be listed as mutliplied by the temperature to get
units of energy

Electronic entropy                ...      0.00000000 Eh      0.00 kcal/mol
Vibrational entropy               ...      0.00122755 Eh      0.77 kcal/mol
Rotational entropy                ...      0.00986805 Eh      6.19 kcal/mol
Translational entropy             ...      0.01761033 Eh     11.05 kcal/mol
-----------------------------------------------------------------------
Final entropy term                ...      0.02870593 Eh     18.01 kcal/mol

In case the symmetry of your molecule has not been determined correctly
or in case you have a reason to use a different symmetry number we print 
out the resulting rotational entropy values for sn=1,12 :
 --------------------------------------------------------
|  sn= 1 | S(rot)=       0.00986805 Eh      6.19 kcal/mol|
|  sn= 2 | S(rot)=       0.00921359 Eh      5.78 kcal/mol|
|  sn= 3 | S(rot)=       0.00883076 Eh      5.54 kcal/mol|
|  sn= 4 | S(rot)=       0.00855913 Eh      5.37 kcal/mol|
|  sn= 5 | S(rot)=       0.00834845 Eh      5.24 kcal/mol|
|  sn= 6 | S(rot)=       0.00817630 Eh      5.13 kcal/mol|
|  sn= 7 | S(rot)=       0.00803075 Eh      5.04 kcal/mol|
|  sn= 8 | S(rot)=       0.00790468 Eh      4.96 kcal/mol|
|  sn= 9 | S(rot)=       0.00779347 Eh      4.89 kcal/mol|
|  sn=10 | S(rot)=       0.00769399 Eh      4.83 kcal/mol|
|  sn=11 | S(rot)=       0.00760400 Eh      4.77 kcal/mol|
|  sn=12 | S(rot)=       0.00752184 Eh      4.72 kcal/mol|
 --------------------------------------------------------


-------------------
GIBBS FREE ENERGY
-------------------

The Gibbs free energy is G = H - T*S

Total enthalpy                    ...   -132.57829396 Eh 
Total entropy correction          ...     -0.02870593 Eh    -18.01 kcal/mol
-----------------------------------------------------------------------
Final Gibbs free energy         ...   -132.60699989 Eh

For completeness - the Gibbs free energy minus the electronic energy
G-E(el)                           ...      0.01966342 Eh     12.34 kcal/mol


Timings for individual modules:

Sum of individual times         ...       26.048 sec (=   0.434 min)
GTO integral calculation        ...        2.312 sec (=   0.039 min)   8.9 %
SCF iterations                  ...       12.376 sec (=   0.206 min)  47.5 %
SCF Gradient evaluation         ...        3.832 sec (=   0.064 min)  14.7 %
Geometry relaxation             ...        0.129 sec (=   0.002 min)   0.5 %
Analytical frequency calculation...        7.398 sec (=   0.123 min)  28.4 %
                             ****ORCA TERMINATED NORMALLY****
TOTAL RUN TIME: 0 days 0 hours 0 minutes 26 seconds 743 msec
