
                                 *****************
                                 * O   R   C   A *
                                 *****************

           --- An Ab Initio, DFT and Semiempirical electronic structure package ---

                  #######################################################
                  #                        -***-                        #
                  #          Department of theory and spectroscopy      #
                  #               Directorship: Frank Neese             #
                  #        Max Planck Institute fuer Kohlenforschung    #
                  #                Kaiser Wilhelm Platz 1               #
                  #                 D-45470 Muelheim/Ruhr               #
                  #                      Germany                        #
                  #                                                     #
                  #                  All rights reserved                #
                  #                        -***-                        #
                  #######################################################


                         Program Version 4.2.1 -  RELEASE  -


 With contributions from (in alphabetic order):
   Daniel Aravena         : Magnetic Suceptibility
   Michael Atanasov       : Ab Initio Ligand Field Theory (pilot matlab implementation)
   Alexander A. Auer      : GIAO ZORA, VPT2
   Ute Becker             : Parallelization
   Giovanni Bistoni       : ED, misc. LED, open-shell LED, HFLD
   Martin Brehm           : Molecular dynamics
   Dmytro Bykov           : SCF Hessian
   Vijay G. Chilkuri      : MRCI spin determinant printing, contributions to CSF-ICE
   Dipayan Datta          : RHF DLPNO-CCSD density
   Achintya Kumar Dutta   : EOM-CC, STEOM-CC
   Dmitry Ganyushin       : Spin-Orbit,Spin-Spin,Magnetic field MRCI
   Miquel Garcia          : C-PCM Hessian, Gaussian charge scheme
   Yang Guo               : DLPNO-NEVPT2, CIM, IAO-localization
   Andreas Hansen         : Spin unrestricted coupled pair/coupled cluster methods
   Benjamin Helmich-Paris : CASSCF linear response (MC-RPA)
   Lee Huntington         : MR-EOM, pCC
   Robert Izsak           : Overlap fitted RIJCOSX, COSX-SCS-MP3, EOM
   Christian Kollmar      : KDIIS, OOCD, Brueckner-CCSD(T), CCSD density
   Simone Kossmann        : Meta GGA functionals, TD-DFT gradient, OOMP2, MP2 Hessian
   Martin Krupicka        : AUTO-CI
   Lucas Lang             : DCDCAS
   Dagmar Lenk            : GEPOL surface, SMD
   Dimitrios Liakos       : Extrapolation schemes; Compound Job, initial MDCI parallelization
   Dimitrios Manganas     : Further ROCIS development; embedding schemes
   Dimitrios Pantazis     : SARC Basis sets
   Taras Petrenko         : DFT Hessian,TD-DFT gradient, ASA, ECA, R-Raman, ABS, FL, XAS/XES, NRVS
   Peter Pinski           : DLPNO-MP2, DLPNO-MP2 Gradient
   Christoph Reimann      : Effective Core Potentials
   Marius Retegan         : Local ZFS, SOC
   Christoph Riplinger    : Optimizer, TS searches, QM/MM, DLPNO-CCSD(T), (RO)-DLPNO pert. Triples
   Tobias Risthaus        : Range-separated hybrids, TD-DFT gradient, RPA, STAB
   Michael Roemelt        : Original ROCIS implementation
   Masaaki Saitow         : Open-shell DLPNO-CCSD energy and density
   Barbara Sandhoefer     : DKH picture change effects
   Avijit Sen             : IP-ROCIS
   Kantharuban Sivalingam : CASSCF convergence, NEVPT2, FIC-MRCI
   Bernardo de Souza      : ESD, SOC TD-DFT
   Georgi Stoychev        : AutoAux, RI-MP2 NMR
   Willem Van den Heuvel  : Paramagnetic NMR
   Boris Wezisla          : Elementary symmetry handling
   Frank Wennmohs         : Technical directorship


 We gratefully acknowledge several colleagues who have allowed us to
 interface, adapt or use parts of their codes:
   Stefan Grimme, W. Hujo, H. Kruse,             : VdW corrections, initial TS optimization,
                  C. Bannwarth                     DFT functionals, gCP, sTDA/sTD-DF
   Ed Valeev, F. Pavosevic, A. Kumar             : LibInt (2-el integral package), F12 methods
   Garnet Chan, S. Sharma, J. Yang, R. Olivares  : DMRG
   Ulf Ekstrom                                   : XCFun DFT Library
   Mihaly Kallay                                 : mrcc  (arbitrary order and MRCC methods)
   Andreas Klamt, Michael Diedenhofen            : otool_cosmo (COSMO solvation model)
   Jiri Pittner, Ondrej Demel                    : Mk-CCSD
   Frank Weinhold                                : gennbo (NPA and NBO analysis)
   Christopher J. Cramer and Donald G. Truhlar   : smd solvation model
   Lars Goerigk                                  : TD-DFT with DH, B97 family of functionals
   V. Asgeirsson, H. Jonsson                     : NEB implementation
   FAccTs GmbH                                   : IRC, NEB, NEB-TS, Multilevel, MM, QM/MM, CI optimization
   S Lehtola, MJT Oliveira, MAL Marques          : LibXC Library


 Your calculation uses the libint2 library for the computation of 2-el integrals
 For citations please refer to: http://libint.valeyev.net

 Your ORCA version has been built with support for libXC version: 4.2.3
 For citations please refer to: https://tddft.org/programs/libxc/

 This ORCA versions uses:
   CBLAS   interface :  Fast vector & matrix operations
   LAPACKE interface :  Fast linear algebra routines
   SCALAPACK package :  Parallel linear algebra routines


Your calculation utilizes the geometrical counterpoise correction gCP
Please cite in your paper:
H.Kruse, S. Grimme J.Chem.Phys., 136, (2012), 154101 
   

Your calculation utilizes the atom-pairwise dispersion correction
based on tight binding partial charges (D4)
Cite in your paper:
E.Caldeweyher, C.Bannwarth, S.Grimme, J.Chem.Phys., (2017), 147, 034112.
E.Caldeweyher, S.Ehlert, A.Hansen, H.Neugebauer, S.Grimme, J.Chem.Phys., (2018), in progress.
   

----- Orbital basis set information -----
Your calculation utilizes the basis: def2-SVP
   F. Weigend and R. Ahlrichs, Phys. Chem. Chem. Phys. 7, 3297 (2005).

----- AuxJ basis set information -----
Your calculation utilizes the auxiliary basis: def2/J
   F. Weigend, Phys. Chem. Chem. Phys. 8, 1057 (2006).

================================================================================
                                        WARNINGS
                       Please study these warnings very carefully!
================================================================================


WARNING: Geometry Optimization
  ===> : Switching off AutoStart
         For restart on a previous wavefunction, please use MOREAD

INFO   : the flag for use of LIBINT has been found!

================================================================================
                                       INPUT FILE
================================================================================
NAME = allene.inp
|  1> ! revPBE D4 gCP(DFT/SVP) def2-SVP Opt Freq TightOpt TightSCF Grid4 FinalGrid5 LargePrint
|  2> 
|  3> %pal
|  4>  nprocs 8
|  5> end
|  6> 
|  7> *xyz 0 1
|  8> C       -2.7137121254      2.1996459938      0.0375238952                 
|  9> C       -1.4303100197      2.4060585986      0.1551765001                 
| 10> C       -0.1467367292      2.6120398626      0.2726446681                 
| 11> H        0.2193677596      3.3902960130      0.9331035066                 
| 12> H        0.5535135995      2.0035644959     -0.2888793439                 
| 13> H       -3.2764792568      2.7108600831     -0.7357241554                 
| 14> H       -3.2161168753      1.5123584868      0.7092222240                 
| 15> *
| 16> 
| 17>                          ****END OF INPUT****
================================================================================

                       *****************************
                       * Geometry Optimization Run *
                       *****************************

Geometry optimization settings:
Update method            Update   .... BFGS
Choice of coordinates    CoordSys .... Z-matrix Internals
Initial Hessian          InHess   .... Almoef's Model

Convergence Tolerances:
Energy Change            TolE     ....  1.0000e-06 Eh
Max. Gradient            TolMAXG  ....  1.0000e-04 Eh/bohr
RMS Gradient             TolRMSG  ....  3.0000e-05 Eh/bohr
Max. Displacement        TolMAXD  ....  1.0000e-03 bohr
RMS Displacement         TolRMSD  ....  6.0000e-04 bohr
Strict Convergence                ....  False
------------------------------------------------------------------------------
                        ORCA OPTIMIZATION COORDINATE SETUP
------------------------------------------------------------------------------

The optimization will be done in new redundant internal coordinates
Making redundant internal coordinates   ...  (new redundants) done
Evaluating the initial hessian          ...  (Almloef) done
Evaluating the coordinates              ...  done
Calculating the B-matrix                .... done
Calculating the G-matrix                .... done
Diagonalizing the G-matrix              .... done
The first mode is                       ....    3
The number of degrees of freedom        ....   15

    -----------------------------------------------------------------
                    Redundant Internal Coordinates


    -----------------------------------------------------------------
         Definition                    Initial Value    Approx d2E/dq
    -----------------------------------------------------------------
      1. B(C   1,C   0)                  1.3052         0.853135   
      2. B(C   2,C   1)                  1.3053         0.852873   
      3. B(H   3,C   2)                  1.0844         0.367586   
      4. B(H   4,C   2)                  1.0844         0.367598   
      5. B(H   5,C   0)                  1.0844         0.367562   
      6. B(H   6,C   0)                  1.0844         0.367566   
      7. A(C   1,C   0,H   5)          120.0007         0.374001   
      8. A(C   1,C   0,H   6)          119.9968         0.374002   
      9. A(H   5,C   0,H   6)          120.0014         0.292723   
     10. L(C   0,C   1,C   2,H   4, 1) 179.9794         0.487680   
     11. L(C   0,C   1,C   2,H   4, 2) 180.0145         0.487680   
     12. A(C   1,C   2,H   3)          120.0038         0.373986   
     13. A(H   3,C   2,H   4)          120.0052         0.292730   
     14. A(C   1,C   2,H   4)          119.9908         0.373988   
     15. D(H   3,C   2,C   0,H   6)    -88.7743         0.001503   
     16. D(H   4,C   2,C   0,H   5)    -88.5123         0.001503   
     17. D(H   4,C   2,C   0,H   6)     91.1063         0.001503   
     18. D(H   3,C   2,C   0,H   5)     91.6071         0.001503   
    -----------------------------------------------------------------

Number of atoms                         .... 7
Number of degrees of freedom            .... 18

         *************************************************************
         *                GEOMETRY OPTIMIZATION CYCLE   1            *
         *************************************************************
---------------------------------
CARTESIAN COORDINATES (ANGSTROEM)
---------------------------------
  C     -2.713712    2.199646    0.037524
  C     -1.430310    2.406059    0.155177
  C     -0.146737    2.612040    0.272645
  H      0.219368    3.390296    0.933104
  H      0.553514    2.003564   -0.288879
  H     -3.276479    2.710860   -0.735724
  H     -3.216117    1.512358    0.709222

----------------------------
CARTESIAN COORDINATES (A.U.)
----------------------------
  NO LB      ZA    FRAG     MASS         X           Y           Z
   0 C     6.0000    0    12.011   -5.128173    4.156729    0.070910
   1 C     6.0000    0    12.011   -2.702894    4.546792    0.293241
   2 C     6.0000    0    12.011   -0.277292    4.936040    0.515224
   3 H     1.0000    0     1.008    0.414545    6.406731    1.763310
   4 H     1.0000    0     1.008    1.045989    3.786188   -0.545903
   5 H     1.0000    0     1.008   -6.191648    5.122783   -1.390317
   6 H     1.0000    0     1.008   -6.077580    2.857943    1.340236

--------------------------------
INTERNAL COORDINATES (ANGSTROEM)
--------------------------------
 C      0   0   0     0.000000000000     0.00000000     0.00000000
 C      1   0   0     1.305208513524     0.00000000     0.00000000
 C      2   1   0     1.305292091333   179.97838840     0.00000000
 H      3   2   1     1.084398916316   120.00384936   197.79446010
 H      3   2   1     1.084390156160   119.99083679    17.67884228
 H      1   2   3     1.084416542220   120.00071449   253.80476250
 H      1   2   3     1.084413802436   119.99682138    73.43536076

---------------------------
INTERNAL COORDINATES (A.U.)
---------------------------
 C      0   0   0     0.000000000000     0.00000000     0.00000000
 C      1   0   0     2.466486638223     0.00000000     0.00000000
 C      2   1   0     2.466644577393   179.97838840     0.00000000
 H      3   2   1     2.049216971759   120.00384936   197.79446010
 H      3   2   1     2.049200417463   119.99083679    17.67884228
 H      1   2   3     2.049250279889   120.00071449   253.80476250
 H      1   2   3     2.049245102448   119.99682138    73.43536076

---------------------
BASIS SET INFORMATION
---------------------
There are 2 groups of distinct atoms

 Group   1 Type C   : 7s4p1d contracted to 3s2p1d pattern {511/31/1}
 Group   2 Type H   : 4s1p contracted to 2s1p pattern {31/1}

Atom   0C    basis set group =>   1
Atom   1C    basis set group =>   1
Atom   2C    basis set group =>   1
Atom   3H    basis set group =>   2
Atom   4H    basis set group =>   2
Atom   5H    basis set group =>   2
Atom   6H    basis set group =>   2

-------------------------
BASIS SET IN INPUT FORMAT
-------------------------

 # Basis set for element : H 
 NewGTO H 
 S 3 
   1      13.0107010000      0.0334854848
   2       1.9622572000      0.2347218709
   3       0.4445379600      0.8137702853
 S 1 
   1       0.1219496200      1.0000000000
 P 1 
   1       0.8000000000      1.0000000000
  end;

 # Basis set for element : C 
 NewGTO C 
 S 5 
   1    1238.4016938000      0.0055173650
   2     186.2900499200      0.0410888285
   3      42.2511763460      0.1822538213
   4      11.6765579320      0.4682845944
   5       3.5930506482      0.4457581734
 S 1 
   1       0.4024514736      1.0000000000
 S 1 
   1       0.1309018267      1.0000000000
 P 3 
   1       9.4680970621      0.0568883320
   2       2.0103545142      0.3129405934
   3       0.5477100471      0.7606501651
 P 1 
   1       0.1526861379      1.0000000000
 D 1 
   1       0.8000000000      1.0000000000
  end;

---------------------------------
AUXILIARY/J BASIS SET INFORMATION
---------------------------------
There are 2 groups of distinct atoms

 Group   1 Type C   : 12s5p4d2f1g contracted to 6s4p3d1f1g pattern {711111/2111/211/2/1}
 Group   2 Type H   : 5s2p1d contracted to 3s1p1d pattern {311/2/1}

Atom   0C    basis set group =>   1
Atom   1C    basis set group =>   1
Atom   2C    basis set group =>   1
Atom   3H    basis set group =>   2
Atom   4H    basis set group =>   2
Atom   5H    basis set group =>   2
Atom   6H    basis set group =>   2

-------------------------------------
AUXILIARY/J BASIS SET IN INPUT FORMAT
-------------------------------------

 # Auxiliary/J basis set for element : H 
 NewAuxJGTO H 
 S 3 
   1      15.6752927000      0.1007184237
   2       3.6063578000      0.3404257499
   3       1.2080016000      0.6491996172
 S 1 
   1       0.4726794000      1.0000000000
 S 1 
   1       0.2018100000      1.0000000000
 P 2 
   1       2.0281365000      0.5596620919
   2       0.5358730000      0.5596620919
 D 1 
   1       2.2165124000      1.0000000000
  end;

 # Auxiliary/J basis set for element : C 
 NewAuxJGTO C 
 S 7 
   1    1861.0916331000      0.0134602335
   2     642.9939764000      0.0299160374
   3     235.1105725000      0.1008649584
   4      90.7028894000      0.2370970548
   5      36.7794552000      0.3924037254
   6      15.6046273000      0.3195862154
   7       6.8907294000      0.0530104441
 S 1 
   1       3.1478850000     -1.0000000000
 S 1 
   1       1.4777287000      1.0000000000
 S 1 
   1       0.7076466000      1.0000000000
 S 1 
   1       0.3430122000      1.0000000000
 S 1 
   1       0.1669453000      1.0000000000
 P 2 
   1      13.5472892000     -0.6769313712
   2       5.4669419000     -0.3779500978
 P 1 
   1       2.1751721000      1.0000000000
 P 1 
   1       0.8582194000      1.0000000000
 P 1 
   1       0.3376720000      1.0000000000
 D 2 
   1       5.9287253000     -0.3533329857
   2       1.9809209000     -0.7456525731
 D 1 
   1       0.8055417000     -1.0000000000
 D 1 
   1       0.3531244000     -1.0000000000
 F 2 
   1       1.6755626000      0.6311076882
   2       0.5997536000      0.4968166032
 G 1 
   1       1.0024600000     -1.0000000000
  end;



           ************************************************************
           *        Program running with 8 parallel MPI-processes     *
           *              working on a common directory               *
           ************************************************************
------------------------------------------------------------------------------
                           ORCA GTO INTEGRAL CALCULATION
                           -- RI-GTO INTEGRALS CHOSEN --
------------------------------------------------------------------------------

                         BASIS SET STATISTICS AND STARTUP INFO

Gaussian basis set:
 # of primitive gaussian shells          ...   56
 # of primitive gaussian functions       ...  100
 # of contracted shells                  ...   30
 # of contracted basis functions         ...   62
 Highest angular momentum                ...    2
 Maximum contraction depth               ...    5
Auxiliary gaussian basis set:
 # of primitive gaussian shells          ...  104
 # of primitive gaussian functions       ...  274
 # of contracted shells                  ...   65
 # of contracted aux-basis functions     ...  191
 Highest angular momentum                ...    4
 Maximum contraction depth               ...    7
Ratio of auxiliary to basis functions    ...  3.08
Integral package used                  ... LIBINT
 One Electron integrals                  ... done
 Ordering auxiliary basis shells         ... done
 Integral threshhold             Thresh  ...  2.500e-11
 Primitive cut-off               TCut    ...  2.500e-12
 Pre-screening matrix                    ... done
 Shell pair data                         ... 
 Ordering of the shell pairs             ... done (   0.000 sec) 464 of 465 pairs
 Determination of significant pairs      ... done (   0.000 sec)
 Creation of shell pair data             ... done (   0.000 sec)
 Storage of shell pair data              ... done (   0.003 sec)
 Shell pair data done in (   0.004 sec)
 Computing two index integrals           ... done
 Cholesky decomposition of the V-matrix  ... done


Timings:
 Total evaluation time                   ...   0.141 sec (  0.002 min)
 One electron matrix time                ...   0.008 sec (  0.000 min) =  5.8%
 Schwartz matrix evaluation time         ...   0.108 sec (  0.002 min) = 76.5%
 Two index repulsion integral time       ...   0.001 sec (  0.000 min) =  0.8%
 Cholesky decomposition of V             ...   0.002 sec (  0.000 min) =  1.1%
 Three index repulsion integral time     ...   0.000 sec (  0.000 min) =  0.0%



           ************************************************************
           *        Program running with 8 parallel MPI-processes     *
           *              working on a common directory               *
           ************************************************************
-------------------------------------------------------------------------------
                                 ORCA SCF
-------------------------------------------------------------------------------

------------
SCF SETTINGS
------------
Hamiltonian:
 Density Functional     Method          .... DFT(GTOs)
 Exchange Functional    Exchange        .... PBE
   PBE kappa parameter   XKappa         ....  1.245000
   PBE mue parameter    XMuePBE         ....  0.219520
 Correlation Functional Correlation     .... PBE
   PBE beta parameter  CBetaPBE         ....  0.066725
 LDA part of GGA corr.  LDAOpt          .... PW91-LDA
 Gradients option       PostSCFGGA      .... off
   Density functional embedding theory  .... OFF
   NL short-range parameter             ....  3.700000
 RI-approximation to the Coulomb term is turned on
   Number of auxiliary basis functions  .... 191


General Settings:
 Integral files         IntName         .... allene
 Hartree-Fock type      HFTyp           .... RHF
 Total Charge           Charge          ....    0
 Multiplicity           Mult            ....    1
 Number of Electrons    NEL             ....   22
 Basis Dimension        Dim             ....   62
 Nuclear Repulsion      ENuc            ....     59.2912530068 Eh

Convergence Acceleration:
 DIIS                   CNVDIIS         .... on
   Start iteration      DIISMaxIt       ....    12
   Startup error        DIISStart       ....  0.200000
   # of expansion vecs  DIISMaxEq       ....     5
   Bias factor          DIISBfac        ....   1.050
   Max. coefficient     DIISMaxC        ....  10.000
 Newton-Raphson         CNVNR           .... off
 SOSCF                  CNVSOSCF        .... on
   Start iteration      SOSCFMaxIt      ....   150
   Startup grad/error   SOSCFStart      ....  0.003300
 Level Shifting         CNVShift        .... on
   Level shift para.    LevelShift      ....    0.2500
   Turn off err/grad.   ShiftErr        ....    0.0010
 Zerner damping         CNVZerner       .... off
 Static damping         CNVDamp         .... on
   Fraction old density DampFac         ....    0.7000
   Max. Damping (<1)    DampMax         ....    0.9800
   Min. Damping (>=0)   DampMin         ....    0.0000
   Turn off err/grad.   DampErr         ....    0.1000
 Fernandez-Rico         CNVRico         .... off

SCF Procedure:
 Maximum # iterations   MaxIter         ....   125
 SCF integral mode      SCFMode         .... Direct
   Integral package                     .... LIBINT
 Reset frequency        DirectResetFreq ....    20
 Integral Threshold     Thresh          ....  2.500e-11 Eh
 Primitive CutOff       TCut            ....  2.500e-12 Eh

Convergence Tolerance:
 Convergence Check Mode ConvCheckMode   .... Total+1el-Energy
 Convergence forced     ConvForced      .... 0
 Energy Change          TolE            ....  1.000e-08 Eh
 1-El. energy change                    ....  1.000e-05 Eh
 Orbital Gradient       TolG            ....  1.000e-05
 Orbital Rotation angle TolX            ....  1.000e-05
 DIIS Error             TolErr          ....  5.000e-07


Diagonalization of the overlap matrix:
Smallest eigenvalue                        ... 1.423e-03
Time for diagonalization                   ...    0.001 sec
Threshold for overlap eigenvalues          ... 1.000e-08
Number of eigenvalues below threshold      ... 0
Time for construction of square roots      ...    0.001 sec
Total time needed                          ...    0.002 sec

-------------------
DFT GRID GENERATION
-------------------

General Integration Accuracy     IntAcc      ...  4.670
Radial Grid Type                 RadialGrid  ... Gauss-Chebyshev
Angular Grid (max. acc.)         AngularGrid ... Lebedev-302
Angular grid pruning method      GridPruning ... 3 (G Style)
Weight generation scheme         WeightScheme... Becke
Basis function cutoff            BFCut       ...    1.0000e-11
Integration weight cutoff        WCut        ...    1.0000e-14
Grids for H and He will be reduced by one unit

# of grid points (after initial pruning)     ...  32212 (   0.0 sec)
# of grid points (after weights+screening)   ...  31060 (   0.0 sec)
nearest neighbour list constructed           ...    0.0 sec
Grid point re-assignment to atoms done       ...    0.0 sec
Grid point division into batches done        ...    0.1 sec
Reduced shell lists constructed in    0.1 sec

Total number of grid points                  ...    31060
Total number of batches                      ...      488
Average number of points per batch           ...       63
Average number of grid points per atom       ...     4437
Average number of shells per batch           ...    27.56 (91.88%)
Average number of basis functions per batch  ...    58.11 (93.73%)
Average number of large shells per batch     ...    24.03 (87.19%)
Average number of large basis fcns per batch ...    50.10 (86.21%)
Maximum spatial batch extension              ...   3.29,  7.82,  6.11 au
Average spatial batch extension              ...   0.16,  0.20,  0.19 au

Time for grid setup =    0.167 sec

------------------------------
INITIAL GUESS: MODEL POTENTIAL
------------------------------
Loading Hartree-Fock densities                     ... done
Calculating cut-offs                               ... done
Setting up the integral package                    ... done
Initializing the effective Hamiltonian             ... done
Starting the Coulomb interaction                   ... done (   0.0 sec)
Reading the grid                                   ... done
Mapping shells                                     ... done
Starting the XC term evaluation                    ... done (   0.0 sec)
  promolecular density results
     # of electrons  =     21.998043594
     EX              =    -16.577892639
     EC              =     -0.682944533
     EX+EC           =    -17.260837172
Transforming the Hamiltonian                       ... done (   0.0 sec)
Diagonalizing the Hamiltonian                      ... done (   0.0 sec)
Back transforming the eigenvectors                 ... done (   0.0 sec)
Now organizing SCF variables                       ... done
                      ------------------
                      INITIAL GUESS DONE (   0.3 sec)
                      ------------------
----------------------
INITIAL GUESS ORBITALS
----------------------
                      0         1         2         3         4         5   
                 -10.08925 -10.08920 -10.08421  -0.85323  -0.77635  -0.58244
                   2.00000   2.00000   2.00000   2.00000   2.00000   2.00000
                  --------  --------  --------  --------  --------  --------
  0C   1s        -0.778148  0.604296 -0.070642 -0.155286  0.189567 -0.096463
  0C   2s        -0.041507  0.030108 -0.011026  0.312990 -0.396741  0.211997
  0C   3s        -0.016941 -0.035352  0.012170  0.032131 -0.198615  0.069751
  0C   1pz       -0.000101  0.000003 -0.000438  0.010608 -0.008341 -0.025913
  0C   1px       -0.001213  0.000121 -0.004799  0.116893 -0.092984 -0.277667
  0C   1py       -0.000183  0.000010 -0.000769  0.018660 -0.014738 -0.045283
  0C   2pz       -0.001418 -0.000666  0.000279  0.000323 -0.005164 -0.007459
  0C   2px       -0.015414 -0.007375  0.003041  0.003490 -0.056424 -0.080206
  0C   2py       -0.002489 -0.001173  0.000488  0.000581 -0.009061 -0.013028
  0C   1dz2       0.000185 -0.000217  0.000986 -0.005966  0.004685  0.008086
  0C   1dxz      -0.000502  0.000332 -0.000450  0.002187 -0.002134 -0.001043
  0C   1dyz       0.002199 -0.001294  0.000647 -0.001281  0.003079 -0.007832
  0C   1dx2y2    -0.001096  0.000830 -0.001898  0.010541 -0.009019 -0.010871
  0C   1dxy      -0.000583  0.000406 -0.000696  0.003627 -0.003303 -0.002839
  1C   1s        -0.012366  0.100904  0.982931 -0.224412 -0.000036  0.148525
  1C   2s         0.000375 -0.003008  0.046745  0.451149  0.000081 -0.330199
  1C   3s        -0.003595  0.029207 -0.031032  0.128494  0.000045 -0.045147
  1C   1pz       -0.000309 -0.000038 -0.000001 -0.000043  0.029932 -0.000091
  1C   1px       -0.003373 -0.000415 -0.000001 -0.000074  0.326322  0.000058
  1C   1py       -0.000542 -0.000066 -0.000002 -0.000095  0.052453 -0.000220
  1C   2pz       -0.004304 -0.000534  0.000001 -0.000018 -0.008497 -0.000045
  1C   2px       -0.046986 -0.005789 -0.000001  0.000068 -0.093103 -0.000010
  1C   2py       -0.007548 -0.000938  0.000003 -0.000044 -0.014937 -0.000106
  1C   1dz2      -0.000045  0.000744 -0.003104 -0.014720 -0.000187  0.000753
  1C   1dxz       0.000074 -0.000227  0.000976  0.004637 -0.000184 -0.000211
  1C   1dyz      -0.000304 -0.000077  0.000157  0.000749  0.001221 -0.000027
  1C   1dx2y2     0.000171 -0.001247  0.005195  0.024662 -0.000059 -0.001197
  1C   1dxy       0.000086 -0.000407  0.001713  0.008137 -0.000156 -0.000381
  2C   1s         0.608128  0.775149 -0.070740 -0.155202 -0.189641 -0.096441
  2C   2s         0.032953  0.039285 -0.011029  0.312820  0.396899  0.211948
  2C   3s         0.025012 -0.030182  0.012172  0.031994  0.198625  0.069775
  2C   1pz       -0.000102 -0.000034  0.000438 -0.010662 -0.008438  0.025507
  2C   1px       -0.001144 -0.000408  0.004798 -0.116791 -0.092961  0.277790
  2C   1py       -0.000186 -0.000069  0.000771 -0.018795 -0.014971  0.044310
  2C   2pz       -0.001529  0.000311 -0.000279 -0.000297 -0.005164  0.007379
  2C   2px       -0.016745  0.003408 -0.003041 -0.003455 -0.056425  0.080211
  2C   2py       -0.002681  0.000555 -0.000489 -0.000524 -0.009063  0.012837
  2C   1dz2      -0.000683 -0.000805  0.001199 -0.006443 -0.005698  0.005821
  2C   1dxz      -0.000132 -0.000088 -0.000244  0.001723  0.001157 -0.003228
  2C   1dyz       0.001879  0.001863 -0.000764  0.001922  0.003638  0.007210
  2C   1dx2y2     0.000660  0.000872 -0.001822  0.010356  0.008655 -0.011690
  2C   1dxy       0.000037  0.000110 -0.000531  0.003262  0.002524 -0.004577
  3H   1s        -0.003120 -0.003434  0.000761  0.067608  0.103117  0.180188
  3H   2s         0.002625  0.005711 -0.000088  0.005209  0.004427  0.026206
  3H   1pz        0.001099  0.001417 -0.000508 -0.006569 -0.009121 -0.009654
  3H   1px        0.000847  0.000521 -0.000641 -0.006246 -0.006308  0.001227
  3H   1py        0.001308  0.001655 -0.000618 -0.007888 -0.010820 -0.011021
  4H   1s        -0.003117 -0.003432  0.000761  0.067641  0.103118  0.180314
  4H   2s         0.002629  0.005715 -0.000088  0.005237  0.004423  0.026243
  4H   1pz       -0.000892 -0.001251  0.000367  0.005125  0.007535  0.009393
  4H   1px        0.001391  0.001251 -0.000881 -0.009446 -0.010864 -0.003990
  4H   1py       -0.000951 -0.001374  0.000375  0.005382  0.008079  0.010594
  5H   1s         0.003859 -0.002574  0.000761  0.067649 -0.103067  0.180272
  5H   2s        -0.003934  0.004903 -0.000087  0.005216 -0.004421  0.026226
  5H   1pz        0.001649 -0.001303  0.000589  0.007651 -0.010650  0.011406
  5H   1px        0.001363 -0.000639  0.000782  0.008134 -0.008987  0.001845
  5H   1py       -0.001050  0.000933 -0.000305 -0.004458  0.006759 -0.009101
  6H   1s         0.003858 -0.002573  0.000761  0.067659 -0.103068  0.180313
  6H   2s        -0.003936  0.004904 -0.000087  0.005224 -0.004419  0.026239
  6H   1pz       -0.001401  0.001186 -0.000446 -0.006184  0.009036 -0.011122
  6H   1px        0.001235 -0.000535  0.000739  0.007556 -0.008165  0.000906
  6H   1py        0.001480 -0.001132  0.000553  0.007018 -0.009569  0.009586
                      6         7         8         9        10        11   
                  -0.53691  -0.51817  -0.51731  -0.35112  -0.34850  -0.12578
                   2.00000   2.00000   2.00000   2.00000   2.00000   0.00000
                  --------  --------  --------  --------  --------  --------
  0C   1s         0.035868 -0.000115  0.000112 -0.000295  0.000278  0.000314
  0C   2s        -0.065621  0.000241 -0.000239  0.000730 -0.000674 -0.000777
  0C   3s         0.148215  0.000013 -0.000089 -0.000031  0.000286 -0.000745
  0C   1pz        0.033237  0.292432  0.226301  0.292265 -0.143509 -0.194486
  0C   1px        0.354469  0.000949  0.020707 -0.059521  0.065484  0.058954
  0C   1py        0.057584 -0.176521 -0.254998  0.199149 -0.320713 -0.251831
  0C   2pz        0.015566  0.068593  0.061737  0.144403 -0.083343 -0.170561
  0C   2px        0.168143  0.001373  0.004074 -0.031431  0.034248  0.063803
  0C   2py        0.027178 -0.049229 -0.059388  0.109822 -0.161462 -0.293515
  0C   1dz2      -0.007947  0.000703 -0.000492 -0.000448 -0.003935  0.006343
  0C   1dxz       0.001173  0.004700 -0.002490 -0.002942 -0.024291  0.039362
  0C   1dyz       0.007016  0.001031 -0.000891  0.001745 -0.004011  0.005454
  0C   1dx2y2     0.010931 -0.001535  0.001872 -0.007551  0.002574 -0.000352
  0C   1dxy       0.002941  0.003070 -0.005009  0.023589 -0.000731 -0.010455
  1C   1s         0.000021  0.000020 -0.000040  0.000094 -0.000048 -0.000063
  1C   2s        -0.000055 -0.000041  0.000083 -0.000219  0.000110  0.000147
  1C   3s        -0.000034 -0.000060  0.000070  0.000228 -0.000119 -0.000132
  1C   1pz       -0.031997  0.209304  0.017583 -0.031526 -0.386876  0.516346
  1C   1px       -0.354399 -0.021002  0.031135 -0.059004  0.039242 -0.053082
  1C   1py       -0.056643  0.014700 -0.205527  0.386252 -0.025579  0.034765
  1C   2pz        0.016358  0.095046  0.007957 -0.015231 -0.187517  0.480334
  1C   2px        0.176333 -0.009910  0.014268 -0.028816  0.019761 -0.048689
  1C   2py        0.028461  0.006624 -0.092822  0.186178 -0.012288  0.032440
  1C   1dz2      -0.000186 -0.000221 -0.002540 -0.004345 -0.000396 -0.000382
  1C   1dxz      -0.000181 -0.001549 -0.015794 -0.027104 -0.002900 -0.002867
  1C   1dyz       0.001231  0.001182 -0.002664 -0.004588  0.002139  0.002132
  1C   1dx2y2    -0.000064 -0.004812  0.001808  0.003177 -0.008670 -0.008681
  1C   1dxy      -0.000147  0.014982 -0.000874 -0.001600  0.027008  0.027031
  2C   1s        -0.035883  0.000043  0.000029 -0.000112 -0.000068 -0.000059
  2C   2s         0.065650 -0.000082 -0.000071  0.000298  0.000143  0.000099
  2C   3s        -0.148199  0.000140 -0.000170  0.000316 -0.000444 -0.000012
  2C   1pz        0.033082  0.258428 -0.180104 -0.321153 -0.199757 -0.236968
  2C   1px        0.354600 -0.058603  0.062177  0.004946 -0.029270 -0.013767
  2C   1py        0.057201  0.214885 -0.283967  0.153182  0.298285  0.222930
  2C   2pz        0.015497  0.059262 -0.050848 -0.160564 -0.111546 -0.220785
  2C   2px        0.168203 -0.014972  0.015555  0.000761 -0.013328 -0.022326
  2C   2py        0.027015  0.058094 -0.067411  0.086994  0.148791  0.267427
  2C   1dz2       0.005931 -0.000823 -0.000566  0.000199  0.003880 -0.005928
  2C   1dxz      -0.003124 -0.005269 -0.003488  0.001680  0.024178 -0.036740
  2C   1dyz       0.006383 -0.000624 -0.000122 -0.001995  0.004127 -0.007381
  2C   1dx2y2    -0.011660 -0.000303 -0.001224  0.007659 -0.002905  0.008323
  2C   1dxy      -0.004503  0.002560  0.004661 -0.023668  0.001712 -0.014376
  3H   1s         0.165653  0.203312 -0.204211 -0.104638  0.104582 -0.135942
  3H   2s         0.039290  0.040703 -0.040647 -0.043796  0.044534 -0.185537
  3H   1pz       -0.007655 -0.004233  0.006940 -0.006828 -0.009502 -0.012423
  3H   1px        0.003577 -0.008812  0.008930  0.000626 -0.001338 -0.005913
  3H   1py       -0.008598 -0.008047  0.005701  0.008567  0.005695  0.009853
  4H   1s         0.164874 -0.203719  0.204334  0.104584 -0.104582  0.135635
  4H   2s         0.039102 -0.040793  0.040690  0.043796 -0.044403  0.185355
  4H   1pz        0.007899 -0.002368  0.005068 -0.007085 -0.009272 -0.011462
  4H   1px       -0.000631  0.011474 -0.011340 -0.002010  0.001189  0.004691
  4H   1py        0.009053 -0.004834  0.002480  0.008142  0.006084  0.011544
  5H   1s        -0.165357 -0.203497 -0.204182 -0.103712 -0.105494  0.137195
  5H   2s        -0.039219 -0.040744 -0.040637 -0.043311 -0.044986  0.187144
  5H   1pz       -0.009068 -0.005327 -0.007595  0.005367 -0.008323 -0.010364
  5H   1px        0.001082 -0.010698 -0.010010 -0.003341  0.000652 -0.002445
  5H   1py        0.007852  0.004218  0.001528  0.009075 -0.007272 -0.013038
  6H   1s        -0.165106  0.204024  0.203828  0.103616  0.105583 -0.136106
  6H   2s        -0.039163  0.040844  0.040587  0.043496  0.044767 -0.186119
  6H   1pz        0.009316 -0.003419 -0.005659  0.005657 -0.008100 -0.009430
  6H   1px        0.001864  0.009586  0.010210 -0.000732  0.003192  0.008221
  6H   1py       -0.007391  0.007585  0.004855  0.009494 -0.006812 -0.011287
                     12        13        14        15        16        17   
                  -0.12252   0.01553   0.03228   0.08083   0.08122   0.15337
                   0.00000   0.00000   0.00000   0.00000   0.00000   0.00000
                  --------  --------  --------  --------  --------  --------
  0C   1s        -0.000351 -0.135415  0.099952 -0.000018  0.000030  0.088002
  0C   2s         0.000899  0.384037 -0.237651  0.000081 -0.000092 -0.331810
  0C   3s         0.001038  1.418775 -1.334504  0.001488 -0.001026 -0.927511
  0C   1pz        0.218273 -0.004673  0.017478  0.208643  0.301828 -0.040175
  0C   1px       -0.058638 -0.043058  0.184394  0.024498 -0.003161 -0.433597
  0C   1py        0.236776 -0.007674  0.030542 -0.271258 -0.152106 -0.070280
  0C   2pz        0.266261 -0.020769  0.039426  0.582085  0.771966 -0.114984
  0C   2px       -0.061349 -0.207375  0.412352  0.056482  0.000449 -1.246859
  0C   2py        0.224166 -0.035295  0.068623 -0.682544 -0.440102 -0.201363
  0C   1dz2       0.002600 -0.001345  0.004474  0.002300 -0.000061 -0.019790
  0C   1dxz       0.016493 -0.001419  0.001604  0.014047 -0.000423  0.002117
  0C   1dyz      -0.000805  0.009181 -0.015480  0.002538 -0.001364  0.021622
  0C   1dx2y2     0.010490 -0.001106 -0.002150 -0.002140  0.004529  0.025662
  0C   1dxy      -0.036308 -0.001241  0.000799  0.002412 -0.013461  0.006454
  1C   1s         0.000124  0.027592  0.000003 -0.000061  0.000039 -0.134447
  1C   2s        -0.000286  0.035068  0.000001  0.000290 -0.000185  0.257777
  1C   3s         0.000125 -0.789260 -0.000245 -0.000522  0.000032  3.962867
  1C   1pz        0.042635  0.000100 -0.004292 -0.012325 -0.129718 -0.000033
  1C   1px        0.078649 -0.000070 -0.045276 -0.019816  0.013536  0.000205
  1C   1py       -0.513200  0.000263 -0.007382  0.130366 -0.010201 -0.000096
  1C   2pz        0.040045  0.000316 -0.001275 -0.046140 -0.498082  0.000113
  1C   2px        0.073572 -0.000354 -0.006534 -0.073691  0.052009  0.001705
  1C   2py       -0.482438  0.000804 -0.001522  0.487595 -0.039107  0.000276
  1C   1dz2      -0.004400 -0.016086  0.002074 -0.003284 -0.000219  0.041614
  1C   1dxz      -0.027469  0.005086  0.001971 -0.020821 -0.001845 -0.013081
  1C   1dyz      -0.004635  0.000774 -0.013851 -0.003482  0.001584 -0.002147
  1C   1dx2y2     0.003218  0.026369  0.000794  0.002377 -0.006291 -0.070120
  1C   1dxy      -0.001577  0.008748  0.001504 -0.000964  0.019576 -0.023088
  2C   1s        -0.000153 -0.135411 -0.099973 -0.000000 -0.000019  0.088013
  2C   2s         0.000438  0.384039  0.237714  0.000012  0.000034 -0.331798
  2C   3s         0.000581  1.419025  1.334783  0.000087  0.000304 -0.930914
  2C   1pz       -0.254791  0.004388  0.016912 -0.155139  0.274657  0.039872
  2C   1px       -0.009051  0.043166  0.184651  0.061360 -0.056774  0.433829
  2C   1py        0.201985  0.006924  0.029168 -0.294060  0.197436  0.069498
  2C   2pz       -0.300180  0.019875  0.038058 -0.446720  0.694552  0.114651
  2C   2px       -0.001670  0.207526  0.412877  0.160886 -0.152527  1.249002
  2C   2py        0.182575  0.033068  0.065287 -0.746987  0.555432  0.200288
  2C   1dz2       0.001564  0.001429  0.000171  0.002322  0.000435 -0.013526
  2C   1dxz       0.009120  0.001231  0.002896  0.014439  0.002933  0.008170
  2C   1dyz       0.005137 -0.009307 -0.015382  0.002259 -0.000803 -0.020169
  2C   1dx2y2    -0.013379 -0.000064  0.003828 -0.001031  0.004094  0.027998
  2C   1dxy       0.037810  0.000812  0.002806 -0.001067 -0.013264  0.011242
  3H   1s         0.134449 -0.099269 -0.121054  0.052113 -0.050348 -0.110879
  3H   2s         0.187130 -0.892272 -0.989703  1.111547 -1.132880 -0.428381
  3H   1pz       -0.011802 -0.008901 -0.011023  0.012110 -0.003515 -0.009972
  3H   1px        0.004822 -0.000865  0.002737  0.006539 -0.005960  0.018168
  3H   1py        0.011315 -0.010258 -0.012547  0.005244 -0.013008 -0.010449
  4H   1s        -0.134831 -0.098719 -0.121559 -0.051984  0.050445 -0.110848
  4H   2s        -0.187629 -0.890526 -0.991560 -1.112081  1.132141 -0.427927
  4H   1pz       -0.012798  0.008310  0.010972  0.010576 -0.001990  0.012729
  4H   1px       -0.005920 -0.005510 -0.003341 -0.009870  0.010215  0.011973
  4H   1py        0.009575  0.009228  0.012465  0.002666 -0.010434  0.015277
  5H   1s         0.133223 -0.099112  0.121241  0.053069  0.049366 -0.110807
  5H   2s         0.185621 -0.891714  0.990197  1.129169  1.115236 -0.428277
  5H   1pz        0.009911  0.010467 -0.013039 -0.012759 -0.005335  0.012022
  5H   1px       -0.008264  0.003617 -0.000839 -0.007626 -0.009312 -0.014497
  5H   1py        0.011277 -0.007899  0.010759  0.001076  0.009828 -0.013533
  6H   1s        -0.134367 -0.098922  0.121386 -0.052642 -0.049690 -0.110816
  6H   2s        -0.186817 -0.891231  0.990928 -1.131052 -1.113075 -0.428227
  6H   1pz        0.010934 -0.009875  0.012978 -0.011158 -0.003731 -0.014793
  6H   1px        0.002414  0.002757  0.000240  0.009002  0.006562 -0.015612
  6H   1py        0.012957  0.008928 -0.010871  0.003918  0.012478  0.008679
                     18        19        20        21        22        23   
                   0.20848   0.23605   0.35225   0.36993   0.37056   0.37130
                   0.00000   0.00000   0.00000   0.00000   0.00000   0.00000
                  --------  --------  --------  --------  --------  --------
  0C   1s         0.007418 -0.007152 -0.047939  0.004284  0.034671 -0.002299
  0C   2s         0.045598  0.313513  0.474783  0.012792  0.102912 -0.008125
  0C   3s        -6.268351 -1.736588 -4.141102 -0.068944 -0.648014  0.064709
  0C   1pz        0.000215  0.014745 -0.003899  0.316966 -0.041436  0.323694
  0C   1px        0.001227  0.158547 -0.079419 -0.122516 -0.232114 -0.075948
  0C   1py        0.000236  0.025752 -0.008657  0.380120 -0.062321  0.383486
  0C   2pz       -0.279648 -0.110345 -0.052687 -0.149291  0.034479 -0.606631
  0C   2px       -3.050620 -1.203077 -0.550945  0.191963  0.563065  0.064027
  0C   2py       -0.490713 -0.193585 -0.090504 -0.622301  0.157642 -0.268640
  0C   1dz2      -0.024443 -0.020609  0.020703  0.006070  0.003356  0.002254
  0C   1dxz       0.005994  0.007137  0.009429  0.036087  0.012313  0.015796
  0C   1dyz       0.009902 -0.001986 -0.079991 -0.002538 -0.084537  0.012296
  0C   1dx2y2     0.037733  0.035560 -0.006635 -0.007678  0.023916 -0.015383
  0C   1dxy       0.011648  0.012092  0.005953  0.024539  0.015503  0.035537
  1C   1s         0.000023 -0.208952  0.000098 -0.015961 -0.124499  0.008051
  1C   2s        -0.000321  1.283403 -0.000348  0.058990  0.461627 -0.029946
  1C   3s         0.001780  1.849071  0.000397 -0.065870 -0.508433  0.032656
  1C   1pz       -0.031670 -0.000041  0.008673 -0.041209  0.039515  0.532326
  1C   1px       -0.345872 -0.000132  0.069957 -0.079857  0.006900 -0.054872
  1C   1py       -0.055550 -0.000096  0.012842  0.520680 -0.064709  0.038353
  1C   2pz       -0.539117 -0.000188 -0.267858  0.020236 -0.019473 -0.255960
  1C   2px       -5.886269 -0.001636 -2.904284  0.046600 -0.005608  0.041607
  1C   2py       -0.945633 -0.000294 -0.467814 -0.246555  0.029761 -0.016195
  1C   1dz2       0.000288 -0.019464  0.005378 -0.005607  0.032056 -0.001215
  1C   1dxz       0.000246  0.006105  0.005029 -0.061224 -0.001663  0.006634
  1C   1dyz      -0.001739  0.000981 -0.036244 -0.010194 -0.000495 -0.004435
  1C   1dx2y2     0.000047  0.032575  0.002207  0.000599 -0.049787  0.022347
  1C   1dxy       0.000198  0.010736  0.003686 -0.005839 -0.020044 -0.058553
  2C   1s        -0.007326 -0.007146  0.047897  0.004204  0.034755 -0.002410
  2C   2s        -0.046237  0.313357 -0.475085  0.015081  0.102144 -0.004254
  2C   3s         6.267970 -1.732572  4.142314 -0.094884 -0.641145  0.019126
  2C   1pz        0.000178 -0.014536 -0.006204 -0.374002  0.094588  0.381510
  2C   1px        0.001689 -0.158628 -0.078824  0.012533  0.241323  0.002902
  2C   1py        0.000222 -0.025296 -0.013494  0.336156 -0.025587 -0.332968
  2C   2pz       -0.279002  0.109932 -0.052041  0.248092 -0.126822 -0.636973
  2C   2px       -3.050611  1.201180 -0.550398  0.001335 -0.580578  0.070743
  2C   2py       -0.489294  0.192668 -0.089471 -0.614235 -0.002885  0.180323
  2C   1dz2       0.021812 -0.021524  0.003431  0.003296 -0.022615 -0.002368
  2C   1dxz      -0.008500  0.006201  0.014045  0.036870 -0.015382 -0.023553
  2C   1dyz       0.007636  0.004167 -0.080034  0.015664  0.085011 -0.005665
  2C   1dx2y2    -0.038723  0.035223  0.015189  0.004103  0.013242 -0.009974
  2C   1dxy      -0.013589  0.011290  0.013022 -0.018512  0.001140  0.034541
  3H   1s         0.048816 -0.000355 -0.512628  0.240041  0.533717  0.136614
  3H   2s        -0.296409  0.158092 -0.314561  0.100990 -0.020107  0.109818
  3H   1pz        0.006614  0.000812 -0.013278  0.002009  0.017384 -0.005196
  3H   1px       -0.017805  0.031023  0.033937  0.020867 -0.009591  0.022518
  3H   1py        0.006601  0.002645 -0.013536 -0.000220  0.020293 -0.000701
  4H   1s         0.048837 -0.000483 -0.516328 -0.097968  0.553695 -0.200826
  4H   2s        -0.296449  0.158521 -0.314428 -0.102583 -0.005568 -0.104367
  4H   1pz       -0.009459  0.004751  0.018679 -0.006505 -0.018328 -0.006944
  4H   1px       -0.013418  0.029949  0.024744 -0.019478  0.002694 -0.020392
  4H   1py       -0.011616  0.007129  0.022777 -0.012153 -0.020073 -0.005004
  5H   1s        -0.048884 -0.000382  0.513156  0.233697  0.512496 -0.207313
  5H   2s         0.296030  0.158418  0.314463  0.097395 -0.032481 -0.108147
  5H   1pz        0.008085 -0.000451 -0.016066 -0.001386 -0.021261 -0.003044
  5H   1px       -0.015216 -0.030404  0.028550 -0.019711  0.006392  0.020975
  5H   1py       -0.010373 -0.006846  0.020607 -0.006838  0.019865  0.004071
  6H   1s        -0.048915 -0.000453  0.514218 -0.099489  0.576567  0.129315
  6H   2s         0.296019  0.158552  0.314320 -0.103549  0.007733  0.105453
  6H   1pz       -0.010930 -0.005129  0.021711  0.007724  0.020541 -0.010044
  6H   1px       -0.016001 -0.030599  0.030013  0.021481  0.000223 -0.021316
  6H   1py        0.005381 -0.002953 -0.010816 -0.004464 -0.016709 -0.000339
                     24        25        26        27        28        29   
                   0.45958   0.45977   0.51957   0.53544   0.53549   0.54212
                   0.00000   0.00000   0.00000   0.00000   0.00000   0.00000
                  --------  --------  --------  --------  --------  --------
  0C   1s        -0.000225  0.000232 -0.166652  0.000351  0.000644 -0.166508
  0C   2s         0.001076 -0.001165  0.946320 -0.001996 -0.003757  1.145067
  0C   3s         0.001953 -0.001523 -3.956270  0.005592  0.010527 -3.180331
  0C   1pz        0.400119 -0.153982 -0.030725  0.482601 -0.347656 -0.037190
  0C   1px       -0.067050  0.086762 -0.321010  0.036390  0.022118 -0.389661
  0C   1py        0.185305 -0.446573 -0.053481 -0.496225  0.067306 -0.064823
  0C   2pz       -0.513565  0.360826  0.010975 -0.835541  0.713874  0.056694
  0C   2px        0.111861 -0.132784  0.079450 -0.075970 -0.066179  0.578077
  0C   2py       -0.392992  0.609125  0.016807  0.943047  0.002605  0.099028
  0C   1dz2       0.007092  0.009918 -0.007745  0.015976 -0.010040 -0.023063
  0C   1dxz       0.042502  0.059754 -0.010590  0.098063 -0.062205 -0.002567
  0C   1dyz       0.001940  0.007213  0.064898  0.006924 -0.008393  0.049638
  0C   1dx2y2     0.013828  0.003334 -0.010400  0.021614 -0.001615  0.021727
  0C   1dxy      -0.053403 -0.026997 -0.010088 -0.093148  0.022830  0.002162
  1C   1s        -0.000014  0.000033 -0.000019 -0.000004 -0.000182 -0.010856
  1C   2s         0.000007 -0.000029  0.000123  0.000063  0.001054  0.003737
  1C   3s        -0.000586  0.001445 -0.000570 -0.001207 -0.006162  0.917108
  1C   1pz       -0.625761 -0.017355  0.022433  0.349167  0.093898  0.000756
  1C   1px        0.059065 -0.096402  0.237561 -0.015090 -0.067233 -0.000274
  1C   1py       -0.009651  0.609418  0.038590 -0.106735  0.362961  0.001009
  1C   2pz        0.907045  0.024638 -0.171814 -0.572995 -0.151584 -0.001945
  1C   2px       -0.083210  0.137436 -1.847980  0.023973  0.114730  0.001166
  1C   2py        0.014625 -0.880059 -0.298526  0.184318 -0.619584 -0.003407
  1C   1dz2      -0.000564 -0.004549  0.003158 -0.006117  0.013021  0.009728
  1C   1dxz      -0.004082 -0.028341  0.003132 -0.038940  0.080327 -0.002632
  1C   1dyz       0.001666 -0.004923 -0.020808  0.001149  0.016381 -0.000269
  1C   1dx2y2    -0.007526  0.003797  0.001033 -0.022226 -0.019090 -0.014888
  1C   1dxy       0.023843 -0.002870  0.002682  0.078452  0.034067 -0.004614
  2C   1s         0.000091  0.000036  0.166638  0.000066  0.000374 -0.166526
  2C   2s        -0.000352 -0.000255 -0.946273 -0.000763 -0.002713  1.145106
  2C   3s        -0.002108  0.001418  3.956406  0.001814  0.007059 -3.181253
  2C   1pz        0.450024  0.179281 -0.029751  0.082624  0.506735  0.037147
  2C   1px       -0.013321  0.047740 -0.321389 -0.063810 -0.118906  0.389981
  2C   1py       -0.173272 -0.402834 -0.050938  0.349982  0.449641  0.063335
  2C   2pz       -0.622904 -0.393522  0.009541 -0.047260 -0.967893 -0.054987
  2C   2px       -0.002661 -0.046088  0.079684  0.122627  0.209669 -0.579091
  2C   2py        0.376370  0.512423  0.012853 -0.735198 -0.755074 -0.092610
  2C   1dz2      -0.004258  0.009328 -0.011963 -0.003775 -0.015329 -0.008314
  2C   1dxz      -0.024933  0.056773 -0.008566 -0.022360 -0.093904  0.011520
  2C   1dyz      -0.009197  0.013059  0.065840 -0.009431 -0.023842 -0.048613
  2C   1dx2y2     0.020052 -0.018543  0.003407  0.021690  0.038450  0.027155
  2C   1dxy      -0.053434  0.039508 -0.005461 -0.059272 -0.089095  0.013386
  3H   1s        -0.329352  0.380649  0.379546 -0.186049 -0.403073 -0.267379
  3H   2s         0.315159 -0.366615 -1.285146  0.656904  1.389898  1.306327
  3H   1pz       -0.003793  0.015361  0.051232 -0.013029 -0.062839 -0.050984
  3H   1px       -0.056712  0.064257  0.025096 -0.016477 -0.035899 -0.011640
  3H   1py       -0.018016  0.011016  0.060071 -0.043354 -0.060901 -0.059292
  4H   1s         0.329894 -0.380729  0.381439  0.185646  0.403912 -0.264407
  4H   2s        -0.314785  0.366338 -1.286286 -0.658318 -1.394291  1.300022
  4H   1pz        0.006953  0.003304 -0.044195 -0.008574 -0.053768  0.046063
  4H   1px        0.059174 -0.066246  0.051220  0.031236  0.063641 -0.038002
  4H   1py        0.000500 -0.009809 -0.047960 -0.035772 -0.045300  0.051150
  5H   1s         0.369773  0.341830 -0.380207  0.404306 -0.184839 -0.265838
  5H   2s        -0.354093 -0.328868  1.285559 -1.405770  0.629037  1.302461
  5H   1pz       -0.007127 -0.014747  0.060016 -0.061549  0.041310  0.059848
  5H   1px       -0.066271 -0.057027  0.040428 -0.054389  0.020260  0.027183
  5H   1py       -0.001920 -0.011254 -0.040386  0.049062 -0.005365 -0.043463
  6H   1s        -0.370835 -0.340762 -0.380918 -0.402295  0.188155 -0.265698
  6H   2s         0.354098  0.328625  1.286319  1.401059 -0.636263  1.303413
  6H   1pz        0.005141 -0.003767 -0.052803 -0.051542  0.037546 -0.054912
  6H   1px        0.063431  0.059534  0.035796  0.046338 -0.024405  0.022382
  6H   1py        0.019340  0.007897  0.052985  0.065552 -0.013255  0.051985
                     30        31        32        33        34        35   
                   0.65408   0.66033   0.68922   0.70707   0.89345   1.01387
                   0.00000   0.00000   0.00000   0.00000   0.00000   0.00000
                  --------  --------  --------  --------  --------  --------
  0C   1s        -0.000329 -0.000184 -0.088725 -0.055174 -0.163146  0.000166
  0C   2s         0.002626  0.001387  0.931531  0.000003  1.399131 -0.001612
  0C   3s        -0.012865 -0.010250 -5.931048 -6.193190  8.903249  0.006182
  0C   1pz       -0.317152  0.285754  0.035145  0.047966  0.053646  0.001216
  0C   1px       -0.009792  0.015608  0.378965  0.523501  0.581932  0.000216
  0C   1py        0.244112 -0.261203  0.061123  0.084142  0.093801 -0.000790
  0C   2pz        1.415811 -2.023630 -0.263739 -0.278841  0.309917 -0.002200
  0C   2px        0.152145  0.008735 -2.880853 -3.035323  3.398329 -0.000473
  0C   2py       -1.784444  1.076674 -0.460051 -0.488683  0.546664  0.001757
  0C   1dz2       0.017196 -0.003427  0.030504  0.074992 -0.011861  0.279525
  0C   1dxz       0.101377 -0.016556  0.002113 -0.022020 -0.000363 -0.040950
  0C   1dyz       0.017232  0.007314 -0.061667 -0.012002  0.021624  0.057687
  0C   1dx2y2    -0.010092 -0.033170 -0.029406 -0.122534  0.012957  0.157559
  0C   1dxy       0.002160  0.102953 -0.004001 -0.039692  0.002333  0.047087
  1C   1s         0.000596  0.000377  0.201781  0.000384  0.000023 -0.000066
  1C   2s        -0.003629 -0.002316 -1.308831 -0.002423 -0.000184  0.000600
  1C   3s         0.023720  0.015940 11.348428  0.022256 -0.002021 -0.004216
  1C   1pz        0.031972 -0.368537  0.000387  0.099240 -0.011200 -0.000257
  1C   1px        0.056230  0.037720 -0.002248  1.085923 -0.120940 -0.000040
  1C   1py       -0.369985 -0.026177  0.000819  0.174263 -0.019486  0.000391
  1C   2pz       -0.163517  1.933589 -0.002192 -0.662130  1.043988  0.001065
  1C   2px       -0.288122 -0.200927  0.014591 -7.241005 11.379028  0.000180
  1C   2py        1.889338  0.136744 -0.004478 -1.162344  1.829081 -0.001549
  1C   1dz2      -0.014556  0.001008 -0.066301  0.001121 -0.005136  0.159191
  1C   1dxz      -0.091855  0.009707  0.021187  0.001272 -0.004940 -0.019458
  1C   1dyz      -0.015367 -0.007463  0.003540 -0.008405  0.034202  0.028973
  1C   1dx2y2     0.011069  0.030413  0.112073  0.000697 -0.001895  0.089465
  1C   1dxy      -0.004845 -0.094375  0.037148  0.001083 -0.003906  0.025570
  2C   1s        -0.000339 -0.000219 -0.088897  0.054823  0.163155  0.000167
  2C   2s         0.002769  0.002000  0.931326  0.003534 -1.399150 -0.001619
  2C   3s        -0.013300 -0.007100 -5.952603  6.169795 -8.900850  0.006141
  2C   1pz        0.271206  0.237515 -0.035716  0.047994  0.053482 -0.000661
  2C   1px       -0.071881 -0.070922 -0.380831  0.521951  0.582018 -0.000132
  2C   1py        0.285085  0.298027 -0.061951  0.084055  0.093488 -0.000048
  2C   2pz       -1.091539 -1.814302  0.270020 -0.278052  0.308300  0.000489
  2C   2px        0.420670  0.386720  2.889919 -3.024258  3.398473  0.000255
  2C   2py       -1.958685 -1.348539  0.471183 -0.486561  0.542726  0.000696
  2C   1dz2       0.016541 -0.000170  0.012458 -0.072442  0.005510  0.281678
  2C   1dxz       0.100796 -0.004626 -0.015642  0.024335 -0.005702 -0.038519
  2C   1dyz       0.017409  0.009519  0.060031 -0.004379  0.020823  0.043495
  2C   1dx2y2    -0.012702 -0.033873 -0.036513  0.123326 -0.015400  0.158465
  2C   1dxy       0.008957  0.103843 -0.018189  0.041423 -0.006977  0.048157
  3H   1s         0.383623  0.397807  0.203948  0.043097  0.011751 -0.000245
  3H   2s         0.837641  0.824181 -0.020502 -0.052201  0.252932 -0.002277
  3H   1pz       -0.005732 -0.068343  0.005049 -0.017993 -0.007123  0.254375
  3H   1px        0.022571  0.020613 -0.014532  0.056724 -0.027850  0.011412
  3H   1py       -0.068758 -0.012301  0.005147 -0.017532 -0.009239 -0.221234
  4H   1s        -0.383127 -0.396620  0.207609  0.042529  0.010091 -0.000596
  4H   2s        -0.837355 -0.825007 -0.014602 -0.053808  0.250723 -0.001118
  4H   1pz       -0.008039 -0.071136 -0.007346  0.027094  0.001546 -0.255766
  4H   1px        0.001262 -0.003515 -0.011086  0.044345 -0.030340 -0.011910
  4H   1py       -0.071702 -0.016071 -0.008834  0.033678 -0.000114  0.222714
  5H   1s         0.383243 -0.397424  0.205486 -0.042185 -0.011167  0.000079
  5H   2s         0.839040 -0.823235 -0.018034  0.053014 -0.252409 -0.003650
  5H   1pz        0.017624 -0.069392 -0.005802 -0.022142 -0.007942 -0.213982
  5H   1px       -0.001390  0.017564  0.012227  0.049474 -0.029169  0.062665
  5H   1py       -0.071033  0.006531  0.008333  0.030204 -0.000935 -0.254136
  6H   1s        -0.383890  0.396419  0.206295 -0.042067 -0.010633 -0.000923
  6H   2s        -0.837318  0.825076 -0.016988  0.053066 -0.251557  0.000256
  6H   1pz        0.020137 -0.073281  0.008634  0.031242  0.002214  0.213694
  6H   1px        0.019536 -0.006262  0.012808  0.051694 -0.028914 -0.062424
  6H   1py       -0.065898  0.001761 -0.003574 -0.014118 -0.008788  0.255221
                     36        37        38        39        40        41   
                   1.03180   1.28836   1.29380   1.38992   1.43063   1.43123
                   0.00000   0.00000   0.00000   0.00000   0.00000   0.00000
                  --------  --------  --------  --------  --------  --------
  0C   1s        -0.000046  0.000119  0.000110  0.016669 -0.000025  0.000006
  0C   2s         0.000496 -0.001262 -0.001283 -0.134010  0.000056  0.000150
  0C   3s         0.019223  0.010258  0.008179  1.824952  0.003327 -0.002873
  0C   1pz       -0.000754  0.049847  0.052540  0.005013  0.105070  0.098084
  0C   1px        0.000772 -0.014520 -0.013934  0.054953  0.003082  0.005414
  0C   1py        0.001061  0.061243  0.056336  0.008715 -0.078419 -0.089951
  0C   2pz        0.001471 -0.851448  0.255523  0.006421 -1.180618 -0.906869
  0C   2px        0.004751  0.056334  0.102235  0.083321 -0.003114 -0.083168
  0C   2py       -0.000233  0.129386 -0.791067  0.012234  0.698045  1.030151
  0C   1dz2      -0.272664 -0.031065 -0.037868  0.047199  0.010543  0.028670
  0C   1dxz       0.039553 -0.198195 -0.228396  0.044522  0.061936  0.173196
  0C   1dyz      -0.057540 -0.059205 -0.061886 -0.299026 -0.005148  0.025469
  0C   1dx2y2    -0.153240  0.106648  0.099395  0.023658  0.047304 -0.004707
  0C   1dxy      -0.046669 -0.260828 -0.234108  0.037927 -0.158744 -0.034964
  1C   1s         0.000000 -0.000069 -0.000135 -0.000007  0.000002 -0.000001
  1C   2s        -0.000001  0.000611  0.001183  0.000054  0.000025 -0.000067
  1C   3s        -0.000002 -0.000724 -0.001331 -0.000141 -0.001116  0.001981
  1C   1pz        0.000330 -0.026176  0.002043 -0.017009 -0.007017 -0.000681
  1C   1px       -0.000597  0.001786  0.003171 -0.184997  0.000862 -0.001148
  1C   1py       -0.000255 -0.001971 -0.024003 -0.029766 -0.000514  0.007039
  1C   2pz        0.000640  0.961111 -0.080491  0.144635  0.799476  0.072799
  1C   2px        0.018907 -0.093134 -0.139570  1.574526 -0.080950  0.116823
  1C   2py        0.003473  0.068846  0.934778  0.253203  0.062573 -0.775122
  1C   1dz2       0.000485 -0.004944  0.066437  0.105394 -0.001896 -0.026992
  1C   1dxz      -0.000577 -0.041982  0.420813  0.100781 -0.015687 -0.171718
  1C   1dyz      -0.004535  0.031682  0.070100 -0.702286  0.013825 -0.029037
  1C   1dx2y2    -0.000265 -0.131349 -0.049184  0.039431 -0.052739  0.019697
  1C   1dxy       0.002429  0.410037  0.022700  0.078386  0.164096 -0.008008
  2C   1s         0.000046 -0.000054  0.000014 -0.016657  0.000035 -0.000026
  2C   2s        -0.000498  0.000397 -0.000369  0.133936 -0.000330  0.000351
  2C   3s        -0.019215 -0.006371 -0.000850 -1.824647 -0.001288 -0.000818
  2C   1pz        0.000226  0.059705 -0.061565  0.005167  0.091553 -0.080123
  2C   1px        0.000933  0.003037 -0.002139  0.054892 -0.023348  0.023554
  2C   1py       -0.000505 -0.053496  0.048293  0.009028  0.093759 -0.101208
  2C   2pz        0.000568 -0.818808 -0.116588  0.006685 -1.057376  0.703472
  2C   2px        0.004592  0.115294  0.143148  0.083294  0.237299 -0.246114
  2C   2py        0.001276 -0.247596 -0.816798  0.013113 -0.872091  1.132053
  2C   1dz2       0.275493  0.039150 -0.043601  0.043201 -0.005665  0.026691
  2C   1dxz      -0.034840  0.249552 -0.274225  0.043144 -0.031329  0.163850
  2C   1dyz       0.041560  0.017088 -0.024603 -0.301153 -0.020906  0.031447
  2C   1dx2y2     0.155146  0.053839 -0.042127  0.008787  0.057329 -0.032569
  2C   1dxy       0.044796 -0.236794  0.206707  0.032540 -0.164810  0.051169
  3H   1s         0.000614  0.211376  0.206189  0.192351  0.409800 -0.401653
  3H   2s         0.001663  0.181998  0.168845  0.228078  0.427858 -0.415587
  3H   1pz        0.272172  0.125987 -0.200303  0.028112  0.246135 -0.145009
  3H   1px        0.012559  0.209690  0.197669  0.185563 -0.344200  0.341488
  3H   1py       -0.236591 -0.172754  0.111869  0.048492  0.166789 -0.250144
  4H   1s         0.000153 -0.210381 -0.206809  0.192864 -0.409942  0.402071
  4H   2s         0.002502 -0.180124 -0.169538  0.226701 -0.427706  0.415985
  4H   1pz       -0.270368  0.093004 -0.235545  0.007570  0.299869 -0.197090
  4H   1px       -0.012283 -0.163915 -0.184313  0.195961  0.225906 -0.215572
  4H   1py        0.235433 -0.233086  0.049962  0.013461  0.256954 -0.338337
  5H   1s        -0.001141 -0.212147  0.205252 -0.192586 -0.403954 -0.407688
  5H   2s        -0.000797 -0.183175  0.167196 -0.227614 -0.421855 -0.421675
  5H   1pz        0.227924  0.089197  0.183811  0.030939  0.275015  0.196407
  5H   1px       -0.066306  0.146414 -0.226547  0.191880 -0.281320 -0.259294
  5H   1py        0.270753  0.245788  0.081167  0.014562 -0.214317 -0.317004
  6H   1s         0.000377  0.209455 -0.207886 -0.192770  0.403611  0.408186
  6H   2s        -0.003373  0.178780 -0.171281 -0.227255  0.421036  0.422523
  6H   1pz       -0.226808  0.057821  0.219076  0.004376  0.330444  0.251636
  6H   1px        0.066453 -0.227350  0.156088  0.189916  0.279179  0.305030
  6H   1py       -0.270713  0.186328  0.140064  0.046805 -0.119785 -0.221466
                     42        43        44        45        46        47   
                   1.47400   1.51180   1.57878   1.58213   1.63772   1.79911
                   0.00000   0.00000   0.00000   0.00000   0.00000   0.00000
                  --------  --------  --------  --------  --------  --------
  0C   1s         0.002164 -0.024941  0.000012  0.000104  0.039724 -0.062147
  0C   2s        -0.014193  0.119711 -0.002166 -0.001970 -0.229130  0.721281
  0C   3s        -0.039566  0.970147  0.028210  0.021775 -0.852525 -2.729300
  0C   1pz        0.000729 -0.004373 -0.062548 -0.128149 -0.007780  0.001196
  0C   1px        0.004020 -0.057391  0.027794  0.026222 -0.098574  0.008383
  0C   1py        0.000221 -0.008174 -0.137541 -0.087268 -0.014622  0.000523
  0C   2pz       -0.008051  0.120754 -0.143817 -0.271837 -0.089137 -0.136750
  0C   2px       -0.084130  1.282824  0.080184  0.066251 -0.986628 -1.500023
  0C   2py       -0.014160  0.210477 -0.305418 -0.196455 -0.157012 -0.241961
  0C   1dz2       0.124908 -0.118541  0.022033 -0.026317  0.084433  0.204780
  0C   1dxz      -0.012970 -0.026250  0.147596 -0.160712 -0.007851 -0.126970
  0C   1dyz      -0.003571  0.331455  0.012133 -0.014394 -0.094572  0.291129
  0C   1dx2y2     0.060187  0.105696  0.034802 -0.024029 -0.100653 -0.442728
  0C   1dxy       0.019294  0.003298 -0.141942  0.122600 -0.025029 -0.181725
  1C   1s        -0.004716  0.068264  0.000766  0.000395 -0.000012 -0.058774
  1C   2s         0.036895 -0.528220 -0.005687 -0.002929  0.000130  0.510390
  1C   3s         0.150196 -2.610536 -0.044172 -0.023129  0.000698  4.491930
  1C   1pz       -0.000087 -0.000271 -0.009332  0.104951 -0.042747  0.001132
  1C   1px       -0.000016  0.000079 -0.016406 -0.011706 -0.461676 -0.000539
  1C   1py        0.000177 -0.000634  0.104740  0.007492 -0.074456  0.002678
  1C   2pz       -0.000675 -0.000849 -0.021968  0.241927 -0.078878  0.000198
  1C   2px       -0.000162  0.000599 -0.034158 -0.016401 -0.854128 -0.000175
  1C   2py        0.001172 -0.002042  0.253684  0.018953 -0.137639  0.000557
  1C   1dz2       0.760604  0.029624 -0.066539  0.005092 -0.082791  0.133831
  1C   1dxz      -0.103139  0.005793 -0.405178  0.039146 -0.079350 -0.042451
  1C   1dyz       0.137164  0.012606 -0.065852 -0.026657  0.551436 -0.006065
  1C   1dx2y2     0.424403  0.077018  0.046402  0.128048 -0.030829 -0.214126
  1C   1dxy       0.125328  0.027507 -0.021417 -0.397373 -0.061931 -0.071497
  2C   1s         0.002164 -0.024944 -0.000105 -0.000139 -0.039714 -0.062144
  2C   2s        -0.014197  0.119744 -0.001139  0.000112  0.229105  0.721237
  2C   3s        -0.039484  0.969629  0.018276  0.002732  0.851836 -2.728965
  2C   1pz       -0.000377  0.004984  0.086064 -0.141161 -0.008246 -0.002507
  2C   1px       -0.003953  0.057120  0.013265  0.002850 -0.098321 -0.007843
  2C   1py       -0.000856  0.009545 -0.127306  0.067862 -0.015756 -0.003439
  2C   2pz        0.008759 -0.118324  0.196416 -0.303164 -0.089792  0.135221
  2C   2px        0.084300 -1.283965  0.011010 -0.005560 -0.985791  1.500533
  2C   2py        0.012643 -0.204528 -0.287377  0.154807 -0.158740  0.238365
  2C   1dz2       0.117375 -0.020282  0.018027  0.021757 -0.056795  0.297383
  2C   1dxz      -0.020880  0.067604  0.116892  0.135118  0.033961 -0.034332
  2C   1dyz       0.045499 -0.323630  0.031463  0.033489 -0.090036 -0.318598
  2C   1dx2y2     0.057089  0.142600 -0.061003 -0.057882  0.111322 -0.412777
  2C   1dxy       0.015044  0.076102  0.157152  0.139716  0.044685 -0.101666
  3H   1s        -0.018069  0.211596 -0.082190 -0.081691  0.107684  0.047065
  3H   2s        -0.010668  0.099467  0.131149  0.129541  0.035309 -0.011910
  3H   1pz       -0.166208  0.020608 -0.368233  0.282877 -0.010842  0.148785
  3H   1px       -0.035685  0.402656 -0.184241 -0.152601  0.429199 -0.090641
  3H   1py        0.137443  0.069143  0.224967 -0.342740  0.007224  0.168704
  4H   1s        -0.017580  0.208337  0.084986  0.084713  0.106696  0.047663
  4H   2s        -0.010802  0.102855 -0.130407 -0.127947  0.036136 -0.018715
  4H   1pz        0.159526  0.055031 -0.335238  0.316457  0.085040 -0.157607
  4H   1px       -0.020088  0.395486  0.176931  0.205395  0.399442  0.002833
  4H   1py       -0.145126  0.057470  0.283393 -0.285121  0.128198 -0.185940
  5H   1s        -0.018252  0.210442 -0.083692  0.082093 -0.107391  0.047266
  5H   2s        -0.010665  0.100534  0.130892 -0.129112 -0.035595 -0.014269
  5H   1pz        0.139599 -0.023314  0.319555  0.226415 -0.022501 -0.179101
  5H   1px       -0.011216 -0.401824  0.102045 -0.258448  0.412300  0.037733
  5H   1py        0.167204 -0.060000  0.326907  0.325255  0.116466  0.159774
  6H   1s        -0.017385  0.209421  0.084195 -0.083542 -0.107040  0.047429
  6H   2s        -0.010788  0.101703 -0.131941  0.127298 -0.035882 -0.016425
  6H   1pz       -0.133735 -0.055850  0.286488  0.259738  0.093142  0.185225
  6H   1px        0.066732 -0.394397 -0.260804  0.098041  0.418304  0.051419
  6H   1py       -0.157595 -0.075190  0.268163  0.382343  0.010071 -0.149279
                     48        49        50        51        52        53   
                   1.87749   1.87813   1.88542   2.02688   2.12963   2.14227
                   0.00000   0.00000   0.00000   0.00000   0.00000   0.00000
                  --------  --------  --------  --------  --------  --------
  0C   1s         0.002451  0.000944  0.021356 -0.000864 -0.028698 -0.002056
  0C   2s        -0.026834 -0.010057 -0.239531  0.006623  0.263344  0.017093
  0C   3s         0.195043  0.084023  1.663583 -0.007421 -1.228525 -0.053834
  0C   1pz        0.152520 -0.245620  0.029949  0.001009 -0.034826 -0.005518
  0C   1px        0.062669  0.023543  0.351007 -0.005163 -0.358100 -0.017710
  0C   1py       -0.199832  0.132990  0.075666 -0.002125 -0.058054  0.000170
  0C   2pz        0.134411 -0.242970  0.098297 -0.003138 -0.106714 -0.005071
  0C   2px        0.144177  0.057874  1.056238 -0.007942 -1.143918 -0.052379
  0C   2py       -0.189324  0.120795  0.190342  0.000567 -0.184845 -0.008524
  0C   1dz2       0.075222  0.006506 -0.090328  0.597843 -0.163023 -0.595674
  0C   1dxz       0.510395  0.063640  0.031609 -0.087934  0.025394  0.085227
  0C   1dyz       0.062703  0.040543 -0.351561  0.126808  0.171168 -0.116322
  0C   1dx2y2    -0.083760 -0.163193  0.297409  0.333550  0.276008 -0.320464
  0C   1dxy       0.211276  0.508732  0.070697  0.098141  0.076643 -0.097537
  1C   1s        -0.000331 -0.000557  0.000071 -0.000000 -0.000017  0.000074
  1C   2s         0.003154  0.005339 -0.000742  0.000002 -0.162013 -0.007034
  1C   3s         0.013399  0.022514 -0.002905 -0.000008  3.464364  0.156318
  1C   1pz       -0.278295  0.045646  0.076015  0.001228 -0.000394 -0.000745
  1C   1px        0.088902  0.068961  0.482438 -0.004440  0.000189 -0.000105
  1C   1py       -0.027409 -0.276420  0.099115 -0.001411 -0.001085  0.001078
  1C   2pz       -0.007111  0.013393  0.154501  0.000634  0.000168 -0.000608
  1C   2px        0.207561  0.103895  1.670569 -0.009949 -0.000212 -0.000107
  1C   2py        0.029178 -0.014647  0.269759 -0.002225  0.000289  0.000941
  1C   1dz2      -0.005917 -0.005150 -0.052784  0.002294 -0.209693  0.344862
  1C   1dxz      -0.005085 -0.033730 -0.048534  0.003188  0.060437 -0.048356
  1C   1dyz       0.040161  0.016165  0.353320 -0.014651  0.006658  0.063943
  1C   1dx2y2     0.005191 -0.000286 -0.021131  0.001192  0.319259  0.212452
  1C   1dxy      -0.034255 -0.002648 -0.034803  0.000060  0.103439  0.064560
  2C   1s        -0.002859 -0.001639 -0.021273  0.000863 -0.028705 -0.002057
  2C   2s         0.031787  0.018455  0.238583 -0.006616  0.263491  0.017107
  2C   3s        -0.212830 -0.114002 -1.659804  0.007420 -1.228137 -0.053811
  2C   1pz        0.139977  0.207973  0.003808 -0.000110  0.036080  0.003082
  2C   1px       -0.009518 -0.020390  0.362724 -0.005337  0.357599  0.017271
  2C   1py        0.249020  0.134841  0.018944 -0.000414  0.060499  0.003976
  2C   2pz        0.123450  0.219185  0.072100 -0.001629  0.106837  0.005373
  2C   2px        0.083497  0.032337  1.065383 -0.007708  1.143783  0.052385
  2C   2py        0.260195  0.126319  0.134592 -0.001789  0.185189  0.008286
  2C   1dz2      -0.059957  0.049419  0.191164 -0.603356 -0.115457 -0.599564
  2C   1dxz      -0.511651  0.230241  0.053364  0.083061  0.070782  0.077210
  2C   1dyz      -0.119645 -0.034154 -0.346350 -0.088954 -0.146232 -0.097031
  2C   1dx2y2    -0.008442  0.127643 -0.245499 -0.335344  0.294338 -0.323721
  2C   1dxy       0.076720 -0.510339 -0.024582 -0.103409  0.110600 -0.091911
  3H   1s        -0.021747 -0.019805 -0.016413  0.002012 -0.072532 -0.005650
  3H   2s        -0.285146 -0.243331 -0.088261  0.003561 -0.282845 -0.014861
  3H   1pz        0.346798 -0.104303  0.224892  0.310748  0.274816  0.303501
  3H   1px        0.281089  0.231860 -0.203460  0.013840 -0.358554 -0.000046
  3H   1py        0.019474  0.345779  0.258987 -0.278852  0.322928 -0.233016
  4H   1s         0.018113  0.017829 -0.024354  0.001822 -0.069239 -0.004496
  4H   2s         0.254321  0.228643 -0.179658  0.002981 -0.277760 -0.013536
  4H   1pz        0.223358 -0.185887 -0.293118 -0.313356 -0.322251 -0.301817
  4H   1px       -0.331737 -0.305279  0.044772 -0.017712 -0.192803 -0.019656
  4H   1py       -0.149436  0.223208 -0.303926  0.281074 -0.407196  0.229783
  5H   1s         0.019332 -0.020563  0.019390 -0.002163 -0.071355 -0.006487
  5H   2s         0.255935 -0.261745  0.120937 -0.004075 -0.281023 -0.015671
  5H   1pz        0.343432  0.044267  0.263701  0.260544 -0.332190 -0.260889
  5H   1px        0.224005 -0.367377 -0.077884 -0.078799  0.255662  0.076556
  5H   1py        0.153149  0.219365 -0.299454  0.318608  0.363240 -0.267948
  6H   1s        -0.015940  0.022123  0.021477 -0.001674 -0.070391 -0.003653
  6H   2s        -0.224550  0.277414  0.146891 -0.002460 -0.279486 -0.012721
  6H   1pz        0.215513  0.069926 -0.354711 -0.259855  0.382226  0.257599
  6H   1px       -0.339220  0.254498 -0.070427  0.075413  0.294428 -0.057196
  6H   1py        0.117635  0.351205  0.204804 -0.321361 -0.273063  0.274216
                     54        55        56        57        58        59   
                   2.33952   2.34452   2.38589   2.65648   2.73440   2.95257
                   0.00000   0.00000   0.00000   0.00000   0.00000   0.00000
                  --------  --------  --------  --------  --------  --------
  0C   1s        -0.000554 -0.001247  0.099020 -0.161656  0.127793 -0.000195
  0C   2s         0.002310  0.006092 -0.504465  0.948206 -0.854587  0.001164
  0C   3s         0.006249  0.001739  0.371193  1.378076 -1.862021 -0.001041
  0C   1pz       -0.577583  0.487368  0.005439 -0.032407  0.046104  0.449982
  0C   1px       -0.009458  0.035137  0.020362 -0.337545  0.483319 -0.000430
  0C   1py        0.397228 -0.489806  0.000383 -0.056663  0.079533 -0.260990
  0C   2pz       -0.431292  0.420109  0.046414  0.018194 -0.032593  0.398559
  0C   2px       -0.012580  0.018222  0.469074  0.205636 -0.363228 -0.001334
  0C   2py        0.353501 -0.353856  0.073678  0.032005 -0.057644 -0.230240
  0C   1dz2      -0.011260 -0.081760  0.343694  0.157138 -0.324661 -0.089607
  0C   1dxz      -0.092626 -0.445100 -0.143199  0.104680 -0.054200 -0.556474
  0C   1dyz      -0.059734 -0.094190  0.118505 -0.777217  0.799693 -0.012304
  0C   1dx2y2     0.165746  0.106686 -0.621945  0.016258  0.266699 -0.222650
  0C   1dxy      -0.449221 -0.173421 -0.225402  0.082057  0.011073  0.829496
  1C   1s         0.000154  0.000085  0.000008  0.049544  0.000032 -0.000029
  1C   2s        -0.000499 -0.000285  0.000089 -0.194792 -0.000174  0.000180
  1C   3s        -0.017313 -0.009171 -0.000625 -1.507521 -0.000657  0.001474
  1C   1pz       -0.004683  0.062079 -0.080469 -0.000062  0.029064  0.112699
  1C   1px       -0.003413  0.005704 -0.892033 -0.000104  0.316423 -0.011708
  1C   1py        0.059459  0.006423 -0.142580 -0.000132  0.050880  0.008067
  1C   2pz        0.009536 -0.116039  0.094771  0.000197 -0.144404 -0.242589
  1C   2px        0.012637  0.001984  1.054496  0.000831 -1.577147  0.023300
  1C   2py       -0.111745 -0.009986  0.168374  0.000384 -0.253333 -0.017774
  1C   1dz2      -0.111881  0.010431  0.005507  0.127147  0.028877 -0.009977
  1C   1dxz      -0.692830  0.067731  0.002829 -0.040914  0.027773 -0.073534
  1C   1dyz      -0.116704 -0.053658 -0.040724 -0.007389 -0.191292  0.058328
  1C   1dx2y2     0.076881  0.218637  0.005067 -0.223318  0.010273 -0.233588
  1C   1dxy      -0.036673 -0.681108 -0.003658 -0.073592  0.022137  0.727894
  2C   1s         0.000592  0.001250 -0.099023 -0.161501 -0.128005  0.000059
  2C   2s        -0.003537 -0.006638  0.504482  0.947207  0.855906 -0.000292
  2C   3s         0.007648  0.005701 -0.370646  1.375869  1.863386  0.000536
  2C   1pz        0.500352  0.400098  0.009914  0.030651  0.045348  0.400834
  2C   1px       -0.122288 -0.125927  0.018008  0.337816  0.484050 -0.088586
  2C   1py        0.470050  0.554893  0.012489  0.052607  0.077687  0.322280
  2C   2pz        0.363344  0.355745  0.049736 -0.018909 -0.032925  0.355201
  2C   2px       -0.105893 -0.104958  0.467034 -0.204913 -0.363273 -0.078599
  2C   2py        0.405607  0.409614  0.082602 -0.033637 -0.058427  0.284306
  2C   1dz2      -0.023563  0.082163 -0.385858 -0.077566  0.086131  0.064303
  2C   1dxz      -0.187725  0.476293  0.101186 -0.122169 -0.175560  0.383892
  2C   1dyz       0.012072  0.064324  0.159505  0.780838  0.787364  0.147617
  2C   1dx2y2    -0.129028 -0.013434  0.608299 -0.068249 -0.354240 -0.328960
  2C   1dxy       0.436436 -0.124901  0.188683 -0.099202 -0.192639  0.883007
  3H   1s        -0.412361 -0.412859 -0.226698 -0.660598 -0.631138 -0.586958
  3H   2s        -0.370106 -0.366139 -0.206359 -0.268932 -0.259578 -0.201151
  3H   1pz        0.382205  0.238455  0.288665  0.420412  0.370115  0.374754
  3H   1px        0.273592  0.263140 -0.173173  0.364706  0.406413  0.061352
  3H   1py        0.311788  0.434133  0.322418  0.503837  0.445646  0.384261
  4H   1s         0.415008  0.417809 -0.210755 -0.662664 -0.629974  0.587624
  4H   2s         0.374050  0.371506 -0.193265 -0.269705 -0.259382  0.201300
  4H   1pz        0.325288  0.182973 -0.296604 -0.334826 -0.277560  0.346548
  4H   1px       -0.417764 -0.421743 -0.025385  0.572552  0.582763 -0.243001
  4H   1py        0.205929  0.333372 -0.341443 -0.356221 -0.287104  0.336871
  5H   1s        -0.416762  0.410817  0.221645 -0.662042  0.629883  0.584148
  5H   2s        -0.374122  0.365124  0.202235 -0.269534  0.259220  0.200076
  5H   1pz       -0.426810  0.299467  0.338349 -0.491712  0.429263  0.430781
  5H   1px       -0.345420  0.370505 -0.081112 -0.487241  0.509461  0.161771
  5H   1py        0.152641 -0.291452 -0.303895  0.294637 -0.234671 -0.277820
  6H   1s         0.415134 -0.415327  0.215774 -0.662630  0.629485 -0.586465
  6H   2s         0.374100 -0.368502  0.197426 -0.269752  0.259141 -0.201048
  6H   1pz       -0.363679  0.243773 -0.352707  0.402815 -0.335029  0.402840
  6H   1px        0.348657 -0.308490 -0.114165 -0.449683  0.477718 -0.140669
  6H   1py        0.262482 -0.404987  0.267439 -0.449944  0.397314 -0.331077
                     60        61   
                   2.96108   3.07585
                   0.00000   0.00000
                  --------  --------
  0C   1s        -0.000186  0.111513
  0C   2s         0.001153 -0.730203
  0C   3s        -0.000988 -0.447783
  0C   1pz       -0.338487 -0.081373
  0C   1px       -0.033026 -0.885000
  0C   1py        0.390653 -0.142727
  0C   2pz       -0.293054 -0.032201
  0C   2px       -0.030011 -0.349243
  0C   2py        0.341809 -0.056326
  0C   1dz2       0.151441  0.456762
  0C   1dxz       0.933016 -0.116468
  0C   1dyz       0.113882 -0.162712
  0C   1dx2y2     0.043374 -0.713508
  0C   1dxy      -0.400189 -0.222490
  1C   1s        -0.000054 -0.226666
  1C   2s         0.000340  1.317604
  1C   3s         0.002818  1.315815
  1C   1pz       -0.009659 -0.000060
  1C   1px       -0.016692 -0.000239
  1C   1py        0.109081 -0.000123
  1C   2pz        0.020358 -0.000109
  1C   2px        0.034510 -0.000091
  1C   2py       -0.232506 -0.000245
  1C   1dz2       0.119320 -0.792544
  1C   1dxz       0.749364  0.248659
  1C   1dyz       0.126250  0.039805
  1C   1dx2y2    -0.085753  1.324115
  1C   1dxy       0.039700  0.436418
  2C   1s        -0.000065  0.111481
  2C   2s         0.000467 -0.729752
  2C   3s        -0.000041 -0.447537
  2C   1pz        0.266040  0.080954
  2C   1px       -0.093216  0.884981
  2C   1py        0.432634  0.141763
  2C   2pz        0.229566  0.032109
  2C   2px       -0.081022  0.349224
  2C   2py        0.378209  0.056104
  2C   1dz2       0.136397  0.414292
  2C   1dxz       0.839618 -0.157013
  2C   1dyz       0.185109  0.120062
  2C   1dx2y2    -0.244827 -0.729331
  2C   1dxy       0.494638 -0.253963
  3H   1s        -0.584202 -0.084021
  3H   2s        -0.196126 -0.048814
  3H   1pz        0.325696  0.015321
  3H   1px        0.056900  0.166393
  3H   1py        0.424744  0.026774
  4H   1s         0.583401 -0.084299
  4H   2s         0.195642 -0.048742
  4H   1pz        0.296960  0.015041
  4H   1px       -0.242116  0.166588
  4H   1py        0.376756  0.026237
  5H   1s        -0.586878 -0.084035
  5H   2s        -0.197070 -0.048772
  5H   1pz       -0.393587 -0.015539
  5H   1px       -0.172248 -0.166362
  5H   1py        0.328551 -0.026829
  6H   1s         0.584614 -0.084117
  6H   2s         0.196038 -0.048753
  6H   1pz       -0.361738 -0.015275
  6H   1px        0.127382 -0.166343
  6H   1py        0.377804 -0.027244
--------------
SCF ITERATIONS
--------------
               ***  Starting incremental Fock matrix formation  ***

                         ----------------------------
                         !        ITERATION     0   !
                         ----------------------------
   Total Energy        :    -116.469253694518 Eh
   Energy Change       :    -116.469253694518 Eh
   MAX-DP              :       0.059751824881
   RMS-DP              :       0.003088888414
   Actual Damping      :       0.7000
   Actual Level Shift  :       0.2500 Eh
[...]
                  6          7          8          9         10         11    
      0      -0.000183  -0.000037  -0.000021  -0.000045  -0.000022  -0.000016
      1      -0.000037   0.000041  -0.000003  -0.000022   0.000000  -0.000007
      2      -0.000021  -0.000003   0.000045  -0.000016  -0.000007   0.000004
      3      -0.000992  -0.000257  -0.000147  -0.000191  -0.000182  -0.000141
      4      -0.000257   0.000565  -0.000024  -0.000182   0.000008  -0.000083
      5      -0.000147  -0.000024   0.000593  -0.000141  -0.000083   0.000052
      6       0.000699   0.000101  -0.000050   0.000592  -0.000501  -0.000414
      7       0.000101  -0.000711   0.001387  -0.000501  -0.000157  -0.000827
      8      -0.000050   0.001387  -0.001168  -0.000414  -0.000827   0.000159
      9       0.000592  -0.000501  -0.000414  -0.000396   0.000682   0.000551
     10      -0.000501  -0.000157  -0.000827   0.000682   0.000203   0.001010
     11      -0.000414  -0.000827   0.000159   0.000551   0.001010  -0.000188
     12      -0.000015   0.000714   0.000644   0.000046   0.000026   0.000022
     13       0.000714   0.000250  -0.000536   0.000026  -0.000055  -0.000092
     14       0.000644  -0.000536   0.000360   0.000022  -0.000092  -0.000027
     15      -0.000052   0.000002  -0.000019  -0.000003  -0.000001  -0.000002
     16       0.000002   0.000009   0.000001  -0.000001   0.000000  -0.000000
     17      -0.000019   0.000001   0.000003  -0.000002  -0.000000  -0.000000
     18      -0.000050  -0.000021   0.000008  -0.000003  -0.000002  -0.000000
     19      -0.000021   0.000002   0.000003  -0.000002  -0.000001  -0.000000
     20       0.000008   0.000003   0.000008  -0.000000  -0.000000   0.000000
                 12         13         14         15         16         17    
      0      -0.000057   0.000004   0.000006   0.000275   0.000492  -0.000731
      1       0.000004   0.000009  -0.000000   0.000492   0.000417   0.000633
      2       0.000006  -0.000000   0.000009  -0.000731   0.000633  -0.000097
      3      -0.000326   0.000088   0.000094  -0.000268   0.000063  -0.000180
      4       0.000088   0.000099  -0.000019   0.000063   0.000106   0.000029
      5       0.000094  -0.000019   0.000096  -0.000180   0.000029   0.000031
      6      -0.000015   0.000714   0.000644  -0.000052   0.000002  -0.000019
      7       0.000714   0.000250  -0.000536   0.000002   0.000009   0.000001
      8       0.000644  -0.000536   0.000360  -0.000019   0.000001   0.000003
      9       0.000046   0.000026   0.000022  -0.000003  -0.000001  -0.000002
     10       0.000026  -0.000055  -0.000092  -0.000001   0.000000  -0.000000
     11       0.000022  -0.000092  -0.000027  -0.000002  -0.000000  -0.000000
     12       0.000360  -0.000831  -0.000768  -0.000004   0.000001  -0.000001
     13      -0.000831  -0.000304   0.000647   0.000001   0.000000   0.000000
     14      -0.000768   0.000647  -0.000438  -0.000001   0.000000   0.000000
     15      -0.000004   0.000001  -0.000001   0.000001  -0.000562   0.000938
     16       0.000001   0.000000   0.000000  -0.000562  -0.000505  -0.000758
     17      -0.000001   0.000000   0.000000   0.000938  -0.000758   0.000122
     18      -0.000004  -0.000001   0.000001   0.000052   0.000004  -0.000005
     19      -0.000001   0.000000   0.000000   0.000004  -0.000029   0.000095
     20       0.000001   0.000000   0.000000  -0.000005   0.000095  -0.000060
                  18         19         20    
      0       0.000390  -0.000594   0.000564
      1      -0.000594   0.000064   0.000740
      2       0.000564   0.000740   0.000141
      3      -0.000243  -0.000178   0.000107
      4      -0.000178   0.000028   0.000053
      5       0.000107   0.000053   0.000084
      6      -0.000050  -0.000021   0.000008
      7      -0.000021   0.000002   0.000003
      8       0.000008   0.000003   0.000008
      9      -0.000003  -0.000002  -0.000000
     10      -0.000002  -0.000001  -0.000000
     11      -0.000000  -0.000000   0.000000
     12      -0.000004  -0.000001   0.000001
     13      -0.000001   0.000000   0.000000
     14       0.000001   0.000000   0.000000
     15       0.000052   0.000004  -0.000005
     16       0.000004  -0.000029   0.000095
     17      -0.000005   0.000095  -0.000060
     18      -0.000143   0.000792  -0.000675
     19       0.000792  -0.000065  -0.000891
     20      -0.000675  -0.000891  -0.000174

done   (      0.0 sec)
Dipol derivatives                                ... done   (      0.1 sec)

-------
TIMINGS
-------

Total SCF Hessian time: 0 days 0 hours 0 min 9 sec 
                   F(y)            G[Q(x)]           CPSCF         Total
Table01         0.2  0.03         0.3  0.03         4.2  0.44         9.4 
Table01a        0.2  0.03,        0.3, 0.03,        4.2  0.44         9.4 
Table01b        0.2   2.6,        0.3,  3.0,        4.2  44.4         9.4 

Writing the Hessian file to the disk             ... done


Maximum memory used throughout the entire calculation: 132.2 MB

-----------------------
VIBRATIONAL FREQUENCIES
-----------------------

Scaling factor for frequencies =  1.000000000  (already applied!)

   0:         0.00 cm**-1
   1:         0.00 cm**-1
   2:         0.00 cm**-1
   3:         0.00 cm**-1
   4:         0.00 cm**-1
   5:         0.00 cm**-1
   6:       352.35 cm**-1
   7:       352.40 cm**-1
   8:       806.74 cm**-1
   9:       806.81 cm**-1
  10:       845.08 cm**-1
  11:       957.90 cm**-1
  12:       957.91 cm**-1
  13:      1076.17 cm**-1
  14:      1343.89 cm**-1
  15:      1409.91 cm**-1
  16:      2001.82 cm**-1
  17:      3029.42 cm**-1
  18:      3033.17 cm**-1
  19:      3111.57 cm**-1
  20:      3111.65 cm**-1


------------
NORMAL MODES
------------

These modes are the Cartesian displacements weighted by the diagonal matrix
M(i,i)=1/sqrt(m[i]) where m[i] is the mass of the displaced atom
Thus, these vectors are normalized but *not* orthogonal

                  0          1          2          3          4          5    
      0       0.000000   0.000000   0.000000   0.000000   0.000000   0.000000
      1       0.000000   0.000000   0.000000   0.000000   0.000000   0.000000
      2       0.000000   0.000000   0.000000   0.000000   0.000000   0.000000
      3       0.000000   0.000000   0.000000   0.000000   0.000000   0.000000
      4       0.000000   0.000000   0.000000   0.000000   0.000000   0.000000
      5       0.000000   0.000000   0.000000   0.000000   0.000000   0.000000
      6       0.000000   0.000000   0.000000   0.000000   0.000000   0.000000
      7       0.000000   0.000000   0.000000   0.000000   0.000000   0.000000
      8       0.000000   0.000000   0.000000   0.000000   0.000000   0.000000
      9       0.000000   0.000000   0.000000   0.000000   0.000000   0.000000
     10       0.000000   0.000000   0.000000   0.000000   0.000000   0.000000
     11       0.000000   0.000000   0.000000   0.000000   0.000000   0.000000
     12       0.000000   0.000000   0.000000   0.000000   0.000000   0.000000
     13       0.000000   0.000000   0.000000   0.000000   0.000000   0.000000
     14       0.000000   0.000000   0.000000   0.000000   0.000000   0.000000
     15       0.000000   0.000000   0.000000   0.000000   0.000000   0.000000
     16       0.000000   0.000000   0.000000   0.000000   0.000000   0.000000
     17       0.000000   0.000000   0.000000   0.000000   0.000000   0.000000
     18       0.000000   0.000000   0.000000   0.000000   0.000000   0.000000
     19       0.000000   0.000000   0.000000   0.000000   0.000000   0.000000
     20       0.000000   0.000000   0.000000   0.000000   0.000000   0.000000
                  6          7          8          9         10         11    
      0      -0.021808   0.014185  -0.000610  -0.028798  -0.000011   0.005798
      1       0.114072  -0.030079   0.006488   0.119881   0.000009  -0.079557
      2       0.037406  -0.101829  -0.004798   0.103204  -0.000004   0.076093
      3       0.053061  -0.028026  -0.001143   0.006360   0.000002  -0.022712
      4      -0.324703  -0.013070   0.022642  -0.026708  -0.000014   0.143998
      5      -0.008419   0.327654  -0.027245  -0.022401  -0.000015  -0.005199
      6      -0.013403   0.004408   0.005510   0.001346   0.000007   0.022062
      7       0.101402   0.038744  -0.104122  -0.004656   0.000008  -0.097089
      8      -0.031809  -0.115602   0.122403  -0.006479   0.000023  -0.069713
      9      -0.411496   0.315920  -0.023932  -0.007754   0.017141  -0.500196
     10       0.273973   0.027633   0.451179  -0.008573  -0.323497   0.039057
     11       0.007125  -0.296022  -0.531186   0.003726   0.380804   0.097619
     12       0.297538  -0.250799  -0.023558   0.009244  -0.017076   0.437475
     13       0.388278  -0.063624   0.451200  -0.005845   0.323508   0.190168
     14       0.072273  -0.348222  -0.531127   0.005290  -0.380893   0.183904
     15       0.233969   0.378168  -0.007206   0.124936   0.089520   0.425171
     16       0.365337   0.101309  -0.005737  -0.520169  -0.372970   0.148162
     17       0.003220  -0.301990  -0.007944  -0.447298  -0.320751  -0.108833
     18      -0.332711  -0.330885   0.009929   0.124910  -0.089563  -0.423785
     19       0.273945  -0.012832  -0.003067  -0.520151   0.372937   0.011642
     20      -0.048994  -0.367151  -0.006438  -0.447338   0.320797  -0.186759
                 12         13         14         15         16         17    
      0       0.002280   0.226227   0.045549  -0.147983   0.336231   0.047433
      1      -0.070510   0.036421   0.007335  -0.023829   0.054142   0.007636
      2       0.098984   0.020797   0.004188  -0.013605   0.030901   0.004370
      3       0.013842  -0.000002   0.046668  -0.000013  -0.712195  -0.011219
      4      -0.003056   0.000018   0.007518   0.000001  -0.114687  -0.001806
      5      -0.145201   0.000036   0.004299  -0.000010  -0.065484  -0.001031
      6      -0.019261  -0.226217   0.045610   0.147966   0.336219   0.047073
      7       0.074258  -0.036445   0.007342   0.023825   0.054145   0.007596
      8       0.079175  -0.020824   0.004195   0.013616   0.030933   0.004347
      9       0.455037  -0.471657  -0.459402  -0.420889   0.079995  -0.170432
     10      -0.076837   0.012920   0.136779   0.179280   0.178769  -0.359642
     11      -0.039551   0.032092   0.136737   0.171140   0.148273  -0.297872
     12      -0.393895  -0.430368  -0.361854  -0.306561   0.156797  -0.323916
     13      -0.213680  -0.158053  -0.269022  -0.296454  -0.140673   0.279848
     14      -0.117639  -0.115123  -0.212339  -0.238098  -0.126488   0.252198
     15       0.456964   0.447057  -0.401247   0.353019   0.125684  -0.263812
     16       0.216651   0.146751  -0.242080   0.265039  -0.119495   0.239305
     17      -0.074633  -0.045914   0.169410  -0.209571   0.174014  -0.351908
     18      -0.480716   0.454876  -0.419802   0.374780   0.111115  -0.234274
     19       0.065633  -0.001540   0.109856  -0.147824   0.157653  -0.319481
     20      -0.160903   0.128839  -0.244929   0.276527  -0.152298   0.306002
                  18         19         20    
      0       0.047647   0.003359   0.000036
      1       0.007662  -0.063984  -0.000116
      2       0.004398   0.075327  -0.000192
      3       0.000040   0.000030   0.000132
      4       0.000006  -0.000492  -0.000567
      5       0.000004   0.000578  -0.000488
      6      -0.047987   0.000025   0.017742
      7      -0.007742  -0.000191  -0.073755
      8      -0.004431   0.000120  -0.063445
      9       0.172235   0.000174   0.262092
     10       0.362167   0.000114   0.503253
     11       0.299944   0.000486   0.415765
     12       0.326741  -0.000367  -0.475642
     13      -0.281632   0.000113   0.384726
     14      -0.253838   0.000508   0.348070
     15      -0.262398  -0.389098   0.000330
     16       0.237326   0.325657  -0.000456
     17      -0.349206  -0.487295   0.000152
     18      -0.233005   0.348613  -0.000192
     19      -0.316974   0.444659  -0.000539
     20       0.303444  -0.419596   0.000101


-----------
IR SPECTRUM
-----------

 Mode    freq (cm**-1)   T**2         TX         TY         TZ
-------------------------------------------------------------------
   6:       352.35    5.081775  ( -0.363855   2.223987   0.057150)
   7:       352.40    5.081029  (  0.192408   0.089064  -2.244120)
   8:       806.74   52.468202  ( -0.231199   4.622204  -5.572250)
   9:       806.81   52.468381  (  1.301047  -5.457718  -4.581373)
  10:       845.08    0.000002  ( -0.000356   0.000140   0.001427)
  11:       957.90    0.008574  (  0.015611  -0.091179   0.004131)
  12:       957.91    0.008205  ( -0.009314   0.001364   0.090089)
  13:      1076.17    0.000002  (  0.000223  -0.000811  -0.001162)
  14:      1343.89    4.096815  ( -1.989744  -0.321682  -0.185082)
  15:      1409.91    0.000004  (  0.000594  -0.001781  -0.000461)
  16:      2001.82   62.102682  ( -7.748403  -1.247655  -0.712948)
  17:      3029.42    2.067177  (  1.413673   0.226970   0.131111)
  18:      3033.17    0.000028  ( -0.004887  -0.001985   0.000240)
  19:      3111.57    0.601759  (  0.026592  -0.502293   0.590553)
  20:      3111.65    0.603361  (  0.139229  -0.579171  -0.498534)

The first frequency considered to be a vibration is 6
The total number of vibrations considered is 15


--------------------------
THERMOCHEMISTRY AT 298.15K
--------------------------

Temperature         ... 298.15 K
Pressure            ... 1.00 atm
Total Mass          ... 40.07 AMU

Throughout the following assumptions are being made:
  (1) The electronic state is orbitally nondegenerate
  (2) There are no thermally accessible electronically excited states
  (3) Hindered rotations indicated by low frequency modes are not
      treated as such but are treated as vibrations and this may
      cause some error
  (4) All equations used are the standard statistical mechanics
      equations for an ideal gas
  (5) All vibrations are strictly harmonic

freq.     352.35  E(vib)   ...       0.23 
freq.     352.40  E(vib)   ...       0.23 
freq.     806.74  E(vib)   ...       0.05 
freq.     806.81  E(vib)   ...       0.05 
freq.     845.08  E(vib)   ...       0.04 
freq.     957.90  E(vib)   ...       0.03 
freq.     957.91  E(vib)   ...       0.03 
freq.    1076.17  E(vib)   ...       0.02 
freq.    1343.89  E(vib)   ...       0.01 
freq.    1409.91  E(vib)   ...       0.00 
freq.    2001.82  E(vib)   ...       0.00 
freq.    3029.42  E(vib)   ...       0.00 
freq.    3033.17  E(vib)   ...       0.00 
freq.    3111.57  E(vib)   ...       0.00 
freq.    3111.65  E(vib)   ...       0.00 

------------
INNER ENERGY
------------

The inner energy is: U= E(el) + E(ZPE) + E(vib) + E(rot) + E(trans)
    E(el)   - is the total energy from the electronic structure calculation
              = E(kin-el) + E(nuc-el) + E(el-el) + E(nuc-nuc)
    E(ZPE)  - the the zero temperature vibrational energy from the frequency calculation
    E(vib)  - the the finite temperature correction to E(ZPE) due to population
              of excited vibrational states
    E(rot)  - is the rotational thermal energy
    E(trans)- is the translational thermal energy

Summary of contributions to the inner energy U:
Electronic energy                ...   -116.53630957 Eh
Zero point energy                ...      0.05284619 Eh      33.16 kcal/mol
Thermal vibrational correction   ...      0.00106782 Eh       0.67 kcal/mol
Thermal rotational correction    ...      0.00141627 Eh       0.89 kcal/mol
Thermal translational correction ...      0.00141627 Eh       0.89 kcal/mol
-----------------------------------------------------------------------
Total thermal energy                   -116.47956302 Eh


Summary of corrections to the electronic energy:
(perhaps to be used in another calculation)
Total thermal correction                  0.00390036 Eh       2.45 kcal/mol
Non-thermal (ZPE) correction              0.05284619 Eh      33.16 kcal/mol
-----------------------------------------------------------------------
Total correction                          0.05674655 Eh      35.61 kcal/mol


--------
ENTHALPY
--------

The enthalpy is H = U + kB*T
                kB is Boltzmann's constant
Total free energy                 ...   -116.47956302 Eh 
Thermal Enthalpy correction       ...      0.00094421 Eh       0.59 kcal/mol
-----------------------------------------------------------------------
Total Enthalpy                    ...   -116.47861881 Eh


Note: Only C1 symmetry has been detected, increase convergence thresholds 
      if your molecule has a higher symmetry. Symmetry factor of 1.0 is   
      used for the rotational entropy correction. 
 

Note: Rotational entropy computed according to Herzberg 
Infrared and Raman Spectra, Chapter V,1, Van Nostrand Reinhold, 1945 
Point Group:  C1, Symmetry Number:   1  
Rotational constants in cm-1:     4.683418     0.289251     0.289250 

Vibrational entropy computed according to the QRRHO of S. Grimme
Chem.Eur.J. 2012 18 9955


-------
ENTROPY
-------

The entropy contributions are T*S = T*(S(el)+S(vib)+S(rot)+S(trans))
     S(el)   - electronic entropy
     S(vib)  - vibrational entropy
     S(rot)  - rotational entropy
     S(trans)- translational entropy
The entropies will be listed as mutliplied by the temperature to get
units of energy

Electronic entropy                ...      0.00000000 Eh      0.00 kcal/mol
Vibrational entropy               ...      0.00153304 Eh      0.96 kcal/mol
Rotational entropy                ...      0.00995311 Eh      6.25 kcal/mol
Translational entropy             ...      0.01757583 Eh     11.03 kcal/mol
-----------------------------------------------------------------------
Final entropy term                ...      0.02906197 Eh     18.24 kcal/mol

In case the symmetry of your molecule has not been determined correctly
or in case you have a reason to use a different symmetry number we print 
out the resulting rotational entropy values for sn=1,12 :
 --------------------------------------------------------
|  sn= 1 | S(rot)=       0.00995311 Eh      6.25 kcal/mol|
|  sn= 2 | S(rot)=       0.00929865 Eh      5.83 kcal/mol|
|  sn= 3 | S(rot)=       0.00891582 Eh      5.59 kcal/mol|
|  sn= 4 | S(rot)=       0.00864420 Eh      5.42 kcal/mol|
|  sn= 5 | S(rot)=       0.00843351 Eh      5.29 kcal/mol|
|  sn= 6 | S(rot)=       0.00826136 Eh      5.18 kcal/mol|
|  sn= 7 | S(rot)=       0.00811582 Eh      5.09 kcal/mol|
|  sn= 8 | S(rot)=       0.00798974 Eh      5.01 kcal/mol|
|  sn= 9 | S(rot)=       0.00787853 Eh      4.94 kcal/mol|
|  sn=10 | S(rot)=       0.00777905 Eh      4.88 kcal/mol|
|  sn=11 | S(rot)=       0.00768906 Eh      4.82 kcal/mol|
|  sn=12 | S(rot)=       0.00760691 Eh      4.77 kcal/mol|
 --------------------------------------------------------


-------------------
GIBBS FREE ENERGY
-------------------

The Gibbs free energy is G = H - T*S

Total enthalpy                    ...   -116.47861881 Eh 
Total entropy correction          ...     -0.02906197 Eh    -18.24 kcal/mol
-----------------------------------------------------------------------
Final Gibbs free energy         ...   -116.50768078 Eh

For completeness - the Gibbs free energy minus the electronic energy
G-E(el)                           ...      0.02862879 Eh     17.96 kcal/mol


Timings for individual modules:

Sum of individual times         ...       48.188 sec (=   0.803 min)
GTO integral calculation        ...        4.395 sec (=   0.073 min)   9.1 %
SCF iterations                  ...       25.418 sec (=   0.424 min)  52.7 %
SCF Gradient evaluation         ...        8.372 sec (=   0.140 min)  17.4 %
Geometry relaxation             ...        0.272 sec (=   0.005 min)   0.6 %
Analytical frequency calculation...        9.730 sec (=   0.162 min)  20.2 %
                             ****ORCA TERMINATED NORMALLY****
TOTAL RUN TIME: 0 days 0 hours 0 minutes 49 seconds 242 msec
