
                                 *****************
                                 * O   R   C   A *
                                 *****************

           --- An Ab Initio, DFT and Semiempirical electronic structure package ---

                  #######################################################
                  #                        -***-                        #
                  #          Department of theory and spectroscopy      #
                  #               Directorship: Frank Neese             #
                  #        Max Planck Institute fuer Kohlenforschung    #
                  #                Kaiser Wilhelm Platz 1               #
                  #                 D-45470 Muelheim/Ruhr               #
                  #                      Germany                        #
                  #                                                     #
                  #                  All rights reserved                #
                  #                        -***-                        #
                  #######################################################


                         Program Version 4.2.1 -  RELEASE  -


 With contributions from (in alphabetic order):
   Daniel Aravena         : Magnetic Suceptibility
   Michael Atanasov       : Ab Initio Ligand Field Theory (pilot matlab implementation)
   Alexander A. Auer      : GIAO ZORA, VPT2
   Ute Becker             : Parallelization
   Giovanni Bistoni       : ED, misc. LED, open-shell LED, HFLD
   Martin Brehm           : Molecular dynamics
   Dmytro Bykov           : SCF Hessian
   Vijay G. Chilkuri      : MRCI spin determinant printing, contributions to CSF-ICE
   Dipayan Datta          : RHF DLPNO-CCSD density
   Achintya Kumar Dutta   : EOM-CC, STEOM-CC
   Dmitry Ganyushin       : Spin-Orbit,Spin-Spin,Magnetic field MRCI
   Miquel Garcia          : C-PCM Hessian, Gaussian charge scheme
   Yang Guo               : DLPNO-NEVPT2, CIM, IAO-localization
   Andreas Hansen         : Spin unrestricted coupled pair/coupled cluster methods
   Benjamin Helmich-Paris : CASSCF linear response (MC-RPA)
   Lee Huntington         : MR-EOM, pCC
   Robert Izsak           : Overlap fitted RIJCOSX, COSX-SCS-MP3, EOM
   Christian Kollmar      : KDIIS, OOCD, Brueckner-CCSD(T), CCSD density
   Simone Kossmann        : Meta GGA functionals, TD-DFT gradient, OOMP2, MP2 Hessian
   Martin Krupicka        : AUTO-CI
   Lucas Lang             : DCDCAS
   Dagmar Lenk            : GEPOL surface, SMD
   Dimitrios Liakos       : Extrapolation schemes; Compound Job, initial MDCI parallelization
   Dimitrios Manganas     : Further ROCIS development; embedding schemes
   Dimitrios Pantazis     : SARC Basis sets
   Taras Petrenko         : DFT Hessian,TD-DFT gradient, ASA, ECA, R-Raman, ABS, FL, XAS/XES, NRVS
   Peter Pinski           : DLPNO-MP2, DLPNO-MP2 Gradient
   Christoph Reimann      : Effective Core Potentials
   Marius Retegan         : Local ZFS, SOC
   Christoph Riplinger    : Optimizer, TS searches, QM/MM, DLPNO-CCSD(T), (RO)-DLPNO pert. Triples
   Tobias Risthaus        : Range-separated hybrids, TD-DFT gradient, RPA, STAB
   Michael Roemelt        : Original ROCIS implementation
   Masaaki Saitow         : Open-shell DLPNO-CCSD energy and density
   Barbara Sandhoefer     : DKH picture change effects
   Avijit Sen             : IP-ROCIS
   Kantharuban Sivalingam : CASSCF convergence, NEVPT2, FIC-MRCI
   Bernardo de Souza      : ESD, SOC TD-DFT
   Georgi Stoychev        : AutoAux, RI-MP2 NMR
   Willem Van den Heuvel  : Paramagnetic NMR
   Boris Wezisla          : Elementary symmetry handling
   Frank Wennmohs         : Technical directorship


 We gratefully acknowledge several colleagues who have allowed us to
 interface, adapt or use parts of their codes:
   Stefan Grimme, W. Hujo, H. Kruse,             : VdW corrections, initial TS optimization,
                  C. Bannwarth                     DFT functionals, gCP, sTDA/sTD-DF
   Ed Valeev, F. Pavosevic, A. Kumar             : LibInt (2-el integral package), F12 methods
   Garnet Chan, S. Sharma, J. Yang, R. Olivares  : DMRG
   Ulf Ekstrom                                   : XCFun DFT Library
   Mihaly Kallay                                 : mrcc  (arbitrary order and MRCC methods)
   Andreas Klamt, Michael Diedenhofen            : otool_cosmo (COSMO solvation model)
   Jiri Pittner, Ondrej Demel                    : Mk-CCSD
   Frank Weinhold                                : gennbo (NPA and NBO analysis)
   Christopher J. Cramer and Donald G. Truhlar   : smd solvation model
   Lars Goerigk                                  : TD-DFT with DH, B97 family of functionals
   V. Asgeirsson, H. Jonsson                     : NEB implementation
   FAccTs GmbH                                   : IRC, NEB, NEB-TS, Multilevel, MM, QM/MM, CI optimization
   S Lehtola, MJT Oliveira, MAL Marques          : LibXC Library


 Your calculation uses the libint2 library for the computation of 2-el integrals
 For citations please refer to: http://libint.valeyev.net

 Your ORCA version has been built with support for libXC version: 4.2.3
 For citations please refer to: https://tddft.org/programs/libxc/

 This ORCA versions uses:
   CBLAS   interface :  Fast vector & matrix operations
   LAPACKE interface :  Fast linear algebra routines
   SCALAPACK package :  Parallel linear algebra routines


XCFun DFT library Copyright 2009-2010 Ulf Ekstrom and contributors.
See http://admol.org/xcfun for more information. This is free soft-
ware; see the source code for copying conditions. There is ABSOLUTELY
NO WARRANTY; not even for MERCHANTABILITY or FITNESS FOR A PARTICULAR
PURPOSE. For details see the documentation. Scientific users of this 
library should cite U. Ekstrom, L. Visscher, R. Bast, A. J. Thorvald-
sen and K. Ruud; J.Chem.Theor.Comp. 2010, DOI: 10.1021/ct100117s
XCFun Version 0.99 
----- Orbital basis set information -----
Your calculation utilizes the basis: 6-311++G(d,p)
   H, Li - Ne  : R. Krishnan, J. S. Binkley, R. Seeger and J. A. Pople, J. Chem. Phys. 72, 650 (1980).
   Na - Ar     : A. D. McLean and G. S. Chandler J. Chem. Phys. 72, 5639, (1980).
   K  - Ca     : J.-P. Blaudeau, M. P. McGrath, L. A. Curtiss and L. Radom, J. Chem. Phys. 107, 5016 (1997).
   Ga - Kr     : L. A. Curtiss, M. P. McGrath, J.-P. Blandeau, N. E. Davis, R. C. Binning and L. Radom, J. Chem. Phys. 103, 6104 (1995).
   Pol./Diff.
   H, Li - Cl  : T. Clark, J. Chandrasekhar and P. v. R. Schleyer, J. Comp. Chem. 4, 294 (1983).
   H - Ne      : M. J. Frisch, J. A. Pople and J. S. Binkley, J. Chem. Phys. 80, 3265 (1984).

================================================================================
                                        WARNINGS
                       Please study these warnings very carefully!
================================================================================


WARNING: The environment variable RSH_COMMAND is not set!
  ===> : All Displacements for the Numerical Hessian calculation
         will be started on localhost

WARNING: Geometry Optimization
  ===> : Switching off AutoStart
         For restart on a previous wavefunction, please use MOREAD

WARNING: Minnesota functionals are quite sensitive to the integration grid.
         see SE Wheeler, KN Houk, JCTC 2010, 6, 395,
             N Mardirossian, M Head-Gordon, JCTC 2016, 12, 4303.
         Grid6 seems to be a minimum grid for reliable results with these functionals!
  ===> : Please increase the integration grid!


INFO   : the flag for use of LIBINT has been found!

================================================================================
                                       INPUT FILE
================================================================================
NAME = NH3.inp
|  1> ! UHF M062X 6-311++G(d,p) Opt NumFreq NoFrozenCore TightOpt TightSCF
|  2> 
|  3> %pal
|  4>  nprocs 12
|  5> end
|  6> 
|  7> *xyz 0 1
|  8> N       -0.982545076      0.232091938     -0.834827156
|  9> H        0.028825769      0.158419851     -0.771918983
| 10> H       -1.361023175     -0.494531772     -0.233970839
| 11> H       -1.230231893     -0.024484795     -1.786181780
| 12> *
| 13> 
| 14>                          ****END OF INPUT****
================================================================================

                       *****************************
                       * Geometry Optimization Run *
                       *****************************

Geometry optimization settings:
Update method            Update   .... BFGS
Choice of coordinates    CoordSys .... Z-matrix Internals
Initial Hessian          InHess   .... Almoef's Model

Convergence Tolerances:
Energy Change            TolE     ....  1.0000e-06 Eh
Max. Gradient            TolMAXG  ....  1.0000e-04 Eh/bohr
RMS Gradient             TolRMSG  ....  3.0000e-05 Eh/bohr
Max. Displacement        TolMAXD  ....  1.0000e-03 bohr
RMS Displacement         TolRMSD  ....  6.0000e-04 bohr
Strict Convergence                ....  False
------------------------------------------------------------------------------
                        ORCA OPTIMIZATION COORDINATE SETUP
------------------------------------------------------------------------------

The optimization will be done in new redundant internal coordinates
Making redundant internal coordinates   ...  (new redundants) done
Evaluating the initial hessian          ...  (Almloef) done
Evaluating the coordinates              ...  done
Calculating the B-matrix                .... done
Calculating the G-matrix                .... done
Diagonalizing the G-matrix              .... done
The first mode is                       ....    1
The number of degrees of freedom        ....    6

    -----------------------------------------------------------------
                    Redundant Internal Coordinates


    -----------------------------------------------------------------
         Definition                    Initial Value    Approx d2E/dq
    -----------------------------------------------------------------
      1. B(H   1,N   0)                  1.0160         0.423275   
      2. B(H   2,N   0)                  1.0160         0.423275   
      3. B(H   3,N   0)                  1.0160         0.423275   
      4. A(H   1,N   0,H   3)          106.4000         0.301130   
      5. A(H   2,N   0,H   3)          106.4000         0.301130   
      6. A(H   1,N   0,H   2)          106.4001         0.301130   
      7. I(H   1,H   3,H   2,N   0)    -61.8788         0.003674   
    -----------------------------------------------------------------

Number of atoms                         .... 4
Number of degrees of freedom            .... 7

         *************************************************************
         *                GEOMETRY OPTIMIZATION CYCLE   1            *
         *************************************************************
---------------------------------
CARTESIAN COORDINATES (ANGSTROEM)
---------------------------------
  N     -0.982545    0.232092   -0.834827
  H      0.028826    0.158420   -0.771919
  H     -1.361023   -0.494532   -0.233971
  H     -1.230232   -0.024485   -1.786182

----------------------------
CARTESIAN COORDINATES (A.U.)
----------------------------
  NO LB      ZA    FRAG     MASS         X           Y           Z
   0 N     7.0000    0    14.007   -1.856741    0.438590   -1.577595
   1 H     1.0000    0     1.008    0.054473    0.299370   -1.458715
   2 H     1.0000    0     1.008   -2.571961   -0.934530   -0.442141
   3 H     1.0000    0     1.008   -2.324801   -0.046270   -3.375394

--------------------------------
INTERNAL COORDINATES (ANGSTROEM)
--------------------------------
 N      0   0   0     0.000000000000     0.00000000     0.00000000
 H      1   0   0     1.016000000369     0.00000000     0.00000000
 H      1   2   0     1.016000000510   106.40013848     0.00000000
 H      1   2   3     1.015999999921   106.40000002   246.83244817

---------------------------
INTERNAL COORDINATES (A.U.)
---------------------------
 N      0   0   0     0.000000000000     0.00000000     0.00000000
 H      1   0   0     1.919961752761     0.00000000     0.00000000
 H      1   2   0     1.919961753027   106.40013848     0.00000000
 H      1   2   3     1.919961751914   106.40000002   246.83244817

---------------------
BASIS SET INFORMATION
---------------------
There are 2 groups of distinct atoms

 Group   1 Type N   : 12s6p1d contracted to 5s4p1d pattern {63111/3111/1}
 Group   2 Type H   : 6s1p contracted to 4s1p pattern {3111/1}

Atom   0N    basis set group =>   1
Atom   1H    basis set group =>   2
Atom   2H    basis set group =>   2
Atom   3H    basis set group =>   2


           ************************************************************
           *        Program running with 12 parallel MPI-processes    *
           *              working on a common directory               *
           ************************************************************
------------------------------------------------------------------------------
                           ORCA GTO INTEGRAL CALCULATION
------------------------------------------------------------------------------

                         BASIS SET STATISTICS AND STARTUP INFO

 # of primitive gaussian shells          ...   40
 # of primitive gaussian functions       ...   62
 # of contracted shells                  ...   25
 # of contracted basis functions         ...   43
 Highest angular momentum                ...    2
 Maximum contraction depth               ...    6
 Integral package used                   ... LIBINT
 Integral threshhold            Thresh   ...  2.500e-11
 Primitive cut-off              TCut     ...  2.500e-12


------------------------------ INTEGRAL EVALUATION ----------------------------


 * One electron integrals 
 Pre-screening matrix                    ... done
 Shell pair data                         ... done (   0.000 sec)



           ************************************************************
           *        Program running with 12 parallel MPI-processes    *
           *              working on a common directory               *
           ************************************************************
-------------------------------------------------------------------------------
                                 ORCA SCF
-------------------------------------------------------------------------------

------------
SCF SETTINGS
------------
Hamiltonian:
 Density Functional     Method          .... DFT(GTOs)
 Exchange Functional    Exchange        .... M062X
 Correlation Functional Correlation     .... M062X
 Gradients option       PostSCFGGA      .... off
 Hybrid DFT is turned on
   Fraction HF Exchange ScalHFX         ....  0.540000
   Scaling of DF-GGA-X  ScalDFX         ....  0.460000
   Scaling of DF-GGA-C  ScalDFC         ....  1.000000
   Scaling of DF-LDA-C  ScalLDAC        ....  1.000000
   Perturbative correction              ....  0.000000
   Density functional embedding theory  .... OFF


General Settings:
 Integral files         IntName         .... NH3
 Hartree-Fock type      HFTyp           .... UHF
 Total Charge           Charge          ....    0
 Multiplicity           Mult            ....    1
 Number of Electrons    NEL             ....   10
 Basis Dimension        Dim             ....   43
 Nuclear Repulsion      ENuc            ....     11.9134075562 Eh

Convergence Acceleration:
 DIIS                   CNVDIIS         .... on
   Start iteration      DIISMaxIt       ....    12
   Startup error        DIISStart       ....  0.200000
   # of expansion vecs  DIISMaxEq       ....     5
   Bias factor          DIISBfac        ....   1.050
   Max. coefficient     DIISMaxC        ....  10.000
 Newton-Raphson         CNVNR           .... off
 SOSCF                  CNVSOSCF        .... off
 Level Shifting         CNVShift        .... on
   Level shift para.    LevelShift      ....    0.2500
   Turn off err/grad.   ShiftErr        ....    0.0010
 Zerner damping         CNVZerner       .... off
 Static damping         CNVDamp         .... on
   Fraction old density DampFac         ....    0.7000
   Max. Damping (<1)    DampMax         ....    0.9800
   Min. Damping (>=0)   DampMin         ....    0.0000
   Turn off err/grad.   DampErr         ....    0.1000
 Fernandez-Rico         CNVRico         .... off

SCF Procedure:
 Maximum # iterations   MaxIter         ....   125
 SCF integral mode      SCFMode         .... Direct
   Integral package                     .... LIBINT
 Reset frequency        DirectResetFreq ....    20
 Integral Threshold     Thresh          ....  2.500e-11 Eh
 Primitive CutOff       TCut            ....  2.500e-12 Eh

Convergence Tolerance:
 Convergence Check Mode ConvCheckMode   .... Total+1el-Energy
 Convergence forced     ConvForced      .... 0
 Energy Change          TolE            ....  1.000e-08 Eh
 1-El. energy change                    ....  1.000e-05 Eh
 DIIS Error             TolErr          ....  5.000e-07


Diagonalization of the overlap matrix:
Smallest eigenvalue                        ... 2.435e-03
Time for diagonalization                   ...    0.003 sec
Threshold for overlap eigenvalues          ... 1.000e-08
Number of eigenvalues below threshold      ... 0
Time for construction of square roots      ...    0.007 sec
Total time needed                          ...    0.010 sec

-------------------
DFT GRID GENERATION
-------------------

General Integration Accuracy     IntAcc      ...  4.340
Radial Grid Type                 RadialGrid  ... Gauss-Chebyshev
Angular Grid (max. acc.)         AngularGrid ... Lebedev-110
Angular grid pruning method      GridPruning ... 3 (G Style)
Weight generation scheme         WeightScheme... Becke
Basis function cutoff            BFCut       ...    1.0000e-11
Integration weight cutoff        WCut        ...    1.0000e-14
Grids for H and He will be reduced by one unit

# of grid points (after initial pruning)     ...   4084 (   0.0 sec)
# of grid points (after weights+screening)   ...   4021 (   0.0 sec)
nearest neighbour list constructed           ...    0.0 sec
Grid point re-assignment to atoms done       ...    0.0 sec
Grid point division into batches done        ...    0.0 sec
Reduced shell lists constructed in    0.0 sec

Total number of grid points                  ...     4021
Total number of batches                      ...       65
Average number of points per batch           ...       61
Average number of grid points per atom       ...     1005
Average number of shells per batch           ...    20.86 (83.43%)
Average number of basis functions per batch  ...    36.00 (83.72%)
Average number of large shells per batch     ...    20.29 (97.26%)
Average number of large basis fcns per batch ...    35.14 (97.62%)
Maximum spatial batch extension              ...  14.74, 14.48, 14.84 au
Average spatial batch extension              ...   0.47,  0.51,  0.57 au

Time for grid setup =    0.036 sec

------------------------------
INITIAL GUESS: MODEL POTENTIAL
------------------------------
Loading Hartree-Fock densities                     ... done
Calculating cut-offs                               ... done
Setting up the integral package                    ... done
Initializing the effective Hamiltonian             ... done
Starting the Coulomb interaction                   ... done (   0.0 sec)
Reading the grid                                   ... done
Mapping shells                                     ... done
Starting the XC term evaluation                    ... done (   0.0 sec)
  promolecular density results
     # of electrons  =     10.001977945
     EX              =     -7.402583469
     EC              =     -0.305458964
     EX+EC           =     -7.708042433
Transforming the Hamiltonian                       ... done (   0.0 sec)
Diagonalizing the Hamiltonian                      ... done (   0.0 sec)
Back transforming the eigenvectors                 ... done (   0.0 sec)
Now organizing SCF variables                       ... done
                      ------------------
                      INITIAL GUESS DONE (   0.2 sec)
                      ------------------
--------------
SCF ITERATIONS
--------------
ITER       Energy         Delta-E        Max-DP      RMS-DP      [F,P]     Damp
               ***  Starting incremental Fock matrix formation  ***
  0    -56.4282182397   0.000000000000 0.03893956  0.00181143  0.3549213 0.7000
  1    -56.4829062031  -0.054687963446 0.02188275  0.00122121  0.1737159 0.7000
                               ***Turning on DIIS***
  2    -56.5053645271  -0.022458323978 0.02677172  0.00189941  0.0608967 0.0000
  3    -56.5370976691  -0.031733142024 0.01774955  0.00088421  0.0974256 0.0000
  4    -56.5458707945  -0.008773125343 0.00285540  0.00024126  0.0149216 0.0000
  5    -56.5461548578  -0.000284063339 0.00128391  0.00009532  0.0028274 0.0000
  6    -56.5461676934  -0.000012835595 0.00113291  0.00007654  0.0008565 0.0000
  7    -56.5461695398  -0.000001846341 0.00016540  0.00001037  0.0001760 0.0000
  8    -56.5461695983  -0.000000058585 0.00001889  0.00000113  0.0000138 0.0000
                 **** Energy Check signals convergence ****

               *****************************************************
               *                     SUCCESS                       *
               *           SCF CONVERGED AFTER   9 CYCLES          *
               *****************************************************

Setting up the final grid:

General Integration Accuracy     IntAcc      ...  4.670
Radial Grid Type                 RadialGrid  ... Gauss-Chebyshev
Angular Grid (max. acc.)         AngularGrid ... Lebedev-302
Angular grid pruning method      GridPruning ... 3 (G Style)
Weight generation scheme         WeightScheme... Becke
Basis function cutoff            BFCut       ...    1.0000e-11
Integration weight cutoff        WCut        ...    1.0000e-14
Grids for H and He will be reduced by one unit

# of grid points (after initial pruning)     ...  16394 (   0.0 sec)
# of grid points (after weights+screening)   ...  16104 (   0.0 sec)
nearest neighbour list constructed           ...    0.0 sec
Grid point re-assignment to atoms done       ...    0.0 sec
Grid point division into batches done        ...    0.1 sec
Reduced shell lists constructed in    0.1 sec

Total number of grid points                  ...    16104
Total number of batches                      ...      254
Average number of points per batch           ...       63
Average number of grid points per atom       ...     4026
Average number of shells per batch           ...    21.74 (86.96%)
Average number of basis functions per batch  ...    37.04 (86.15%)
Average number of large shells per batch     ...    20.70 (95.20%)
Average number of large basis fcns per batch ...    35.39 (95.54%)
Maximum spatial batch extension              ...  13.38, 12.45, 10.93 au
Average spatial batch extension              ...   0.28,  0.31,  0.28 au

Final grid set up in    0.1 sec
Final integration                            ... done (   0.1 sec)
Change in XC energy                          ...     0.000075148
Integrated number of electrons               ...    10.000000006
Previous integrated no of electrons          ...    10.003267038

----------------
TOTAL SCF ENERGY
----------------

Total Energy       :          -56.54609445 Eh           -1538.69746 eV

Components:
Nuclear Repulsion  :           11.91340756 Eh             324.18030 eV
Electronic Energy  :          -68.45950201 Eh           -1862.87776 eV
One Electron Energy:          -99.55799849 Eh           -2709.11087 eV
Two Electron Energy:           31.09849649 Eh             846.23311 eV

Virial components:
Potential Energy   :         -112.86146609 Eh           -3071.11662 eV
Kinetic Energy     :           56.31537164 Eh            1532.41917 eV
Virial Ratio       :            2.00409698


DFT components:
N(Alpha)           :        5.000000003048 electrons
N(Beta)            :        5.000000003048 electrons
N(Total)           :       10.000000006097 electrons
E(XC)              :       -3.856893420274 Eh       
DFET-embed. en.    :        0.000000000000 Eh       

---------------
SCF CONVERGENCE
---------------

  Last Energy change         ...   -7.2623e-10  Tolerance :   1.0000e-08
  Last MAX-Density change    ...    1.3088e-06  Tolerance :   1.0000e-07
  Last RMS-Density change    ...    9.9512e-08  Tolerance :   5.0000e-09
  Last DIIS Error            ...    2.6690e-06  Tolerance :   5.0000e-07

             **** THE GBW FILE WAS UPDATED (NH3.gbw) ****
             **** DENSITY FILE WAS UPDATED (NH3.scfp) ****
             **** ENERGY FILE WAS UPDATED (NH3.en.tmp) ****
----------------------
UHF SPIN CONTAMINATION
----------------------

Warning: in a DFT calculation there is little theoretical justification to 
         calculate <S**2> as in Hartree-Fock theory. We will do it anyways
         but you should keep in mind that the values have only limited relevance

Expectation value of <S**2>     :     0.000000
Ideal value S*(S+1) for S=0.0   :     0.000000
Deviation                       :     0.000000

             **** THE GBW FILE WAS UPDATED (NH3.gbw) ****
             **** DENSITY FILE WAS UPDATED (NH3.scfp) ****
----------------
ORBITAL ENERGIES
----------------
                 SPIN UP ORBITALS
  NO   OCC          E(Eh)            E(eV) 
   0   1.0000     -14.728975      -400.7958 
   1   1.0000      -0.956826       -26.0366 
   2   1.0000      -0.531907       -14.4739 
   3   1.0000      -0.531732       -14.4692 
   4   1.0000      -0.340789        -9.2733 
   5   0.0000      -0.002824        -0.0768 
   6   0.0000       0.034184         0.9302 
   7   0.0000       0.034568         0.9406 
   8   0.0000       0.124687         3.3929 
   9   0.0000       0.155316         4.2264 
  10   0.0000       0.156512         4.2589 
  11   0.0000       0.175330         4.7710 
  12   0.0000       0.228094         6.2068 
  13   0.0000       0.228921         6.2293 
  14   0.0000       0.252570         6.8728 
  15   0.0000       0.525653        14.3038 
  16   0.0000       0.526032        14.3141 
  17   0.0000       0.682866        18.5817 
  18   0.0000       0.817815        22.2539 
  19   0.0000       0.856929        23.3182 
  20   0.0000       0.858302        23.3556 
  21   0.0000       1.066659        29.0253 
  22   0.0000       1.160563        31.5805 
  23   0.0000       1.160723        31.5849 
  24   0.0000       1.572481        42.7894 
  25   0.0000       1.603367        43.6298 
  26   0.0000       1.727353        47.0037 
  27   0.0000       1.728170        47.0259 
  28   0.0000       1.959051        53.3085 
  29   0.0000       1.960123        53.3377 
  30   0.0000       2.335363        63.5485 
  31   0.0000       2.517775        68.5122 
  32   0.0000       2.521278        68.6075 
  33   0.0000       2.662413        72.4480 
  34   0.0000       2.687735        73.1370 
  35   0.0000       2.688839        73.1670 
  36   0.0000       2.879705        78.3608 
  37   0.0000       3.137902        85.3867 
  38   0.0000       3.138564        85.4047 
  39   0.0000       4.149109       112.9030 
  40   0.0000       4.786270       130.2410 
  41   0.0000       4.790500       130.3561 
  42   0.0000      35.703874       971.5518 

                 SPIN DOWN ORBITALS
  NO   OCC          E(Eh)            E(eV) 
   0   1.0000     -14.728975      -400.7958 
   1   1.0000      -0.956826       -26.0366 
   2   1.0000      -0.531907       -14.4739 
   3   1.0000      -0.531732       -14.4692 
   4   1.0000      -0.340789        -9.2733 
   5   0.0000      -0.002824        -0.0768 
   6   0.0000       0.034184         0.9302 
   7   0.0000       0.034568         0.9406 
   8   0.0000       0.124687         3.3929 
   9   0.0000       0.155316         4.2264 
  10   0.0000       0.156512         4.2589 
  11   0.0000       0.175330         4.7710 
  12   0.0000       0.228094         6.2068 
  13   0.0000       0.228921         6.2293 
  14   0.0000       0.252570         6.8728 
  15   0.0000       0.525653        14.3038 
  16   0.0000       0.526032        14.3141 
  17   0.0000       0.682866        18.5817 
  18   0.0000       0.817815        22.2539 
  19   0.0000       0.856929        23.3182 
  20   0.0000       0.858302        23.3556 
  21   0.0000       1.066659        29.0253 
  22   0.0000       1.160563        31.5805 
  23   0.0000       1.160723        31.5849 
  24   0.0000       1.572481        42.7894 
  25   0.0000       1.603367        43.6298 
  26   0.0000       1.727353        47.0037 
  27   0.0000       1.728170        47.0259 
  28   0.0000       1.959051        53.3085 
  29   0.0000       1.960123        53.3377 
  30   0.0000       2.335363        63.5485 
  31   0.0000       2.517775        68.5122 
  32   0.0000       2.521278        68.6075 
  33   0.0000       2.662413        72.4480 
  34   0.0000       2.687735        73.1370 
  35   0.0000       2.688839        73.1670 
  36   0.0000       2.879705        78.3608 
  37   0.0000       3.137902        85.3867 
  38   0.0000       3.138564        85.4047 
  39   0.0000       4.149109       112.9030 
  40   0.0000       4.786270       130.2410 
  41   0.0000       4.790500       130.3561 
  42   0.0000      35.703874       971.5518 

                    ********************************
                    * MULLIKEN POPULATION ANALYSIS *
                    ********************************

--------------------------------------------
MULLIKEN ATOMIC CHARGES AND SPIN POPULATIONS
--------------------------------------------
   0 N :   -0.706194    0.000000
   1 H :    0.235185    0.000000
   2 H :    0.235121    0.000000
   3 H :    0.235887    0.000000
Sum of atomic charges         :   -0.0000000
Sum of atomic spin populations:    0.0000000

-----------------------------------------------------
MULLIKEN REDUCED ORBITAL CHARGES AND SPIN POPULATIONS
-----------------------------------------------------
CHARGE
  0 N s       :     3.552234  s :     3.552234
      pz      :     1.196989  p :     4.132934
      px      :     1.227466
      py      :     1.708480
      dz2     :     0.005149  d :     0.021026
      dxz     :     0.000336
      dyz     :     0.006389
      dx2y2   :     0.006443
      dxy     :     0.002708
  1 H s       :     0.723329  s :     0.723329
      pz      :     0.009060  p :     0.041486
      px      :     0.018333
      py      :     0.014092
  2 H s       :     0.723434  s :     0.723434
      pz      :     0.012968  p :     0.041444
      px      :     0.010980
      py      :     0.017497
  3 H s       :     0.722529  s :     0.722529
      pz      :     0.017080  p :     0.041584
      px      :     0.010186
      py      :     0.014318

SPIN
  0 N s       :     0.000000  s :     0.000000
      pz      :     0.000000  p :     0.000000
      px      :     0.000000
      py      :     0.000000
      dz2     :     0.000000  d :     0.000000
      dxz     :     0.000000
      dyz     :     0.000000
      dx2y2   :     0.000000
      dxy     :     0.000000
  1 H s       :     0.000000  s :     0.000000
      pz      :     0.000000  p :     0.000000
      px      :     0.000000
      py      :     0.000000
  2 H s       :     0.000000  s :     0.000000
      pz      :     0.000000  p :     0.000000
      px      :     0.000000
      py      :     0.000000
  3 H s       :     0.000000  s :     0.000000
      pz      :     0.000000  p :     0.000000
      px      :     0.000000
      py      :     0.000000


                     *******************************
                     * LOEWDIN POPULATION ANALYSIS *
                     *******************************

-------------------------------------------
LOEWDIN ATOMIC CHARGES AND SPIN POPULATIONS
-------------------------------------------
   0 N :   -0.214751    0.000000
   1 H :    0.071324    0.000000
   2 H :    0.071686    0.000000
   3 H :    0.071742    0.000000

----------------------------------------------------
LOEWDIN REDUCED ORBITAL CHARGES AND SPIN POPULATIONS
----------------------------------------------------
CHARGE
  0 N s       :     3.087117  s :     3.087117
      pz      :     1.218049  p :     4.098338
      px      :     1.243957
      py      :     1.636331
      dz2     :     0.008350  d :     0.029297
      dxz     :     0.001910
      dyz     :     0.008017
      dx2y2   :     0.008392
      dxy     :     0.002628
  1 H s       :     0.802620  s :     0.802620
      pz      :     0.020993  p :     0.126056
      px      :     0.067629
      py      :     0.037435
  2 H s       :     0.802259  s :     0.802259
      pz      :     0.037518  p :     0.126056
      px      :     0.028551
      py      :     0.059986
  3 H s       :     0.802042  s :     0.802042
      pz      :     0.061442  p :     0.126216
      px      :     0.024789
      py      :     0.039986

SPIN
  0 N s       :     0.000000  s :     0.000000
      pz      :     0.000000  p :     0.000000
      px      :     0.000000
      py      :     0.000000
      dz2     :     0.000000  d :     0.000000
      dxz     :     0.000000
      dyz     :     0.000000
      dx2y2   :     0.000000
      dxy     :     0.000000
  1 H s       :     0.000000  s :     0.000000
      pz      :     0.000000  p :     0.000000
      px      :     0.000000
      py      :     0.000000
  2 H s       :     0.000000  s :     0.000000
      pz      :     0.000000  p :     0.000000
      px      :     0.000000
      py      :     0.000000
  3 H s       :     0.000000  s :     0.000000
      pz      :     0.000000  p :     0.000000
      px      :     0.000000
      py      :     0.000000


                      *****************************
                      * MAYER POPULATION ANALYSIS *
                      *****************************

  NA   - Mulliken gross atomic population
  ZA   - Total nuclear charge
  QA   - Mulliken gross atomic charge
  VA   - Mayer's total valence
  BVA  - Mayer's bonded valence
  FA   - Mayer's free valence

  ATOM       NA         ZA         QA         VA         BVA        FA
  0 N      7.7062     7.0000    -0.7062     2.8977     2.8977    -0.0000
  1 H      0.7648     1.0000     0.2352     0.9543     0.9543    -0.0000
  2 H      0.7649     1.0000     0.2351     0.9548     0.9548     0.0000
  3 H      0.7641     1.0000     0.2359     0.9548     0.9548    -0.0000

  Mayer bond orders larger than 0.100000
B(  0-N ,  1-H ) :   0.9654 B(  0-N ,  2-H ) :   0.9662 B(  0-N ,  3-H ) :   0.9660 


-------
TIMINGS
-------

Total SCF time: 0 days 0 hours 0 min 3 sec 

Total time                  ....       3.519 sec
Sum of individual times     ....       3.079 sec  ( 87.5%)

Fock matrix formation       ....       2.680 sec  ( 76.1%)
  XC integration            ....       0.327 sec  ( 12.2% of F)
    Basis function eval.    ....       0.015 sec  (  4.5% of XC)
    Density eval.           ....       0.058 sec  ( 17.7% of XC)
    XC-Functional eval.     ....       0.042 sec  ( 13.0% of XC)
    XC-Potential eval.      ....       0.040 sec  ( 12.3% of XC)
Diagonalization             ....       0.037 sec  (  1.1%)
Density matrix formation    ....       0.013 sec  (  0.4%)
Population analysis         ....       0.020 sec  (  0.6%)
Initial guess               ....       0.147 sec  (  4.2%)
Orbital Transformation      ....       0.000 sec  (  0.0%)
Orbital Orthonormalization  ....       0.000 sec  (  0.0%)
DIIS solution               ....       0.013 sec  (  0.4%)
Grid generation             ....       0.169 sec  (  4.8%)

-------------------------   --------------------
FINAL SINGLE POINT ENERGY       -56.546094451347
-------------------------   --------------------



           ************************************************************
           *        Program running with 12 parallel MPI-processes    *
           *              working on a common directory               *
           ************************************************************
------------------------------------------------------------------------------
                         ORCA SCF GRADIENT CALCULATION
------------------------------------------------------------------------------

Gradient of the Kohn-Sham DFT energy:
Kohn-Sham wavefunction type      ... UKS
Hartree-Fock exchange scaling    ...    0.540
Number of operators              ...    2
Number of atoms                  ...    4
Basis set dimensions             ...   43
Integral neglect threshold       ... 2.5e-11
Integral primitive cutoff        ... 2.5e-12

Nuclear repulsion gradient       ... done
One Electron Gradient            ... done
Pre-screening matrix             ... done
Starting the two electron gradient:
Two electron gradient done
Exchange-correlation gradient    ... done

------------------
CARTESIAN GRADIENT
------------------

   1   N   :    0.000680045   -0.001368418   -0.000683992
   2   H   :    0.001389483   -0.001587955   -0.000415519
   3   H   :    0.000208544   -0.002314240    0.000353481
   4   H   :    0.000381410   -0.001633626   -0.001199882

Difference to translation invariance:
           :    0.0026594814   -0.0069042395   -0.0019459128

Norm of the cartesian gradient     ...    0.0041479954
RMS gradient                       ...    0.0011974231
MAX gradient                       ...    0.0023142401

-------
TIMINGS
-------

Total SCF gradient time            ...        0.472 sec

One electron gradient       ....       0.010 sec  (  2.2%)
Prescreening matrices       ....       0.004 sec  (  0.9%)
Two electron gradient       ....       0.024 sec  (  5.1%)
XC gradient                 ....       0.097 sec  ( 20.5%)
------------------------------------------------------------------------------
                         ORCA GEOMETRY RELAXATION STEP
------------------------------------------------------------------------------

Reading the OPT-File                    .... done
Getting information on internals        .... done
Copying old internal coords+grads       .... done
Making the new internal coordinates     .... (new redundants).... done
Validating the new internal coordinates .... (new redundants).... done
Calculating the B-matrix                .... done
Calculating the G,G- and P matrices     .... done
Transforming gradient to internals      .... done
Projecting the internal gradient        .... done
Number of atoms                         ....   4
Number of internal coordinates          ....   7
Current Energy                          ....   -56.546094451 Eh
Current gradient norm                   ....     0.004147995 Eh/bohr
Maximum allowed component of the step   ....  0.300
Current trust radius                    ....  0.300
Evaluating the initial hessian          ....  (Almloef) done
Projecting the Hessian                  .... done
Forming the augmented Hessian           .... done
Diagonalizing the augmented Hessian     .... done
Last element of RFO vector              ....  0.999986689
Lowest eigenvalues of augmented Hessian:
 -0.000007091  0.110821447  0.301129991  0.301130462  0.423274703
Length of the computed step             ....  0.005159702
The final length of the internal step   ....  0.005159702
Converting the step to cartesian space:
 Initial RMS(Int)=    0.0019501840
Transforming coordinates:
 Iter   0:  RMS(Cart)=    0.0014540049 RMS(Int)=    0.0019506068
 Iter   1:  RMS(Cart)=    0.0000008979 RMS(Int)=    0.0000019079
 Iter   2:  RMS(Cart)=    0.0000000017 RMS(Int)=    0.0000000025
done
Storing new coordinates                 .... done

                                .--------------------.
          ----------------------|Geometry convergence|-------------------------
          Item                value                   Tolerance       Converged
          ---------------------------------------------------------------------
          RMS gradient        0.0005978441            0.0000300000      NO
          MAX gradient        0.0010863925            0.0001000000      NO
          RMS step            0.0019501840            0.0006000000      NO
          MAX step            0.0028573958            0.0010000000      NO
          ........................................................
          Max(Bonds)      0.0014      Max(Angles)    0.10
          Max(Dihed)        0.00      Max(Improp)    0.16
          ---------------------------------------------------------------------

The optimization has not yet converged - more geometry cycles are needed


    ---------------------------------------------------------------------------
                         Redundant Internal Coordinates
                            (Angstroem and degrees)

        Definition                    Value    dE/dq     Step     New-Value
    ----------------------------------------------------------------------------
     1. B(H   1,N   0)                1.0160  0.000708 -0.0009    1.0151   
     2. B(H   2,N   0)                1.0160  0.001086 -0.0014    1.0146   
     3. B(H   3,N   0)                1.0160  0.000723 -0.0009    1.0151   
     4. A(H   1,N   0,H   3)          106.40  0.000098   -0.07    106.33   
     5. A(H   2,N   0,H   3)          106.40  0.000426   -0.10    106.30   
     6. A(H   1,N   0,H   2)          106.40  0.000083   -0.07    106.33   
     7. I(H   1,H   3,H   2,N   0)    -61.88  0.000317   -0.16    -62.04   
    ----------------------------------------------------------------------------

         *************************************************************
         *                GEOMETRY OPTIMIZATION CYCLE   2            *
         *************************************************************
---------------------------------
CARTESIAN COORDINATES (ANGSTROEM)
---------------------------------
  N     -0.982736    0.232610   -0.834562
  H      0.027695    0.157846   -0.772113
  H     -1.360165   -0.494031   -0.235364
  H     -1.229769   -0.024929   -1.784861

----------------------------
CARTESIAN COORDINATES (A.U.)
----------------------------
  NO LB      ZA    FRAG     MASS         X           Y           Z
   0 N     7.0000    0    14.007   -1.857101    0.439568   -1.577093
   1 H     1.0000    0     1.008    0.052336    0.298286   -1.459082
   2 H     1.0000    0     1.008   -2.570339   -0.933584   -0.444773
   3 H     1.0000    0     1.008   -2.323926   -0.047109   -3.372898

--------------------------------
INTERNAL COORDINATES (ANGSTROEM)
--------------------------------
 N      0   0   0     0.000000000000     0.00000000     0.00000000
 H      1   0   0     1.015115292095     0.00000000     0.00000000
 H      1   2   0     1.014641817421   106.33129943     0.00000000
 H      1   2   3     1.015096377278   106.32840388   247.01034280

---------------------------
INTERNAL COORDINATES (A.U.)
---------------------------
 N      0   0   0     0.000000000000     0.00000000     0.00000000
 H      1   0   0     1.918289896415     0.00000000     0.00000000
 H      1   2   0     1.917395158950   106.33129943     0.00000000
 H      1   2   3     1.918254152591   106.32840388   247.01034280



           ************************************************************
           *        Program running with 12 parallel MPI-processes    *
           *              working on a common directory               *
           ************************************************************


           ************************************************************
           *        Program running with 12 parallel MPI-processes    *
           *              working on a common directory               *
           ************************************************************

Diagonalization of the overlap matrix:
Smallest eigenvalue                        ... 2.417e-03
Time for diagonalization                   ...    0.001 sec
Threshold for overlap eigenvalues          ... 1.000e-08
Number of eigenvalues below threshold      ... 0
Time for construction of square roots      ...    0.009 sec
Total time needed                          ...    0.011 sec

-------------------
DFT GRID GENERATION
-------------------

General Integration Accuracy     IntAcc      ...  4.340
Radial Grid Type                 RadialGrid  ... Gauss-Chebyshev
Angular Grid (max. acc.)         AngularGrid ... Lebedev-110
Angular grid pruning method      GridPruning ... 3 (G Style)
Weight generation scheme         WeightScheme... Becke
Basis function cutoff            BFCut       ...    1.0000e-11
Integration weight cutoff        WCut        ...    1.0000e-14
Grids for H and He will be reduced by one unit

# of grid points (after initial pruning)     ...   4084 (   0.0 sec)
# of grid points (after weights+screening)   ...   4021 (   0.0 sec)
nearest neighbour list constructed           ...    0.0 sec
Grid point re-assignment to atoms done       ...    0.0 sec
Grid point division into batches done        ...    0.0 sec
Reduced shell lists constructed in    0.0 sec

Total number of grid points                  ...     4021
Total number of batches                      ...       65
Average number of points per batch           ...       61
Average number of grid points per atom       ...     1005
Average number of shells per batch           ...    20.86 (83.43%)
Average number of basis functions per batch  ...    36.00 (83.72%)
Average number of large shells per batch     ...    20.29 (97.26%)
Average number of large basis fcns per batch ...    35.14 (97.62%)
Maximum spatial batch extension              ...  14.74, 14.48, 14.84 au
Average spatial batch extension              ...   0.47,  0.51,  0.57 au

Time for grid setup =    0.019 sec

--------------
SCF ITERATIONS
--------------
ITER       Energy         Delta-E        Max-DP      RMS-DP      [F,P]     Damp
               ***  Starting incremental Fock matrix formation  ***
  0    -56.5461643004   0.000000000000 0.00004170  0.00000366  0.0005887 0.7000
  1    -56.5461645582  -0.000000257867 0.00004757  0.00000348  0.0004410 0.7000
                               ***Turning on DIIS***
  2    -56.5461647316  -0.000000173410 0.00014024  0.00000955  0.0003191 0.0000
  3    -56.5461651358  -0.000000404133 0.00003566  0.00000188  0.0000722 0.0000
  4    -56.5461651399  -0.000000004092 0.00001524  0.00000072  0.0000689 0.0000
  5    -56.5461651441  -0.000000004276 0.00000292  0.00000026  0.0000088 0.0000
                 **** Energy Check signals convergence ****

               *****************************************************
               *                     SUCCESS                       *
               *           SCF CONVERGED AFTER   6 CYCLES          *
               *****************************************************

Setting up the final grid:

General Integration Accuracy     IntAcc      ...  4.670
Radial Grid Type                 RadialGrid  ... Gauss-Chebyshev
Angular Grid (max. acc.)         AngularGrid ... Lebedev-302
Angular grid pruning method      GridPruning ... 3 (G Style)
Weight generation scheme         WeightScheme... Becke
Basis function cutoff            BFCut       ...    1.0000e-11
Integration weight cutoff        WCut        ...    1.0000e-14
Grids for H and He will be reduced by one unit

# of grid points (after initial pruning)     ...  16394 (   0.0 sec)
# of grid points (after weights+screening)   ...  16105 (   0.0 sec)
nearest neighbour list constructed           ...    0.0 sec
Grid point re-assignment to atoms done       ...    0.0 sec
Grid point division into batches done        ...    0.1 sec
Reduced shell lists constructed in    0.1 sec

Total number of grid points                  ...    16105
Total number of batches                      ...      254
Average number of points per batch           ...       63
Average number of grid points per atom       ...     4026
Average number of shells per batch           ...    21.74 (86.96%)
Average number of basis functions per batch  ...    37.04 (86.15%)
Average number of large shells per batch     ...    20.61 (94.80%)
Average number of large basis fcns per batch ...    35.30 (95.31%)
Maximum spatial batch extension              ...  13.38, 12.45, 10.93 au
Average spatial batch extension              ...   0.29,  0.31,  0.28 au

Final grid set up in    0.1 sec
Final integration                            ... done (   0.1 sec)
Change in XC energy                          ...     0.000074814
Integrated number of electrons               ...    10.000000241
Previous integrated no of electrons          ...    10.003291145
Total Energy       :          -56.54609033 Eh           -1538.69734 eV
  Last Energy change         ...   -1.0893e-10  Tolerance :   1.0000e-08
  Last MAX-Density change    ...    4.0459e-07  Tolerance :   1.0000e-07
             **** THE GBW FILE WAS UPDATED (NH3.gbw) ****
             **** DENSITY FILE WAS UPDATED (NH3.scfp) ****
             **** ENERGY FILE WAS UPDATED (NH3.en.tmp) ****
----------------------
UHF SPIN CONTAMINATION
----------------------

Warning: in a DFT calculation there is little theoretical justification to 
         calculate <S**2> as in Hartree-Fock theory. We will do it anyways
         but you should keep in mind that the values have only limited relevance

Expectation value of <S**2>     :    -0.000000
Ideal value S*(S+1) for S=0.0   :     0.000000
Deviation                       :    -0.000000

             **** THE GBW FILE WAS UPDATED (NH3.gbw) ****
             **** DENSITY FILE WAS UPDATED (NH3.scfp) ****
Total SCF time: 0 days 0 hours 0 min 2 sec 

-------------------------   --------------------
FINAL SINGLE POINT ENERGY       -56.546090329909
-------------------------   --------------------



           ************************************************************
           *        Program running with 12 parallel MPI-processes    *
           *              working on a common directory               *
           ************************************************************
------------------------------------------------------------------------------
                         ORCA SCF GRADIENT CALCULATION
------------------------------------------------------------------------------

Gradient of the Kohn-Sham DFT energy:
Kohn-Sham wavefunction type      ... UKS
Hartree-Fock exchange scaling    ...    0.540
Number of operators              ...    2
Number of atoms                  ...    4
Basis set dimensions             ...   43
Integral neglect threshold       ... 2.5e-11
Integral primitive cutoff        ... 2.5e-12

Nuclear repulsion gradient       ... done
One Electron Gradient            ... done
Pre-screening matrix             ... done
Starting the two electron gradient:
Two electron gradient done
Exchange-correlation gradient    ... done

------------------
CARTESIAN GRADIENT
------------------

   1   N   :    0.000738110   -0.002085956   -0.000590293
   2   H   :    0.000552552   -0.001671214   -0.000504790
   3   H   :    0.000738178   -0.001544847   -0.000508820
   4   H   :    0.000634826   -0.001587565   -0.000357878

Difference to translation invariance:
           :    0.0026636658   -0.0068895823   -0.0019617814

Norm of the cartesian gradient     ...    0.0038521876
RMS gradient                       ...    0.0011120308
MAX gradient                       ...    0.0020859561

-------
TIMINGS
-------

Total SCF gradient time            ...        0.603 sec

One electron gradient       ....       0.044 sec  (  7.3%)
Prescreening matrices       ....       0.004 sec  (  0.6%)
Two electron gradient       ....       0.034 sec  (  5.7%)
XC gradient                 ....       0.127 sec  ( 21.0%)
------------------------------------------------------------------------------
                         ORCA GEOMETRY RELAXATION STEP
------------------------------------------------------------------------------

Reading the OPT-File                    .... done
Getting information on internals        .... done
Copying old internal coords+grads       .... done
Making the new internal coordinates     .... (new redundants).... done
Validating the new internal coordinates .... (new redundants).... done
Calculating the B-matrix                .... done
Calculating the G,G- and P matrices     .... done
Transforming gradient to internals      .... done
Projecting the internal gradient        .... done
Number of atoms                         ....   4
Number of internal coordinates          ....   7
Current Energy                          ....   -56.546090330 Eh
Current gradient norm                   ....     0.003852188 Eh/bohr
Maximum allowed component of the step   ....  0.300
Current trust radius                    ....  0.300
Updating the Hessian (BFGS)             .... done
Forming the augmented Hessian           .... done
Diagonalizing the augmented Hessian     .... done
Last element of RFO vector              ....  0.999999077
Lowest eigenvalues of augmented Hessian:
 -0.000000312  0.097295246  0.288721170  0.301186506  0.422995065
Length of the computed step             ....  0.001358389
The final length of the internal step   ....  0.001358389
Converting the step to cartesian space:
 Initial RMS(Int)=    0.0005134230
Transforming coordinates:
 Iter   0:  RMS(Cart)=    0.0002294914 RMS(Int)=    0.0005134098
 Iter   1:  RMS(Cart)=    0.0000001045 RMS(Int)=    0.0000001364
 Iter   2:  RMS(Cart)=    0.0000000000 RMS(Int)=    0.0000000001
done
Storing new coordinates                 .... done

                                .--------------------.
          ----------------------|Geometry convergence|-------------------------
          Item                value                   Tolerance       Converged
          ---------------------------------------------------------------------
          Energy change       0.0000041214            0.0000010000      NO
          RMS gradient        0.0001162017            0.0000300000      NO
          MAX gradient        0.0001654788            0.0001000000      NO
          RMS step            0.0005134230            0.0006000000      YES
          MAX step            0.0009640124            0.0010000000      YES
          ........................................................
          Max(Bonds)      0.0001      Max(Angles)    0.04
          Max(Dihed)        0.00      Max(Improp)    0.06
          ---------------------------------------------------------------------

The optimization has not yet converged - more geometry cycles are needed


    ---------------------------------------------------------------------------
                         Redundant Internal Coordinates
                            (Angstroem and degrees)

        Definition                    Value    dE/dq     Step     New-Value
    ----------------------------------------------------------------------------
     1. B(H   1,N   0)                1.0151 -0.000125  0.0001    1.0152   
     2. B(H   2,N   0)                1.0146 -0.000165  0.0001    1.0148   
     3. B(H   3,N   0)                1.0151 -0.000142  0.0001    1.0152   
     4. A(H   1,N   0,H   3)          106.33  0.000044   -0.03    106.30   
     5. A(H   2,N   0,H   3)          106.30  0.000141   -0.04    106.26   
     6. A(H   1,N   0,H   2)          106.33  0.000008   -0.02    106.31   
     7. I(H   1,H   3,H   2,N   0)    -62.04  0.000097   -0.06    -62.10   
    ----------------------------------------------------------------------------

         *************************************************************
         *                GEOMETRY OPTIMIZATION CYCLE   3            *
         *************************************************************
---------------------------------
CARTESIAN COORDINATES (ANGSTROEM)
---------------------------------
  N     -0.982811    0.232932   -0.834455
  H      0.027713    0.157756   -0.772171
  H     -1.360152   -0.494127   -0.235469
  H     -1.229724   -0.025065   -1.784803

----------------------------
CARTESIAN COORDINATES (A.U.)
----------------------------
  NO LB      ZA    FRAG     MASS         X           Y           Z
   0 N     7.0000    0    14.007   -1.857243    0.440177   -1.576892
   1 H     1.0000    0     1.008    0.052370    0.298115   -1.459192
   2 H     1.0000    0     1.008   -2.570315   -0.933765   -0.444973
   3 H     1.0000    0     1.008   -2.323842   -0.047366   -3.372789

--------------------------------
INTERNAL COORDINATES (ANGSTROEM)
--------------------------------
 N      0   0   0     0.000000000000     0.00000000     0.00000000
 H      1   0   0     1.015228527770     0.00000000     0.00000000
 H      1   2   0     1.014783022828   106.31131508     0.00000000
 H      1   2   3     1.015228866097   106.30161363   247.07197627

---------------------------
INTERNAL COORDINATES (A.U.)
---------------------------
 N      0   0   0     0.000000000000     0.00000000     0.00000000
 H      1   0   0     1.918503880830     0.00000000     0.00000000
 H      1   2   0     1.917661998498   106.31131508     0.00000000
 H      1   2   3     1.918504520174   106.30161363   247.07197627



           ************************************************************
           *        Program running with 12 parallel MPI-processes    *
           *              working on a common directory               *
           ************************************************************


           ************************************************************
           *        Program running with 12 parallel MPI-processes    *
           *              working on a common directory               *
           ************************************************************

Diagonalization of the overlap matrix:
Smallest eigenvalue                        ... 2.415e-03
Time for diagonalization                   ...    0.001 sec
Threshold for overlap eigenvalues          ... 1.000e-08
Number of eigenvalues below threshold      ... 0
Time for construction of square roots      ...    0.009 sec
Total time needed                          ...    0.010 sec

-------------------
DFT GRID GENERATION
-------------------

General Integration Accuracy     IntAcc      ...  4.340
Radial Grid Type                 RadialGrid  ... Gauss-Chebyshev
Angular Grid (max. acc.)         AngularGrid ... Lebedev-110
Angular grid pruning method      GridPruning ... 3 (G Style)
Weight generation scheme         WeightScheme... Becke
Basis function cutoff            BFCut       ...    1.0000e-11
Integration weight cutoff        WCut        ...    1.0000e-14
Grids for H and He will be reduced by one unit

# of grid points (after initial pruning)     ...   4084 (   0.0 sec)
# of grid points (after weights+screening)   ...   4021 (   0.0 sec)
nearest neighbour list constructed           ...    0.0 sec
Grid point re-assignment to atoms done       ...    0.0 sec
Grid point division into batches done        ...    0.0 sec
Reduced shell lists constructed in    0.0 sec

Total number of grid points                  ...     4021
Total number of batches                      ...       65
Average number of points per batch           ...       61
Average number of grid points per atom       ...     1005
Average number of shells per batch           ...    20.86 (83.43%)
Average number of basis functions per batch  ...    36.00 (83.72%)
Average number of large shells per batch     ...    20.29 (97.26%)
Average number of large basis fcns per batch ...    35.14 (97.62%)
Maximum spatial batch extension              ...  14.74, 14.48, 14.84 au
Average spatial batch extension              ...   0.47,  0.51,  0.57 au

Time for grid setup =    0.039 sec

--------------
SCF ITERATIONS
--------------
ITER       Energy         Delta-E        Max-DP      RMS-DP      [F,P]     Damp
               ***  Starting incremental Fock matrix formation  ***
  0    -56.5461613234   0.000000000000 0.00002176  0.00000154  0.0001386 0.7000
  1    -56.5461613411  -0.000000017622 0.00001941  0.00000141  0.0000857 0.7000
                               ***Turning on DIIS***
  2    -56.5461613534  -0.000000012346 0.00005320  0.00000359  0.0000646 0.0000
  3    -56.5461613847  -0.000000031328 0.00001697  0.00000087  0.0000195 0.0000
  4    -56.5461613854  -0.000000000665 0.00000442  0.00000027  0.0000239 0.0000
                 **** Energy Check signals convergence ****

               *****************************************************
               *                     SUCCESS                       *
               *           SCF CONVERGED AFTER   5 CYCLES          *
               *****************************************************

Setting up the final grid:

General Integration Accuracy     IntAcc      ...  4.670
Radial Grid Type                 RadialGrid  ... Gauss-Chebyshev
Angular Grid (max. acc.)         AngularGrid ... Lebedev-302
Angular grid pruning method      GridPruning ... 3 (G Style)
Weight generation scheme         WeightScheme... Becke
Basis function cutoff            BFCut       ...    1.0000e-11
Integration weight cutoff        WCut        ...    1.0000e-14
Grids for H and He will be reduced by one unit

# of grid points (after initial pruning)     ...  16394 (   0.0 sec)
# of grid points (after weights+screening)   ...  16106 (   0.0 sec)
nearest neighbour list constructed           ...    0.0 sec
Grid point re-assignment to atoms done       ...    0.0 sec
Grid point division into batches done        ...    0.1 sec
Reduced shell lists constructed in    0.1 sec

Total number of grid points                  ...    16106
Total number of batches                      ...      254
Average number of points per batch           ...       63
Average number of grid points per atom       ...     4026
Average number of shells per batch           ...    21.74 (86.96%)
Average number of basis functions per batch  ...    37.04 (86.15%)
Average number of large shells per batch     ...    20.61 (94.80%)
Average number of large basis fcns per batch ...    35.30 (95.31%)
Maximum spatial batch extension              ...  13.38, 12.46, 10.93 au
Average spatial batch extension              ...   0.29,  0.31,  0.28 au

Final grid set up in    0.1 sec
Final integration                            ... done (   0.1 sec)
Change in XC energy                          ...     0.000075527
Integrated number of electrons               ...    10.000000295
Previous integrated no of electrons          ...    10.003288120
Total Energy       :          -56.54608586 Eh           -1538.69722 eV
  Last Energy change         ...   -5.1958e-10  Tolerance :   1.0000e-08
  Last MAX-Density change    ...    2.5607e-06  Tolerance :   1.0000e-07
             **** THE GBW FILE WAS UPDATED (NH3.gbw) ****
             **** DENSITY FILE WAS UPDATED (NH3.scfp) ****
             **** ENERGY FILE WAS UPDATED (NH3.en.tmp) ****
----------------------
UHF SPIN CONTAMINATION
----------------------

Warning: in a DFT calculation there is little theoretical justification to 
         calculate <S**2> as in Hartree-Fock theory. We will do it anyways
         but you should keep in mind that the values have only limited relevance

Expectation value of <S**2>     :     0.000000
Ideal value S*(S+1) for S=0.0   :     0.000000
Deviation                       :     0.000000

             **** THE GBW FILE WAS UPDATED (NH3.gbw) ****
             **** DENSITY FILE WAS UPDATED (NH3.scfp) ****
Total SCF time: 0 days 0 hours 0 min 2 sec 

-------------------------   --------------------
FINAL SINGLE POINT ENERGY       -56.546085858938
-------------------------   --------------------



           ************************************************************
           *        Program running with 12 parallel MPI-processes    *
           *              working on a common directory               *
           ************************************************************
------------------------------------------------------------------------------
                         ORCA SCF GRADIENT CALCULATION
------------------------------------------------------------------------------

Gradient of the Kohn-Sham DFT energy:
Kohn-Sham wavefunction type      ... UKS
Hartree-Fock exchange scaling    ...    0.540
Number of operators              ...    2
Number of atoms                  ...    4
Basis set dimensions             ...   43
Integral neglect threshold       ... 2.5e-11
Integral primitive cutoff        ... 2.5e-12

Nuclear repulsion gradient       ... done
One Electron Gradient            ... done
Pre-screening matrix             ... done
Starting the two electron gradient:
Two electron gradient done
Exchange-correlation gradient    ... done

------------------
CARTESIAN GRADIENT
------------------

   1   N   :    0.000718482   -0.001930117   -0.000543404
   2   H   :    0.000624883   -0.001693256   -0.000513817
   3   H   :    0.000702303   -0.001633947   -0.000478785
   4   H   :    0.000620109   -0.001641522   -0.000428588

Difference to translation invariance:
           :    0.0026657766   -0.0068988421   -0.0019645930

Norm of the cartesian gradient     ...    0.0038358209
RMS gradient                       ...    0.0011073061
MAX gradient                       ...    0.0019301169

-------
TIMINGS
-------

Total SCF gradient time            ...        0.361 sec

One electron gradient       ....       0.031 sec  (  8.7%)
Prescreening matrices       ....       0.003 sec  (  0.9%)
Two electron gradient       ....       0.019 sec  (  5.2%)
XC gradient                 ....       0.096 sec  ( 26.7%)
------------------------------------------------------------------------------
                         ORCA GEOMETRY RELAXATION STEP
------------------------------------------------------------------------------

Reading the OPT-File                    .... done
Getting information on internals        .... done
Copying old internal coords+grads       .... done
Making the new internal coordinates     .... (new redundants).... done
Validating the new internal coordinates .... (new redundants).... done
Calculating the B-matrix                .... done
Calculating the G,G- and P matrices     .... done
Transforming gradient to internals      .... done
Projecting the internal gradient        .... done
Number of atoms                         ....   4
Number of internal coordinates          ....   7
Current Energy                          ....   -56.546085859 Eh
Current gradient norm                   ....     0.003835821 Eh/bohr
Maximum allowed component of the step   ....  0.300
Current trust radius                    ....  0.300
Updating the Hessian (BFGS)             .... done
Forming the augmented Hessian           .... done
Diagonalizing the augmented Hessian     .... done
Last element of RFO vector              ....  0.999997115
Lowest eigenvalues of augmented Hessian:
 -0.000000296  0.046543116  0.267860919  0.301226108  0.423133227
Length of the computed step             ....  0.002402060
The final length of the internal step   ....  0.002402060
Converting the step to cartesian space:
 Initial RMS(Int)=    0.0009078934
Transforming coordinates:
 Iter   0:  RMS(Cart)=    0.0004205152 RMS(Int)=    0.0009078837
 Iter   1:  RMS(Cart)=    0.0000003116 RMS(Int)=    0.0000004180
 Iter   2:  RMS(Cart)=    0.0000000002 RMS(Int)=    0.0000000003
done
Storing new coordinates                 .... done

                                .--------------------.
          ----------------------|Geometry convergence|-------------------------
          Item                value                   Tolerance       Converged
          ---------------------------------------------------------------------
          Energy change       0.0000044710            0.0000010000      NO
          RMS gradient        0.0000593035            0.0000300000      NO
          MAX gradient        0.0000858770            0.0001000000      YES
          RMS step            0.0009078934            0.0006000000      NO
          MAX step            0.0017891446            0.0010000000      NO
          ........................................................
          Max(Bonds)      0.0001      Max(Angles)    0.06
          Max(Dihed)        0.00      Max(Improp)    0.10
          ---------------------------------------------------------------------

The optimization has not yet converged - more geometry cycles are needed


    ---------------------------------------------------------------------------
                         Redundant Internal Coordinates
                            (Angstroem and degrees)

        Definition                    Value    dE/dq     Step     New-Value
    ----------------------------------------------------------------------------
     1. B(H   1,N   0)                1.0152 -0.000053  0.0001    1.0153   
     2. B(H   2,N   0)                1.0148 -0.000072  0.0001    1.0149   
     3. B(H   3,N   0)                1.0152 -0.000060  0.0001    1.0154   
     4. A(H   1,N   0,H   3)          106.30  0.000030   -0.05    106.25   
     5. A(H   2,N   0,H   3)          106.26  0.000086   -0.06    106.20   
     6. A(H   1,N   0,H   2)          106.31  0.000012   -0.04    106.27   
     7. I(H   1,H   3,H   2,N   0)    -62.10  0.000068   -0.10    -62.20   
    ----------------------------------------------------------------------------

         *************************************************************
         *                GEOMETRY OPTIMIZATION CYCLE   4            *
         *************************************************************
---------------------------------
CARTESIAN COORDINATES (ANGSTROEM)
---------------------------------
  N     -0.982959    0.233485   -0.834278
  H      0.027645    0.157559   -0.772281
  H     -1.360058   -0.494249   -0.235707
  H     -1.229602   -0.025299   -1.784632

----------------------------
CARTESIAN COORDINATES (A.U.)
----------------------------
  NO LB      ZA    FRAG     MASS         X           Y           Z
   0 N     7.0000    0    14.007   -1.857524    0.441223   -1.576557
   1 H     1.0000    0     1.008    0.052241    0.297743   -1.459400
   2 H     1.0000    0     1.008   -2.570137   -0.933995   -0.445422
   3 H     1.0000    0     1.008   -2.323612   -0.047809   -3.372466

--------------------------------
INTERNAL COORDINATES (ANGSTROEM)
--------------------------------
 N      0   0   0     0.000000000000     0.00000000     0.00000000
 H      1   0   0     1.015346955279     0.00000000     0.00000000
 H      1   2   0     1.014932070580   106.27128526     0.00000000
 H      1   2   3     1.015369097857   106.25223650   247.18063861

---------------------------
INTERNAL COORDINATES (A.U.)
---------------------------
 N      0   0   0     0.000000000000     0.00000000     0.00000000
 H      1   0   0     1.918727676388     0.00000000     0.00000000
 H      1   2   0     1.917943657929   106.27128526     0.00000000
 H      1   2   3     1.918769519797   106.25223650   247.18063861



           ************************************************************
           *        Program running with 12 parallel MPI-processes    *
           *              working on a common directory               *
           ************************************************************


           ************************************************************
           *        Program running with 12 parallel MPI-processes    *
           *              working on a common directory               *
           ************************************************************

Diagonalization of the overlap matrix:
Smallest eigenvalue                        ... 2.409e-03
Time for diagonalization                   ...    0.002 sec
Threshold for overlap eigenvalues          ... 1.000e-08
Number of eigenvalues below threshold      ... 0
Time for construction of square roots      ...    0.001 sec
Total time needed                          ...    0.003 sec

-------------------
DFT GRID GENERATION
-------------------

General Integration Accuracy     IntAcc      ...  4.340
Radial Grid Type                 RadialGrid  ... Gauss-Chebyshev
Angular Grid (max. acc.)         AngularGrid ... Lebedev-110
Angular grid pruning method      GridPruning ... 3 (G Style)
Weight generation scheme         WeightScheme... Becke
Basis function cutoff            BFCut       ...    1.0000e-11
Integration weight cutoff        WCut        ...    1.0000e-14
Grids for H and He will be reduced by one unit

# of grid points (after initial pruning)     ...   4084 (   0.0 sec)
# of grid points (after weights+screening)   ...   4021 (   0.0 sec)
nearest neighbour list constructed           ...    0.0 sec
Grid point re-assignment to atoms done       ...    0.0 sec
Grid point division into batches done        ...    0.0 sec
Reduced shell lists constructed in    0.0 sec

Total number of grid points                  ...     4021
Total number of batches                      ...       65
Average number of points per batch           ...       61
Average number of grid points per atom       ...     1005
Average number of shells per batch           ...    20.86 (83.43%)
Average number of basis functions per batch  ...    36.00 (83.72%)
Average number of large shells per batch     ...    20.29 (97.26%)
Average number of large basis fcns per batch ...    35.14 (97.62%)
Maximum spatial batch extension              ...  14.74, 14.48, 14.84 au
Average spatial batch extension              ...   0.47,  0.51,  0.57 au

Time for grid setup =    0.019 sec

--------------
SCF ITERATIONS
--------------
ITER       Energy         Delta-E        Max-DP      RMS-DP      [F,P]     Damp
               ***  Starting incremental Fock matrix formation  ***
  0    -56.5461543371   0.000000000000 0.00003343  0.00000257  0.0001998 0.7000
  1    -56.5461543833  -0.000000046209 0.00003018  0.00000237  0.0001553 0.7000
                               ***Turning on DIIS***
  2    -56.5461544166  -0.000000033352 0.00008397  0.00000609  0.0001170 0.0000
  3    -56.5461545027  -0.000000086026 0.00002624  0.00000145  0.0000261 0.0000
  4    -56.5461545044  -0.000000001739 0.00000614  0.00000040  0.0000362 0.0000
  5    -56.5461545056  -0.000000001189 0.00000413  0.00000029  0.0000022 0.0000
                 **** Energy Check signals convergence ****

               *****************************************************
               *                     SUCCESS                       *
               *           SCF CONVERGED AFTER   6 CYCLES          *
               *****************************************************

Setting up the final grid:

General Integration Accuracy     IntAcc      ...  4.670
Radial Grid Type                 RadialGrid  ... Gauss-Chebyshev
Angular Grid (max. acc.)         AngularGrid ... Lebedev-302
Angular grid pruning method      GridPruning ... 3 (G Style)
Weight generation scheme         WeightScheme... Becke
Basis function cutoff            BFCut       ...    1.0000e-11
Integration weight cutoff        WCut        ...    1.0000e-14
Grids for H and He will be reduced by one unit

# of grid points (after initial pruning)     ...  16394 (   0.0 sec)
# of grid points (after weights+screening)   ...  16106 (   0.0 sec)
nearest neighbour list constructed           ...    0.0 sec
Grid point re-assignment to atoms done       ...    0.0 sec
Grid point division into batches done        ...    0.1 sec
Reduced shell lists constructed in    0.1 sec

Total number of grid points                  ...    16106
Total number of batches                      ...      254
Average number of points per batch           ...       63
Average number of grid points per atom       ...     4026
Average number of shells per batch           ...    21.61 (86.43%)
Average number of basis functions per batch  ...    36.83 (85.64%)
Average number of large shells per batch     ...    20.52 (94.97%)
Average number of large basis fcns per batch ...    35.04 (95.16%)
Maximum spatial batch extension              ...  13.38, 12.46, 10.93 au
Average spatial batch extension              ...   0.29,  0.31,  0.28 au

Final grid set up in    0.2 sec
Final integration                            ... done (   0.2 sec)
Change in XC energy                          ...     0.000076613
Integrated number of electrons               ...    10.000000395
Previous integrated no of electrons          ...    10.003284730
Total Energy       :          -56.54607789 Eh           -1538.69701 eV
  Last Energy change         ...   -4.3840e-11  Tolerance :   1.0000e-08
  Last MAX-Density change    ...    7.6385e-07  Tolerance :   1.0000e-07
             **** THE GBW FILE WAS UPDATED (NH3.gbw) ****
             **** DENSITY FILE WAS UPDATED (NH3.scfp) ****
             **** ENERGY FILE WAS UPDATED (NH3.en.tmp) ****
----------------------
UHF SPIN CONTAMINATION
----------------------

Warning: in a DFT calculation there is little theoretical justification to 
         calculate <S**2> as in Hartree-Fock theory. We will do it anyways
         but you should keep in mind that the values have only limited relevance

Expectation value of <S**2>     :    -0.000000
Ideal value S*(S+1) for S=0.0   :     0.000000
Deviation                       :    -0.000000

             **** THE GBW FILE WAS UPDATED (NH3.gbw) ****
             **** DENSITY FILE WAS UPDATED (NH3.scfp) ****
Total SCF time: 0 days 0 hours 0 min 2 sec 

-------------------------   --------------------
FINAL SINGLE POINT ENERGY       -56.546077893113
-------------------------   --------------------



           ************************************************************
           *        Program running with 12 parallel MPI-processes    *
           *              working on a common directory               *
           ************************************************************
------------------------------------------------------------------------------
                         ORCA SCF GRADIENT CALCULATION
------------------------------------------------------------------------------

Gradient of the Kohn-Sham DFT energy:
Kohn-Sham wavefunction type      ... UKS
Hartree-Fock exchange scaling    ...    0.540
Number of operators              ...    2
Number of atoms                  ...    4
Basis set dimensions             ...   43
Integral neglect threshold       ... 2.5e-11
Integral primitive cutoff        ... 2.5e-12

Nuclear repulsion gradient       ... done
One Electron Gradient            ... done
Pre-screening matrix             ... done
Starting the two electron gradient:
Two electron gradient done
Exchange-correlation gradient    ... done

------------------
CARTESIAN GRADIENT
------------------

   1   N   :    0.000688114   -0.001726195   -0.000480636
   2   H   :    0.000678354   -0.001737576   -0.000534104
   3   H   :    0.000682295   -0.001731273   -0.000476792
   4   H   :    0.000620806   -0.001718157   -0.000478074

Difference to translation invariance:
           :    0.0026695685   -0.0069131994   -0.0019696048

Norm of the cartesian gradient     ...    0.0038347147
RMS gradient                       ...    0.0011069868
MAX gradient                       ...    0.0017375758

-------
TIMINGS
-------

Total SCF gradient time            ...        0.493 sec

One electron gradient       ....       0.005 sec  (  1.0%)
Prescreening matrices       ....       0.006 sec  (  1.1%)
Two electron gradient       ....       0.040 sec  (  8.0%)
XC gradient                 ....       0.127 sec  ( 25.7%)
------------------------------------------------------------------------------
                         ORCA GEOMETRY RELAXATION STEP
------------------------------------------------------------------------------

Reading the OPT-File                    .... done
Getting information on internals        .... done
Copying old internal coords+grads       .... done
[...]
MULLIKEN ATOMIC CHARGES AND SPIN POPULATIONS
--------------------------------------------
   0 N :   -0.705394    0.000000
   1 H :    0.234997    0.000000
   2 H :    0.234838    0.000000
   3 H :    0.235559    0.000000
Sum of atomic charges         :   -0.0000000
Sum of atomic spin populations:    0.0000000

-----------------------------------------------------
MULLIKEN REDUCED ORBITAL CHARGES AND SPIN POPULATIONS
-----------------------------------------------------
CHARGE
  0 N s       :     3.552471  s :     3.552471
      pz      :     1.197032  p :     4.131765
      px      :     1.227310
      py      :     1.707423
      dz2     :     0.005160  d :     0.021158
      dxz     :     0.000328
      dyz     :     0.006444
      dx2y2   :     0.006482
      dxy     :     0.002744
  1 H s       :     0.723467  s :     0.723467
      pz      :     0.009107  p :     0.041536
      px      :     0.018318
      py      :     0.014111
  2 H s       :     0.723632  s :     0.723632
      pz      :     0.012988  p :     0.041531
      px      :     0.011018
      py      :     0.017524
  3 H s       :     0.722796  s :     0.722796
      pz      :     0.017077  p :     0.041645
      px      :     0.010223
      py      :     0.014345

SPIN
  0 N s       :     0.000000  s :     0.000000
      pz      :     0.000000  p :     0.000000
      px      :     0.000000
      py      :     0.000000
      dz2     :     0.000000  d :     0.000000
      dxz     :     0.000000
      dyz     :     0.000000
      dx2y2   :     0.000000
      dxy     :     0.000000
  1 H s       :     0.000000  s :     0.000000
      pz      :     0.000000  p :     0.000000
      px      :     0.000000
      py      :     0.000000
  2 H s       :     0.000000  s :     0.000000
      pz      :     0.000000  p :     0.000000
      px      :     0.000000
      py      :     0.000000
  3 H s       :     0.000000  s :     0.000000
      pz      :     0.000000  p :     0.000000
      px      :     0.000000
      py      :     0.000000


                     *******************************
                     * LOEWDIN POPULATION ANALYSIS *
                     *******************************

-------------------------------------------
LOEWDIN ATOMIC CHARGES AND SPIN POPULATIONS
-------------------------------------------
   0 N :   -0.213545    0.000000
   1 H :    0.071013    0.000000
   2 H :    0.071114    0.000000
   3 H :    0.071418    0.000000

----------------------------------------------------
LOEWDIN REDUCED ORBITAL CHARGES AND SPIN POPULATIONS
----------------------------------------------------
CHARGE
  0 N s       :     3.086876  s :     3.086876
      pz      :     1.218202  p :     4.097207
      px      :     1.243878
      py      :     1.635128
      dz2     :     0.008368  d :     0.029462
      dxz     :     0.001894
      dyz     :     0.008087
      dx2y2   :     0.008447
      dxy     :     0.002666
  1 H s       :     0.802780  s :     0.802780
      pz      :     0.021099  p :     0.126207
      px      :     0.067598
      py      :     0.037510
  2 H s       :     0.802540  s :     0.802540
      pz      :     0.037531  p :     0.126346
      px      :     0.028640
      py      :     0.060176
  3 H s       :     0.802220  s :     0.802220
      pz      :     0.061394  p :     0.126362
      px      :     0.024865
      py      :     0.040103

SPIN
  0 N s       :     0.000000  s :     0.000000
      pz      :     0.000000  p :     0.000000
      px      :     0.000000
      py      :     0.000000
      dz2     :     0.000000  d :     0.000000
      dxz     :     0.000000
      dyz     :     0.000000
      dx2y2   :     0.000000
      dxy     :     0.000000
  1 H s       :     0.000000  s :     0.000000
      pz      :     0.000000  p :     0.000000
      px      :     0.000000
      py      :     0.000000
  2 H s       :     0.000000  s :     0.000000
      pz      :     0.000000  p :     0.000000
      px      :     0.000000
      py      :     0.000000
  3 H s       :     0.000000  s :     0.000000
      pz      :     0.000000  p :     0.000000
      px      :     0.000000
      py      :     0.000000


                      *****************************
                      * MAYER POPULATION ANALYSIS *
                      *****************************

  NA   - Mulliken gross atomic population
  ZA   - Total nuclear charge
  QA   - Mulliken gross atomic charge
  VA   - Mayer's total valence
  BVA  - Mayer's bonded valence
  FA   - Mayer's free valence

  ATOM       NA         ZA         QA         VA         BVA        FA
  0 N      7.7054     7.0000    -0.7054     2.8991     2.8991     0.0000
  1 H      0.7650     1.0000     0.2350     0.9545     0.9545     0.0000
  2 H      0.7652     1.0000     0.2348     0.9550     0.9550     0.0000
  3 H      0.7644     1.0000     0.2356     0.9550     0.9550     0.0000

  Mayer bond orders larger than 0.100000
B(  0-N ,  1-H ) :   0.9659 B(  0-N ,  2-H ) :   0.9667 B(  0-N ,  3-H ) :   0.9665 


-------
TIMINGS
-------

Total SCF time: 0 days 0 hours 0 min 1 sec 

Total time                  ....       1.179 sec
Sum of individual times     ....       0.813 sec  ( 68.9%)

Fock matrix formation       ....       0.650 sec  ( 55.2%)
  XC integration            ....       0.124 sec  ( 19.1% of F)
    Basis function eval.    ....       0.004 sec  (  3.2% of XC)
    Density eval.           ....       0.016 sec  ( 12.9% of XC)
    XC-Functional eval.     ....       0.020 sec  ( 16.3% of XC)
    XC-Potential eval.      ....       0.012 sec  ( 10.0% of XC)
Diagonalization             ....       0.004 sec  (  0.3%)
Density matrix formation    ....       0.001 sec  (  0.0%)
Population analysis         ....       0.012 sec  (  1.0%)
Initial guess               ....       0.005 sec  (  0.4%)
Orbital Transformation      ....       0.000 sec  (  0.0%)
Orbital Orthonormalization  ....       0.001 sec  (  0.1%)
DIIS solution               ....       0.000 sec  (  0.0%)
Grid generation             ....       0.141 sec  ( 12.0%)

-------------------------   --------------------
FINAL SINGLE POINT ENERGY       -56.546077548904
-------------------------   --------------------

                                *** OPTIMIZATION RUN DONE ***

                            ***************************************
                            *     ORCA property calculations      *
                            ***************************************

                                    ---------------------
                                    Active property flags
                                    ---------------------
   (+) Dipole Moment


------------------------------------------------------------------------------
                       ORCA ELECTRIC PROPERTIES CALCULATION
------------------------------------------------------------------------------

Dipole Moment Calculation                       ... on
Quadrupole Moment Calculation                   ... off
Polarizability Calculation                      ... off
GBWName                                         ... NH3.gbw
Electron density file                           ... NH3.scfp
The origin for moment calculation is the CENTER OF MASS  = (-1.814274,  0.322407 -1.608970)

-------------
DIPOLE MOMENT
-------------
                                X             Y             Z
Electronic contribution:     -0.06563       0.17270       0.04883
Nuclear contribution   :      0.29842      -0.81946      -0.22350
                        -----------------------------------------
Total Dipole Moment    :      0.23278      -0.64676      -0.17467
                        -----------------------------------------
Magnitude (a.u.)       :      0.70922
Magnitude (Debye)      :      1.80270



--------------------
Rotational spectrum 
--------------------
 
Rotational constants in cm-1:     9.886520     9.876525     6.340088 
Rotational constants in MHz : 296390.411317 296090.759645 190071.048714 

 Dipole components along the rotational axes: 
x,y,z [a.u.] :    -0.002554    -0.001539    -0.709217 
x,y,z [Debye]:    -0.006491    -0.003911    -1.802687 

 

----------------------------------------------------------------------------
                           ORCA NUMERICAL FREQUENCIES
                              (12-process run)
----------------------------------------------------------------------------

Number of atoms                ... 4
Central differences            ... used
Number of displacements        ... 24
Numerical increment            ... 5.000e-03 bohr
IR-spectrum generation         ... on
Raman-spectrum generation      ... off
Surface Crossing Hessian       ... off

The output will be reduced. Please look at the following files:
SCF program output             ... >NH3.lastscf
Integral program output        ... >NH3.lastint
Gradient program output        ... >NH3.lastgrad
Dipole moment program output   ... >NH3.lastmom
AutoCI program output          ... >NH3.lastautoci


         <<< Energy and Gradient at the input geometry >>>

        <<< Energy and Gradient at displaced geometries >>>
             <<<Displacing   3/coordinate 2 (+)>>>
             <<<Displacing   3/coordinate 1 (+)>>>
             <<<Displacing   4/coordinate 3 (+)>>>
             <<<Displacing   1/coordinate 1 (+)>>>
             <<<Displacing   2/coordinate 2 (+)>>>
             <<<Displacing   4/coordinate 1 (+)>>>
             <<<Displacing   3/coordinate 3 (+)>>>
             <<<Displacing   1/coordinate 2 (+)>>>
             <<<Displacing   2/coordinate 1 (+)>>>
             <<<Displacing   2/coordinate 3 (+)>>>
             <<<Displacing   4/coordinate 2 (+)>>>
             <<<Displacing   1/coordinate 3 (+)>>>
             <<<Displacing   2/coordinate 1 (-)>>>
             <<<Displacing   2/coordinate 2 (-)>>>
             <<<Displacing   4/coordinate 2 (-)>>>
             <<<Displacing   3/coordinate 3 (-)>>>
             <<<Displacing   3/coordinate 2 (-)>>>
             <<<Displacing   4/coordinate 1 (-)>>>
             <<<Displacing   4/coordinate 3 (-)>>>
             <<<Displacing   1/coordinate 3 (-)>>>
             <<<Displacing   3/coordinate 1 (-)>>>
             <<<Displacing   1/coordinate 2 (-)>>>
             <<<Displacing   1/coordinate 1 (-)>>>
             <<<Displacing   2/coordinate 3 (-)>>>

-----------------------
VIBRATIONAL FREQUENCIES
-----------------------

Scaling factor for frequencies =  1.000000000 (already applied!)

   0:         0.00 cm**-1
   1:         0.00 cm**-1
   2:         0.00 cm**-1
   3:         0.00 cm**-1
   4:         0.00 cm**-1
   5:         0.00 cm**-1
   6:      1095.94 cm**-1
   7:      1674.37 cm**-1
   8:      1680.43 cm**-1
   9:      3502.79 cm**-1
  10:      3621.42 cm**-1
  11:      3624.70 cm**-1


------------
NORMAL MODES
------------

These modes are the cartesian displacements weighted by the diagonal matrix
M(i,i)=1/sqrt(m[i]) where m[i] is the mass of the displaced atom
Thus, these vectors are normalized but *not* orthogonal

                  0          1          2          3          4          5    
      0       0.000000   0.000000   0.000000   0.000000   0.000000   0.000000
      1       0.000000   0.000000   0.000000   0.000000   0.000000   0.000000
      2       0.000000   0.000000   0.000000   0.000000   0.000000   0.000000
      3       0.000000   0.000000   0.000000   0.000000   0.000000   0.000000
      4       0.000000   0.000000   0.000000   0.000000   0.000000   0.000000
      5       0.000000   0.000000   0.000000   0.000000   0.000000   0.000000
      6       0.000000   0.000000   0.000000   0.000000   0.000000   0.000000
      7       0.000000   0.000000   0.000000   0.000000   0.000000   0.000000
      8       0.000000   0.000000   0.000000   0.000000   0.000000   0.000000
      9       0.000000   0.000000   0.000000   0.000000   0.000000   0.000000
     10       0.000000   0.000000   0.000000   0.000000   0.000000   0.000000
     11       0.000000   0.000000   0.000000   0.000000   0.000000   0.000000
                  6          7          8          9         10         11    
      0      -0.038380  -0.009182  -0.061880   0.013196  -0.058830  -0.045715
      1       0.104483  -0.020871  -0.018707  -0.034931  -0.006820  -0.032613
      2       0.028815   0.062326  -0.015418  -0.010912  -0.052329   0.055684
      3      -0.023222   0.057397  -0.054699  -0.576920   0.683780   0.431923
      4      -0.547909   0.203595  -0.287440   0.001631  -0.040688  -0.033646
      5      -0.171708  -0.728338  -0.039921  -0.048498   0.032456   0.045112
      6       0.291111  -0.407868   0.454608   0.230859  -0.036038   0.308584
      7      -0.398618   0.120297   0.155116   0.372841  -0.037497   0.583131
      8      -0.288877  -0.055130   0.501181  -0.353910   0.015114  -0.490416
      9       0.265432   0.478056   0.459966   0.162698   0.169745  -0.105256
     10      -0.505356  -0.033866   0.392276   0.110924   0.172954  -0.096297
     11       0.060178  -0.082599  -0.247013   0.554041   0.679582  -0.328474


-----------
IR SPECTRUM  
-----------

 Mode    freq (cm**-1)   T**2         TX         TY         TZ
-------------------------------------------------------------------
   6:      1095.94  222.966677  (  4.966223 -13.577731  -3.734773)
   7:      1674.37   28.033861  (  0.820891   1.621180  -4.973105)
   8:      1680.43   26.699528  (  4.815555   1.325908   1.323603)
   9:      3502.79    0.828040  (  0.330437  -0.825143  -0.194912)
  10:      3621.42    7.219460  (  1.991979   0.351836   1.768528)
  11:      3624.70    6.816387  (  1.466898   1.065409  -1.878696)

The first frequency considered to be a vibration is 6
The total number of vibrations considered is 6


--------------------------
THERMOCHEMISTRY AT 298.15K
--------------------------

Temperature         ... 298.15 K
Pressure            ... 1.00 atm
Total Mass          ... 17.03 AMU

Throughout the following assumptions are being made:
  (1) The electronic state is orbitally nondegenerate
  (2) There are no thermally accessible electronically excited states
  (3) Hindered rotations indicated by low frequency modes are not
      treated as such but are treated as vibrations and this may
      cause some error
  (4) All equations used are the standard statistical mechanics
      equations for an ideal gas
  (5) All vibrations are strictly harmonic

freq.    1095.94  E(vib)   ...       0.02 
freq.    1674.37  E(vib)   ...       0.00 
freq.    1680.43  E(vib)   ...       0.00 
freq.    3502.79  E(vib)   ...       0.00 
freq.    3621.42  E(vib)   ...       0.00 
freq.    3624.70  E(vib)   ...       0.00 

------------
INNER ENERGY
------------

The inner energy is: U= E(el) + E(ZPE) + E(vib) + E(rot) + E(trans)
    E(el)   - is the total energy from the electronic structure calculation
              = E(kin-el) + E(nuc-el) + E(el-el) + E(nuc-nuc)
    E(ZPE)  - the the zero temperature vibrational energy from the frequency calculation
    E(vib)  - the the finite temperature correction to E(ZPE) due to population
              of excited vibrational states
    E(rot)  - is the rotational thermal energy
    E(trans)- is the translational thermal energy

Summary of contributions to the inner energy U:
Electronic energy                ...    -56.54607790 Eh
Zero point energy                ...      0.03462739 Eh      21.73 kcal/mol
Thermal vibrational correction   ...      0.00003001 Eh       0.02 kcal/mol
Thermal rotational correction    ...      0.00141627 Eh       0.89 kcal/mol
Thermal translational correction ...      0.00141627 Eh       0.89 kcal/mol
-----------------------------------------------------------------------
Total thermal energy                    -56.50858796 Eh


Summary of corrections to the electronic energy:
(perhaps to be used in another calculation)
Total thermal correction                  0.00286255 Eh       1.80 kcal/mol
Non-thermal (ZPE) correction              0.03462739 Eh      21.73 kcal/mol
-----------------------------------------------------------------------
Total correction                          0.03748994 Eh      23.53 kcal/mol


--------
ENTHALPY
--------

The enthalpy is H = U + kB*T
                kB is Boltzmann's constant
Total free energy                 ...    -56.50858796 Eh 
Thermal Enthalpy correction       ...      0.00094421 Eh       0.59 kcal/mol
-----------------------------------------------------------------------
Total Enthalpy                    ...    -56.50764375 Eh


Note: Only C1 symmetry has been detected, increase convergence thresholds 
      if your molecule has a higher symmetry. Symmetry factor of 1.0 is   
      used for the rotational entropy correction. 
 

Note: Rotational entropy computed according to Herzberg 
Infrared and Raman Spectra, Chapter V,1, Van Nostrand Reinhold, 1945 
Point Group:  C1, Symmetry Number:   1  
Rotational constants in cm-1:     9.886520     9.876525     6.340088 

Vibrational entropy computed according to the QRRHO of S. Grimme
Chem.Eur.J. 2012 18 9955


-------
ENTROPY
-------

The entropy contributions are T*S = T*(S(el)+S(vib)+S(rot)+S(trans))
     S(el)   - electronic entropy
     S(vib)  - vibrational entropy
     S(rot)  - rotational entropy
     S(trans)- translational entropy
The entropies will be listed as mutliplied by the temperature to get
units of energy

Electronic entropy                ...      0.00000000 Eh      0.00 kcal/mol
Vibrational entropy               ...      0.00003538 Eh      0.02 kcal/mol
Rotational entropy                ...      0.00647611 Eh      4.06 kcal/mol
Translational entropy             ...      0.01636425 Eh     10.27 kcal/mol
-----------------------------------------------------------------------
Final entropy term                ...      0.02287574 Eh     14.35 kcal/mol

In case the symmetry of your molecule has not been determined correctly
or in case you have a reason to use a different symmetry number we print 
out the resulting rotational entropy values for sn=1,12 :
 --------------------------------------------------------
|  sn= 1 | S(rot)=       0.00647611 Eh      4.06 kcal/mol|
|  sn= 2 | S(rot)=       0.00582165 Eh      3.65 kcal/mol|
|  sn= 3 | S(rot)=       0.00543882 Eh      3.41 kcal/mol|
|  sn= 4 | S(rot)=       0.00516719 Eh      3.24 kcal/mol|
|  sn= 5 | S(rot)=       0.00495651 Eh      3.11 kcal/mol|
|  sn= 6 | S(rot)=       0.00478436 Eh      3.00 kcal/mol|
|  sn= 7 | S(rot)=       0.00463881 Eh      2.91 kcal/mol|
|  sn= 8 | S(rot)=       0.00451274 Eh      2.83 kcal/mol|
|  sn= 9 | S(rot)=       0.00440153 Eh      2.76 kcal/mol|
|  sn=10 | S(rot)=       0.00430205 Eh      2.70 kcal/mol|
|  sn=11 | S(rot)=       0.00421206 Eh      2.64 kcal/mol|
|  sn=12 | S(rot)=       0.00412990 Eh      2.59 kcal/mol|
 --------------------------------------------------------


-------------------
GIBBS FREE ENERGY
-------------------

The Gibbs free energy is G = H - T*S

Total enthalpy                    ...    -56.50764375 Eh 
Total entropy correction          ...     -0.02287574 Eh    -14.35 kcal/mol
-----------------------------------------------------------------------
Final Gibbs free energy         ...    -56.53051948 Eh

For completeness - the Gibbs free energy minus the electronic energy
G-E(el)                           ...      0.01555841 Eh      9.76 kcal/mol


Total Time for Numerical Frequencies  :        20.822 sec

Timings for individual modules:

Sum of individual times         ...       26.012 sec (=   0.434 min)
GTO integral calculation        ...        5.409 sec (=   0.090 min)  20.8 %
SCF iterations                  ...       16.285 sec (=   0.271 min)  62.6 %
SCF Gradient evaluation         ...        4.231 sec (=   0.071 min)  16.3 %
Geometry relaxation             ...        0.087 sec (=   0.001 min)   0.3 %
                             ****ORCA TERMINATED NORMALLY****
TOTAL RUN TIME: 0 days 0 hours 0 minutes 44 seconds 522 msec
