
                                 *****************
                                 * O   R   C   A *
                                 *****************

           --- An Ab Initio, DFT and Semiempirical electronic structure package ---

                  #######################################################
                  #                        -***-                        #
                  #          Department of theory and spectroscopy      #
                  #               Directorship: Frank Neese             #
                  #        Max Planck Institute fuer Kohlenforschung    #
                  #                Kaiser Wilhelm Platz 1               #
                  #                 D-45470 Muelheim/Ruhr               #
                  #                      Germany                        #
                  #                                                     #
                  #                  All rights reserved                #
                  #                        -***-                        #
                  #######################################################


                         Program Version 4.2.1 -  RELEASE  -


 With contributions from (in alphabetic order):
   Daniel Aravena         : Magnetic Suceptibility
   Michael Atanasov       : Ab Initio Ligand Field Theory (pilot matlab implementation)
   Alexander A. Auer      : GIAO ZORA, VPT2
   Ute Becker             : Parallelization
   Giovanni Bistoni       : ED, misc. LED, open-shell LED, HFLD
   Martin Brehm           : Molecular dynamics
   Dmytro Bykov           : SCF Hessian
   Vijay G. Chilkuri      : MRCI spin determinant printing, contributions to CSF-ICE
   Dipayan Datta          : RHF DLPNO-CCSD density
   Achintya Kumar Dutta   : EOM-CC, STEOM-CC
   Dmitry Ganyushin       : Spin-Orbit,Spin-Spin,Magnetic field MRCI
   Miquel Garcia          : C-PCM Hessian, Gaussian charge scheme
   Yang Guo               : DLPNO-NEVPT2, CIM, IAO-localization
   Andreas Hansen         : Spin unrestricted coupled pair/coupled cluster methods
   Benjamin Helmich-Paris : CASSCF linear response (MC-RPA)
   Lee Huntington         : MR-EOM, pCC
   Robert Izsak           : Overlap fitted RIJCOSX, COSX-SCS-MP3, EOM
   Christian Kollmar      : KDIIS, OOCD, Brueckner-CCSD(T), CCSD density
   Simone Kossmann        : Meta GGA functionals, TD-DFT gradient, OOMP2, MP2 Hessian
   Martin Krupicka        : AUTO-CI
   Lucas Lang             : DCDCAS
   Dagmar Lenk            : GEPOL surface, SMD
   Dimitrios Liakos       : Extrapolation schemes; Compound Job, initial MDCI parallelization
   Dimitrios Manganas     : Further ROCIS development; embedding schemes
   Dimitrios Pantazis     : SARC Basis sets
   Taras Petrenko         : DFT Hessian,TD-DFT gradient, ASA, ECA, R-Raman, ABS, FL, XAS/XES, NRVS
   Peter Pinski           : DLPNO-MP2, DLPNO-MP2 Gradient
   Christoph Reimann      : Effective Core Potentials
   Marius Retegan         : Local ZFS, SOC
   Christoph Riplinger    : Optimizer, TS searches, QM/MM, DLPNO-CCSD(T), (RO)-DLPNO pert. Triples
   Tobias Risthaus        : Range-separated hybrids, TD-DFT gradient, RPA, STAB
   Michael Roemelt        : Original ROCIS implementation
   Masaaki Saitow         : Open-shell DLPNO-CCSD energy and density
   Barbara Sandhoefer     : DKH picture change effects
   Avijit Sen             : IP-ROCIS
   Kantharuban Sivalingam : CASSCF convergence, NEVPT2, FIC-MRCI
   Bernardo de Souza      : ESD, SOC TD-DFT
   Georgi Stoychev        : AutoAux, RI-MP2 NMR
   Willem Van den Heuvel  : Paramagnetic NMR
   Boris Wezisla          : Elementary symmetry handling
   Frank Wennmohs         : Technical directorship


 We gratefully acknowledge several colleagues who have allowed us to
 interface, adapt or use parts of their codes:
   Stefan Grimme, W. Hujo, H. Kruse,             : VdW corrections, initial TS optimization,
                  C. Bannwarth                     DFT functionals, gCP, sTDA/sTD-DF
   Ed Valeev, F. Pavosevic, A. Kumar             : LibInt (2-el integral package), F12 methods
   Garnet Chan, S. Sharma, J. Yang, R. Olivares  : DMRG
   Ulf Ekstrom                                   : XCFun DFT Library
   Mihaly Kallay                                 : mrcc  (arbitrary order and MRCC methods)
   Andreas Klamt, Michael Diedenhofen            : otool_cosmo (COSMO solvation model)
   Jiri Pittner, Ondrej Demel                    : Mk-CCSD
   Frank Weinhold                                : gennbo (NPA and NBO analysis)
   Christopher J. Cramer and Donald G. Truhlar   : smd solvation model
   Lars Goerigk                                  : TD-DFT with DH, B97 family of functionals
   V. Asgeirsson, H. Jonsson                     : NEB implementation
   FAccTs GmbH                                   : IRC, NEB, NEB-TS, Multilevel, MM, QM/MM, CI optimization
   S Lehtola, MJT Oliveira, MAL Marques          : LibXC Library


 Your calculation uses the libint2 library for the computation of 2-el integrals
 For citations please refer to: http://libint.valeyev.net

 Your ORCA version has been built with support for libXC version: 4.2.3
 For citations please refer to: https://tddft.org/programs/libxc/

 This ORCA versions uses:
   CBLAS   interface :  Fast vector & matrix operations
   LAPACKE interface :  Fast linear algebra routines
   SCALAPACK package :  Parallel linear algebra routines


Your calculation utilizes the geometrical counterpoise correction gCP
Please cite in your paper:
H.Kruse, S. Grimme J.Chem.Phys., 136, (2012), 154101 
   

Your calculation utilizes the atom-pairwise dispersion correction
based on tight binding partial charges (D4)
Cite in your paper:
E.Caldeweyher, C.Bannwarth, S.Grimme, J.Chem.Phys., (2017), 147, 034112.
E.Caldeweyher, S.Ehlert, A.Hansen, H.Neugebauer, S.Grimme, J.Chem.Phys., (2018), in progress.
   

----- Orbital basis set information -----
Your calculation utilizes the basis: def2-SVP
   F. Weigend and R. Ahlrichs, Phys. Chem. Chem. Phys. 7, 3297 (2005).

----- AuxJ basis set information -----
Your calculation utilizes the auxiliary basis: def2/J
   F. Weigend, Phys. Chem. Chem. Phys. 8, 1057 (2006).

================================================================================
                                        WARNINGS
                       Please study these warnings very carefully!
================================================================================


WARNING: Geometry Optimization
  ===> : Switching off AutoStart
         For restart on a previous wavefunction, please use MOREAD

INFO   : the flag for use of LIBINT has been found!

================================================================================
                                       INPUT FILE
================================================================================
NAME = BH3.inp
|  1> ! revPBE D4 gCP(DFT/SVP) def2-SVP Opt Freq TightOpt TightSCF Grid4 FinalGrid5 LargePrint
|  2> 
|  3> %pal
|  4>  nprocs 4
|  5> end
|  6> 
|  7> *xyz 0 1
|  8>   B      0.008024    1.967276    0.000008
|  9>   H      1.157843    1.744483    0.330357
| 10>   H     -0.565118    1.207757   -0.758604
| 11>   H     -0.568604    2.949606    0.428239
| 12> *
| 13> 
| 14>                          ****END OF INPUT****
================================================================================

                       *****************************
                       * Geometry Optimization Run *
                       *****************************

Geometry optimization settings:
Update method            Update   .... BFGS
Choice of coordinates    CoordSys .... Z-matrix Internals
Initial Hessian          InHess   .... Almoef's Model

Convergence Tolerances:
Energy Change            TolE     ....  1.0000e-06 Eh
Max. Gradient            TolMAXG  ....  1.0000e-04 Eh/bohr
RMS Gradient             TolRMSG  ....  3.0000e-05 Eh/bohr
Max. Displacement        TolMAXD  ....  1.0000e-03 bohr
RMS Displacement         TolRMSD  ....  6.0000e-04 bohr
Strict Convergence                ....  False
------------------------------------------------------------------------------
                        ORCA OPTIMIZATION COORDINATE SETUP
------------------------------------------------------------------------------

The optimization will be done in new redundant internal coordinates
Making redundant internal coordinates   ...  (new redundants) done
Evaluating the initial hessian          ...  (Almloef) done
Evaluating the coordinates              ...  done
Calculating the B-matrix                .... done
Calculating the G-matrix                .... done
Diagonalizing the G-matrix              .... done
The first mode is                       ....    1
The number of degrees of freedom        ....    6

    -----------------------------------------------------------------
                    Redundant Internal Coordinates


    -----------------------------------------------------------------
         Definition                    Initial Value    Approx d2E/dq
    -----------------------------------------------------------------
      1. B(H   1,B   0)                  1.2169         0.261683   
      2. B(H   2,B   0)                  1.2169         0.261683   
      3. B(H   3,B   0)                  1.2169         0.261682   
      4. A(H   1,B   0,H   3)          119.9992         0.269049   
      5. A(H   2,B   0,H   3)          120.0019         0.269049   
      6. A(H   1,B   0,H   2)          119.9989         0.269049   
      7. I(H   1,H   3,H   2,B   0)     -0.0024         0.015047   
    -----------------------------------------------------------------

Number of atoms                         .... 4
Number of degrees of freedom            .... 7

         *************************************************************
         *                GEOMETRY OPTIMIZATION CYCLE   1            *
         *************************************************************
---------------------------------
CARTESIAN COORDINATES (ANGSTROEM)
---------------------------------
  B      0.008024    1.967276    0.000008
  H      1.157843    1.744483    0.330357
  H     -0.565118    1.207757   -0.758604
  H     -0.568604    2.949606    0.428239

----------------------------
CARTESIAN COORDINATES (A.U.)
----------------------------
  NO LB      ZA    FRAG     MASS         X           Y           Z
   0 B     5.0000    0    10.810    0.015163    3.717613    0.000015
   1 H     1.0000    0     1.008    2.188006    3.296595    0.624284
   2 H     1.0000    0     1.008   -1.067918    2.282330   -1.433554
   3 H     1.0000    0     1.008   -1.074506    5.573948    0.809254

--------------------------------
INTERNAL COORDINATES (ANGSTROEM)
--------------------------------
 B      0   0   0     0.000000000000     0.00000000     0.00000000
 H      1   0   0     1.216902179886     0.00000000     0.00000000
 H      1   2   0     1.216903048755   119.99887299     0.00000000
 H      1   2   3     1.216903393308   119.99920473   180.00275129

---------------------------
INTERNAL COORDINATES (A.U.)
---------------------------
 B      0   0   0     0.000000000000     0.00000000     0.00000000
 H      1   0   0     2.299611851756     0.00000000     0.00000000
 H      1   2   0     2.299613493681   119.99887299     0.00000000
 H      1   2   3     2.299614144792   119.99920473   180.00275129

---------------------
BASIS SET INFORMATION
---------------------
There are 2 groups of distinct atoms

 Group   1 Type B   : 7s4p1d contracted to 3s2p1d pattern {511/31/1}
 Group   2 Type H   : 4s1p contracted to 2s1p pattern {31/1}

Atom   0B    basis set group =>   1
Atom   1H    basis set group =>   2
Atom   2H    basis set group =>   2
Atom   3H    basis set group =>   2

-------------------------
BASIS SET IN INPUT FORMAT
-------------------------

 # Basis set for element : H 
 NewGTO H 
 S 3 
   1      13.0107010000      0.0334854848
   2       1.9622572000      0.2347218709
   3       0.4445379600      0.8137702853
 S 1 
   1       0.1219496200      1.0000000000
 P 1 
   1       0.8000000000      1.0000000000
  end;

 # Basis set for element : B 
 NewGTO B 
 S 5 
   1     839.3183008600     -0.0056288836
   2     126.2646484300     -0.0418327946
   3      28.6206007630     -0.1841748812
   4       7.8793722710     -0.4683965503
   5       2.4088857172     -0.4445793088
 S 1 
   1       0.2510510904      1.0000000000
 S 1 
   1       0.0836488661      1.0000000000
 P 3 
   1       6.0332223619     -0.0540325004
   2       1.2499157866     -0.3019403439
   3       0.3387167635     -0.7717079166
 P 1 
   1       0.0964156324      1.0000000000
 D 1 
   1       0.5000000000      1.0000000000
  end;

---------------------------------
AUXILIARY/J BASIS SET INFORMATION
---------------------------------
There are 2 groups of distinct atoms

 Group   1 Type B   : 12s5p4d2f1g contracted to 6s4p3d1f1g pattern {711111/2111/211/2/1}
 Group   2 Type H   : 5s2p1d contracted to 3s1p1d pattern {311/2/1}

Atom   0B    basis set group =>   1
Atom   1H    basis set group =>   2
Atom   2H    basis set group =>   2
Atom   3H    basis set group =>   2

-------------------------------------
AUXILIARY/J BASIS SET IN INPUT FORMAT
-------------------------------------

 # Auxiliary/J basis set for element : H 
 NewAuxJGTO H 
 S 3 
   1      15.6752927000      0.1007184237
   2       3.6063578000      0.3404257499
   3       1.2080016000      0.6491996172
 S 1 
   1       0.4726794000      1.0000000000
 S 1 
   1       0.2018100000      1.0000000000
 P 2 
   1       2.0281365000      0.5596620919
   2       0.5358730000      0.5596620919
 D 1 
   1       2.2165124000      1.0000000000
  end;

 # Auxiliary/J basis set for element : B 
 NewAuxJGTO B 
 S 7 
   1    1322.2016723000      0.0130721780
   2     458.2370653000      0.0281065289
   3     168.0023641000      0.0968125842
   4      64.9577690000      0.2258335225
   5      26.3871856000      0.3821491110
   6      11.2108611000      0.3266991672
   7       4.9554460000      0.0770367109
 S 1 
   1       2.2652825000     -1.0000000000
 S 1 
   1       1.0638086000      1.0000000000
 S 1 
   1       0.5095187000      1.0000000000
 S 1 
   1       0.2469859000      1.0000000000
 S 1 
   1       0.1202089000      1.0000000000
 P 2 
   1       9.3560736000     -0.5615847160
   2       3.9743131000     -0.4920798837
 P 1 
   1       1.6645147000      1.0000000000
 P 1 
   1       0.6913035000     -1.0000000000
 P 1 
   1       0.2863135000      1.0000000000
 D 2 
   1       2.1120313000      0.3924108444
   2       0.7780769000      0.6972711530
 D 1 
   1       0.3277101000      1.0000000000
 D 1 
   1       0.1449465000      1.0000000000
 F 2 
   1       1.0582718000      0.7745907102
   2       0.4010000000      0.3199796706
 G 1 
   1       0.6514300000     -1.0000000000
  end;



           ************************************************************
           *        Program running with 4 parallel MPI-processes     *
           *              working on a common directory               *
           ************************************************************
------------------------------------------------------------------------------
                           ORCA GTO INTEGRAL CALCULATION
                           -- RI-GTO INTEGRALS CHOSEN --
------------------------------------------------------------------------------

                         BASIS SET STATISTICS AND STARTUP INFO

Gaussian basis set:
 # of primitive gaussian shells          ...   27
 # of primitive gaussian functions       ...   45
 # of contracted shells                  ...   15
 # of contracted basis functions         ...   29
 Highest angular momentum                ...    2
 Maximum contraction depth               ...    5
Auxiliary gaussian basis set:
 # of primitive gaussian shells          ...   48
 # of primitive gaussian functions       ...  118
 # of contracted shells                  ...   30
 # of contracted aux-basis functions     ...   82
 Highest angular momentum                ...    4
 Maximum contraction depth               ...    7
Ratio of auxiliary to basis functions    ...  2.83
Integral package used                  ... LIBINT
 One Electron integrals                  ... done
 Ordering auxiliary basis shells         ... done
 Integral threshhold             Thresh  ...  2.500e-11
 Primitive cut-off               TCut    ...  2.500e-12
 Pre-screening matrix                    ... done
 Shell pair data                         ... 
 Ordering of the shell pairs             ... done (   0.000 sec) 120 of 120 pairs
 Determination of significant pairs      ... done (   0.000 sec)
 Creation of shell pair data             ... done (   0.000 sec)
 Storage of shell pair data              ... done (   0.000 sec)
 Shell pair data done in (   0.000 sec)
 Computing two index integrals           ... done
 Cholesky decomposition of the V-matrix  ... done


Timings:
 Total evaluation time                   ...   0.216 sec (  0.004 min)
 One electron matrix time                ...   0.014 sec (  0.000 min) =  6.7%
 Schwartz matrix evaluation time         ...   0.143 sec (  0.002 min) = 66.3%
 Two index repulsion integral time       ...   0.028 sec (  0.000 min) = 12.8%
 Cholesky decomposition of V             ...   0.012 sec (  0.000 min) =  5.6%
 Three index repulsion integral time     ...   0.000 sec (  0.000 min) =  0.0%



           ************************************************************
           *        Program running with 4 parallel MPI-processes     *
           *              working on a common directory               *
           ************************************************************
-------------------------------------------------------------------------------
                                 ORCA SCF
-------------------------------------------------------------------------------

------------
SCF SETTINGS
------------
Hamiltonian:
 Density Functional     Method          .... DFT(GTOs)
 Exchange Functional    Exchange        .... PBE
   PBE kappa parameter   XKappa         ....  1.245000
   PBE mue parameter    XMuePBE         ....  0.219520
 Correlation Functional Correlation     .... PBE
   PBE beta parameter  CBetaPBE         ....  0.066725
 LDA part of GGA corr.  LDAOpt          .... PW91-LDA
 Gradients option       PostSCFGGA      .... off
   Density functional embedding theory  .... OFF
   NL short-range parameter             ....  3.700000
 RI-approximation to the Coulomb term is turned on
   Number of auxiliary basis functions  .... 82


General Settings:
 Integral files         IntName         .... BH3
 Hartree-Fock type      HFTyp           .... RHF
 Total Charge           Charge          ....    0
 Multiplicity           Mult            ....    1
 Number of Electrons    NEL             ....    8
 Basis Dimension        Dim             ....   29
 Nuclear Repulsion      ENuc            ....      7.2760284530 Eh

Convergence Acceleration:
 DIIS                   CNVDIIS         .... on
   Start iteration      DIISMaxIt       ....    12
   Startup error        DIISStart       ....  0.200000
   # of expansion vecs  DIISMaxEq       ....     5
   Bias factor          DIISBfac        ....   1.050
   Max. coefficient     DIISMaxC        ....  10.000
 Newton-Raphson         CNVNR           .... off
 SOSCF                  CNVSOSCF        .... on
   Start iteration      SOSCFMaxIt      ....   150
   Startup grad/error   SOSCFStart      ....  0.003300
 Level Shifting         CNVShift        .... on
   Level shift para.    LevelShift      ....    0.2500
   Turn off err/grad.   ShiftErr        ....    0.0010
 Zerner damping         CNVZerner       .... off
 Static damping         CNVDamp         .... on
   Fraction old density DampFac         ....    0.7000
   Max. Damping (<1)    DampMax         ....    0.9800
   Min. Damping (>=0)   DampMin         ....    0.0000
   Turn off err/grad.   DampErr         ....    0.1000
 Fernandez-Rico         CNVRico         .... off

SCF Procedure:
 Maximum # iterations   MaxIter         ....   125
 SCF integral mode      SCFMode         .... Direct
   Integral package                     .... LIBINT
 Reset frequency        DirectResetFreq ....    20
 Integral Threshold     Thresh          ....  2.500e-11 Eh
 Primitive CutOff       TCut            ....  2.500e-12 Eh

Convergence Tolerance:
 Convergence Check Mode ConvCheckMode   .... Total+1el-Energy
 Convergence forced     ConvForced      .... 0
 Energy Change          TolE            ....  1.000e-08 Eh
 1-El. energy change                    ....  1.000e-05 Eh
 Orbital Gradient       TolG            ....  1.000e-05
 Orbital Rotation angle TolX            ....  1.000e-05
 DIIS Error             TolErr          ....  5.000e-07


Diagonalization of the overlap matrix:
Smallest eigenvalue                        ... 1.849e-02
Time for diagonalization                   ...    0.003 sec
Threshold for overlap eigenvalues          ... 1.000e-08
Number of eigenvalues below threshold      ... 0
Time for construction of square roots      ...    0.019 sec
Total time needed                          ...    0.022 sec

-------------------
DFT GRID GENERATION
-------------------

General Integration Accuracy     IntAcc      ...  4.670
Radial Grid Type                 RadialGrid  ... Gauss-Chebyshev
Angular Grid (max. acc.)         AngularGrid ... Lebedev-302
Angular grid pruning method      GridPruning ... 3 (G Style)
Weight generation scheme         WeightScheme... Becke
Basis function cutoff            BFCut       ...    1.0000e-11
Integration weight cutoff        WCut        ...    1.0000e-14
Grids for H and He will be reduced by one unit

# of grid points (after initial pruning)     ...  16310 (   0.0 sec)
# of grid points (after weights+screening)   ...  16082 (   0.0 sec)
nearest neighbour list constructed           ...    0.0 sec
Grid point re-assignment to atoms done       ...    0.0 sec
Grid point division into batches done        ...    0.1 sec
Reduced shell lists constructed in    0.1 sec

Total number of grid points                  ...    16082
Total number of batches                      ...      254
Average number of points per batch           ...       63
Average number of grid points per atom       ...     4020
Average number of shells per batch           ...    12.28 (81.85%)
Average number of basis functions per batch  ...    23.45 (80.85%)
Average number of large shells per batch     ...    11.68 (95.11%)
Average number of large basis fcns per batch ...    22.32 (95.21%)
Maximum spatial batch extension              ...  17.91, 24.39, 31.66 au
Average spatial batch extension              ...   1.04,  1.22,  1.31 au

Time for grid setup =    0.189 sec

------------------------------
INITIAL GUESS: MODEL POTENTIAL
------------------------------
Loading Hartree-Fock densities                     ... done
Calculating cut-offs                               ... done
Setting up the integral package                    ... done
Initializing the effective Hamiltonian             ... done
Starting the Coulomb interaction                   ... done (   0.0 sec)
Reading the grid                                   ... done
Mapping shells                                     ... done
Starting the XC term evaluation                    ... done (   0.0 sec)
  promolecular density results
     # of electrons  =      7.998525066
     EX              =     -4.642007400
     EC              =     -0.208167125
     EX+EC           =     -4.850174525
Transforming the Hamiltonian                       ... done (   0.0 sec)
Diagonalizing the Hamiltonian                      ... done (   0.0 sec)
Back transforming the eigenvectors                 ... done (   0.0 sec)
Now organizing SCF variables                       ... done
                      ------------------
                      INITIAL GUESS DONE (   0.4 sec)
                      ------------------
----------------------
INITIAL GUESS ORBITALS
----------------------
                      0         1         2         3         4         5   
                  -6.68842  -0.56369  -0.41816  -0.41816  -0.18761   0.05666
                   2.00000   2.00000   2.00000   2.00000   0.00000   0.00000
                  --------  --------  --------  --------  --------  --------
  0B   1s         0.989411  0.248744 -0.000001 -0.000003  0.000005  0.000031
  0B   2s        -0.041581  0.533365 -0.000002 -0.000007  0.000019  0.000123
  0B   3s         0.022422  0.117918  0.000004 -0.000002 -0.000009  0.000524
  0B   1pz       -0.000000  0.000002  0.249227 -0.129993 -0.515859 -0.065373
  0B   1px        0.000000 -0.000007 -0.014131 -0.424641  0.216409 -0.402372
  0B   1py        0.000000 -0.000001  0.374013  0.070578  0.351924  0.151551
  0B   2pz       -0.000000 -0.000002 -0.060108  0.031352  0.352521  0.277784
  0B   2px        0.000000  0.000001  0.003408  0.102416 -0.147881  1.708093
  0B   2py        0.000000 -0.000001 -0.090205 -0.017023 -0.240518 -0.643225
  0B   1dz2       0.001010 -0.003938  0.004273 -0.003628 -0.000000  0.012726
  0B   1dxz      -0.001080  0.004212  0.008934  0.003982  0.000001 -0.030187
  0B   1dyz      -0.001756  0.006849  0.001737 -0.008589  0.000000  0.040092
  0B   1dx2y2    -0.000372  0.001452  0.002882  0.012686 -0.000001 -0.065709
  0B   1dxy       0.000737 -0.002873  0.012839 -0.003249 -0.000001  0.000675
  1H   1s         0.004100  0.221998  0.012615  0.400140 -0.000004 -0.212582
  1H   2s        -0.004270  0.038148  0.003953  0.125374 -0.000007 -1.980536
  1H   1pz       -0.000153 -0.005977 -0.004910 -0.004599  0.019348 -0.011087
  1H   1px       -0.000533 -0.020802 -0.000507 -0.016534 -0.008116 -0.021759
  1H   1py        0.000103  0.004031 -0.006886  0.003424 -0.013199 -0.002871
  2H   1s         0.004100  0.221994  0.340224 -0.210997 -0.000003  0.067777
  2H   2s        -0.004270  0.038145  0.106597 -0.066114 -0.000012  0.631085
  2H   1pz        0.000351  0.013724  0.009068 -0.006086  0.019347 -0.006426
  2H   1px        0.000266  0.010369  0.010659  0.001543 -0.008117  0.029153
  2H   1py        0.000352  0.013741  0.006737 -0.009869 -0.013199 -0.027346
  3H   1s         0.004100  0.221993 -0.352839 -0.189148 -0.000004  0.144739
  3H   2s        -0.004270  0.038148 -0.110554 -0.059264  0.000028  1.348647
  3H   1pz       -0.000198 -0.007747  0.003365  0.006763  0.019348  0.021658
  3H   1px        0.000267  0.010432 -0.010578  0.002175 -0.008117  0.018096
  3H   1py       -0.000455 -0.017772  0.011438  0.008576 -0.013199  0.020622
                      6         7         8         9        10        11   
                   0.05667   0.05708   0.13598   0.17508   0.17509   0.23558
                   0.00000   0.00000   0.00000   0.00000   0.00000   0.00000
                  --------  --------  --------  --------  --------  --------
  0B   1s        -0.000224 -0.236370 -0.147732  0.000003  0.000026  0.000013
  0B   2s        -0.000980 -1.007385 -1.179502  0.000040  0.000202  0.000094
  0B   3s        -0.001863 -2.199405  3.486401 -0.000148 -0.000553 -0.000200
  0B   1pz        0.263927 -0.000272 -0.000146 -0.134863 -0.452636 -0.765134
  0B   1px        0.083487 -0.000149 -0.000021  0.528529 -0.479914  0.321017
  0B   1py        0.335465 -0.000271 -0.000078 -0.522853 -0.368356  0.521978
  0B   2pz       -1.120145  0.001069 -0.000169 -0.226291 -0.759698 -0.861587
  0B   2px       -0.354090  0.000510 -0.000019  0.887098 -0.805298  0.361522
  0B   2py       -1.424257  0.001214 -0.000053 -0.877381 -0.618365  0.587703
  0B   1dz2      -0.025311 -0.018955  0.023530 -0.000518 -0.007837 -0.000005
  0B   1dxz      -0.039104  0.020334 -0.025164 -0.012702 -0.005101 -0.000013
  0B   1dyz      -0.018724  0.033043 -0.040931  0.006941 -0.010106  0.000007
  0B   1dx2y2     0.000952  0.006990 -0.008678 -0.015553  0.009462 -0.000010
  0B   1dxy      -0.066920 -0.013788  0.017178 -0.009245 -0.016076 -0.000012
  1H   1s         0.044589  0.173133 -0.194501 -0.165930  0.151150 -0.000023
  1H   2s         0.415370  1.271909 -0.834353 -0.055098  0.050290  0.000039
  1H   1pz       -0.021783  0.006199  0.002841  0.005269 -0.012565  0.008832
  1H   1px        0.004645  0.021505  0.009888  0.031796 -0.028956 -0.003707
  1H   1py       -0.034784 -0.004138 -0.001916 -0.011826 -0.000615 -0.006031
  2H   1s        -0.206149  0.173410 -0.194560 -0.047873 -0.219254 -0.000014
  2H   2s        -1.921002  1.274396 -0.834268 -0.015875 -0.072756  0.000044
  2H   1pz        0.013323 -0.014208 -0.006530 -0.006528 -0.027612  0.008837
  2H   1px        0.021238 -0.010740 -0.004937  0.003572 -0.022716 -0.003700
  2H   1py        0.006470 -0.014223 -0.006536 -0.011764 -0.026504 -0.006027
  3H   1s         0.162010  0.173083 -0.194532  0.213866  0.068201  0.000071
  3H   2s         1.509029  1.271357 -0.834358  0.071062  0.022839  0.000025
  3H   1pz       -0.008255  0.008025  0.003681 -0.013663 -0.009874  0.008835
  3H   1px       -0.031164 -0.010758 -0.004956  0.023080 -0.001394 -0.003706
  3H   1py        0.007066  0.018378  0.008442 -0.034217 -0.013617 -0.006026
                     12        13        14        15        16        17   
                   0.52183   0.52185   0.53343   0.77183   0.77183   1.11847
                   0.00000   0.00000   0.00000   0.00000   0.00000   0.00000
                  --------  --------  --------  --------  --------  --------
  0B   1s         0.000042  0.000005 -0.166344  0.000002  0.000001  0.000003
  0B   2s         0.000186  0.000018 -0.757340  0.000007  0.000006  0.000008
  0B   3s        -0.001036 -0.000147  4.138403 -0.000019 -0.000020 -0.000011
  0B   1pz       -0.111688  0.360342 -0.000015 -0.000003  0.000005  0.160825
  0B   1px       -0.564062  0.083435 -0.000132  0.000004  0.000011 -0.013575
  0B   1py        0.183101  0.476838  0.000078 -0.000007 -0.000000  0.244089
  0B   2pz       -0.339821  1.096202 -0.000056 -0.000001  0.000009 -0.281890
  0B   2px       -1.715958  0.253822 -0.000401  0.000001  0.000018  0.023831
  0B   2py        0.557026  1.450690  0.000233 -0.000004 -0.000003 -0.427852
  0B   1dz2       0.057657 -0.099780 -0.097540  0.460676 -0.472886  0.186723
  0B   1dxz      -0.113516 -0.166046  0.104308 -0.309676 -0.426479  0.398561
  0B   1dyz       0.167286 -0.066799  0.169737  0.330236  0.118755  0.071001
  0B   1dx2y2    -0.267229 -0.011570  0.035928  0.432164  0.180886  0.136569
  0B   1dxy       0.018453 -0.271693 -0.071190 -0.079537  0.397419  0.566507
  1H   1s        -0.876097  0.131061  0.727695 -0.000001  0.000009 -0.035566
  1H   2s         2.468285 -0.369308 -2.006070  0.000004 -0.000018  0.001774
  1H   1pz       -0.030433 -0.022975  0.016468 -0.079636 -0.218679  0.208246
  1H   1px       -0.091884  0.013835  0.057319  0.033405  0.091738 -0.008292
  1H   1py        0.011892 -0.042183 -0.011106  0.054317  0.149188  0.310349
  2H   1s         0.324223 -0.824147  0.727948 -0.000001 -0.000013 -0.631393
  2H   2s        -0.913479  2.321984 -2.006810  0.000003  0.000025  0.031768
  2H   1pz       -0.024527  0.056214 -0.037834 -0.149566  0.178301  0.099233
  2H   1px        0.019897  0.057600 -0.028576  0.062754 -0.074794 -0.097805
  2H   1py       -0.048187  0.046979 -0.037886  0.102031 -0.121642  0.205614
  3H   1s         0.551294  0.692988  0.728074 -0.000019 -0.000010  0.666900
  3H   2s        -1.553271 -1.952434 -2.007171  0.000023  0.000021 -0.033507
  3H   1pz        0.041087  0.011518  0.021365  0.229196  0.040377  0.142230
  3H   1px        0.001921 -0.061062 -0.028763 -0.096152 -0.016931  0.068115
  3H   1py        0.059047  0.054436  0.049004 -0.156356 -0.027542  0.166572
                     18        19        20        21        22        23   
                   1.11849   1.13930   1.25897   1.47304   1.67358   1.67359
                   0.00000   0.00000   0.00000   0.00000   0.00000   0.00000
                  --------  --------  --------  --------  --------  --------
  0B   1s         0.000001 -0.048357  0.000000  0.000001 -0.000000 -0.000000
  0B   2s        -0.000002 -0.076082 -0.000003  0.000000 -0.000002  0.000000
  0B   3s         0.000036 -0.328879 -0.000012 -0.000023  0.000007  0.000005
  0B   1pz       -0.087154 -0.000007  0.000009 -0.227233 -0.000010  0.000009
  0B   1px       -0.276154 -0.000002  0.000002  0.095327 -0.000009  0.000001
  0B   1py        0.042066  0.000015  0.000015  0.155021  0.000012  0.000013
  0B   2pz        0.152773 -0.000004 -0.000019  0.173741  0.000006 -0.000012
  0B   2px        0.484003 -0.000001 -0.000007 -0.072886  0.000009  0.000000
  0B   2py       -0.073686 -0.000029 -0.000026 -0.118530 -0.000009 -0.000018
  0B   1dz2      -0.163690  0.431154  0.000006 -0.000023  0.261970 -0.625504
  0B   1dxz       0.170196 -0.461162  0.000020  0.000011  0.527568  0.121393
  0B   1dyz      -0.381648 -0.749976  0.000014  0.000036 -0.244904 -0.264486
  0B   1dx2y2     0.559939 -0.159064  0.000003  0.000014 -0.344654 -0.335877
  0B   1dxy      -0.152942  0.314640  0.000031 -0.000003 -0.343741  0.234816
  1H   1s        -0.749589  0.467184 -0.000001 -0.000014  0.000021 -0.000005
  1H   2s         0.037742 -0.068966  0.000011  0.000017 -0.000030  0.000001
  1H   1pz       -0.056443  0.023486  0.327234 -0.486448 -0.674441  0.035541
  1H   1px       -0.161650  0.081769 -0.000960  0.204056  0.282940 -0.014902
  1H   1py        0.016693 -0.015814  0.480256  0.331858  0.460120 -0.024209
  2H   1s         0.405564  0.467189 -0.000051 -0.000016 -0.000011  0.000021
  2H   2s        -0.020408 -0.068985  0.000021  0.000017  0.000008 -0.000037
  2H   1pz       -0.043093 -0.053958 -0.026967 -0.486467  0.306432 -0.601840
  2H   1px       -0.301499 -0.040769  0.475993  0.204085 -0.128571  0.252465
  2H   1py        0.122216 -0.053989 -0.332221  0.331890 -0.209039  0.410583
  3H   1s         0.343995  0.467231  0.000031 -0.000011 -0.000011 -0.000015
  3H   2s        -0.017361 -0.068971 -0.000001  0.000017  0.000015  0.000028
  3H   1pz       -0.144186  0.030438 -0.300212 -0.486480  0.367950  0.566323
  3H   1px       -0.309085 -0.041020 -0.475017  0.204091 -0.154381 -0.237556
  3H   1py       -0.021298  0.069867 -0.147947  0.331870 -0.251038 -0.386343
                     24        25        26        27        28   
                   1.86360   1.86362   2.24638   2.38838   2.38839
                   0.00000   0.00000   0.00000   0.00000   0.00000
                  --------  --------  --------  --------  --------
  0B   1s         0.000009  0.000001 -0.255176 -0.000000  0.000024
  0B   2s         0.000068  0.000004 -1.768718 -0.000002  0.000156
  0B   3s         0.000040 -0.000000 -0.785370 -0.000005  0.000058
  0B   1pz        0.133126 -0.262572  0.000018  0.788123  0.357517
  0B   1px        0.444853  0.009683  0.000149  0.028297  1.307808
  0B   1py       -0.078414 -0.390839 -0.000021  1.137852 -0.280154
  0B   2pz       -0.158710  0.313052 -0.000004 -0.104738 -0.047511
  0B   2px       -0.530376 -0.011531 -0.000054 -0.003761 -0.173801
  0B   2py        0.093504  0.465969  0.000009 -0.151214  0.037231
  0B   1dz2      -0.117791  0.142027  0.330778  0.374077  0.283703
  0B   1dxz       0.134602  0.292660 -0.353821  0.728922 -0.374259
  0B   1dyz      -0.282130  0.060476 -0.575332  0.184890  0.710454
  0B   1dx2y2     0.418777  0.090032 -0.122086  0.182676 -1.074344
  0B   1dxy      -0.102123  0.424038  0.241377  1.088951  0.212673
  1H   1s        -0.148846 -0.002973  0.525047  0.025585  1.093727
  1H   2s         0.779795  0.015591  0.546333  0.007728  0.330328
  1H   1pz       -0.108056 -0.466158 -0.237564 -0.224970 -0.326604
  1H   1px       -0.408308 -0.006809 -0.826876 -0.026367 -1.154498
  1H   1py        0.092747 -0.679110  0.160215 -0.313555  0.231154
  2H   1s         0.076992 -0.127389  0.524940 -0.960002 -0.524796
  2H   2s        -0.403449  0.667571  0.546228 -0.289970 -0.158530
  2H   1pz       -0.172112  0.210815  0.545441 -0.677172 -0.349771
  2H   1px        0.472237  0.523297  0.412097 -0.353513 -0.553465
  2H   1py       -0.542714 -0.012722  0.546082 -0.775198 -0.172341
  3H   1s         0.071838  0.130364  0.524933  0.934423 -0.569100
  3H   2s        -0.376442 -0.683165  0.546220  0.282247 -0.171914
  3H   1pz        0.446226 -0.072152 -0.307882 -0.471048  0.053468
  3H   1px        0.491003 -0.504423  0.414600  0.330576 -0.570663
  3H   1py        0.352138  0.204362 -0.706282 -0.893786  0.429309
--------------
SCF ITERATIONS
--------------
               ***  Starting incremental Fock matrix formation  ***

                         ----------------------------
                         !        ITERATION     0   !
                         ----------------------------
   Total Energy        :     -26.555787856148 Eh
   Energy Change       :     -26.555787856148 Eh
   MAX-DP              :       0.036238523907
   RMS-DP              :       0.002515818685
   Actual Damping      :       0.7000
   Actual Level Shift  :       0.2500 Eh
   Int. Num. El.       :     8.00000473 (UP=    4.00000236 DN=    4.00000236)
   Exchange            :    -4.96632385
   Correlation         :    -0.21704165


                         ----------------------------
                         !        ITERATION     1   !
                         ----------------------------
   Total Energy        :     -26.561358535348 Eh
   Energy Change       :      -0.005570679200 Eh
   MAX-DP              :       0.029908700023
   RMS-DP              :       0.002214793113
   Actual Damping      :       0.7000
   Actual Level Shift  :       0.2500 Eh
   Int. Num. El.       :     8.00000451 (UP=    4.00000226 DN=    4.00000226)
   Exchange            :    -4.93824144
   Correlation         :    -0.21570179

                               ***Turning on DIIS***

                         ----------------------------
                         !        ITERATION     2   !
                         ----------------------------
   Total Energy        :     -26.564598577291 Eh
   Energy Change       :      -0.003240041943 Eh
   MAX-DP              :       0.056410424914
   RMS-DP              :       0.004736414788
   Actual Damping      :       0.0000
   Actual Level Shift  :       0.2500 Eh
   Int. Num. El.       :     8.00000432 (UP=    4.00000216 DN=    4.00000216)
   Exchange            :    -4.91361174
   Correlation         :    -0.21462193
   DIIS-Error          :       0.020634966687


                         ----------------------------
                         !        ITERATION     3   !
                         ----------------------------
   Total Energy        :     -26.569538785278 Eh
   Energy Change       :      -0.004940207988 Eh
   MAX-DP              :       0.024485108147
   RMS-DP              :       0.001408952937
   Actual Damping      :       0.0000
   Actual Level Shift  :       0.2500 Eh
   Int. Num. El.       :     8.00000391 (UP=    4.00000195 DN=    4.00000195)
   Exchange            :    -4.86164805
   Correlation         :    -0.21285001
   DIIS-Error          :       0.016252437751
   DIIS coefficients:
      0.39903   0.60097

                      *** Initiating the SOSCF procedure ***
                           *** Shutting down DIIS ***
                      *** Re-Reading the Fockian *** 
                      *** Removing any level shift *** 

                         ----------------------------
                         !        ITERATION     4   !
                         ----------------------------
   Total Energy        :     -26.570329098378 Eh
   Energy Change       :      -0.000790313100 Eh
   MAX-DP              :       0.003106267917
   RMS-DP              :       0.000347963082
   Orbital gradient    :       0.001334837408
   Orbital Rotation    :       0.001334837408
   Actual Damping      :       0.0000
   Int. Num. El.       :     8.00000398 (UP=    4.00000199 DN=    4.00000199)
   Exchange            :    -4.87422621
   Correlation         :    -0.21370116

               *** Restarting incremental Fock matrix formation ***

                         ----------------------------
                         !        ITERATION     5   !
                         ----------------------------
   Total Energy        :     -26.570369183996 Eh
   Energy Change       :      -0.000040085618 Eh
   MAX-DP              :       0.002175842931
   RMS-DP              :       0.000177231710
   Orbital gradient    :       0.000536536323
   Orbital Rotation    :       0.000989123004
   Actual Damping      :       0.0000
   Int. Num. El.       :     8.00000401 (UP=    4.00000200 DN=    4.00000200)
   Exchange            :    -4.87774257
   Correlation         :    -0.21380286


                         ----------------------------
                         !        ITERATION     6   !
                         ----------------------------
   Total Energy        :     -26.570370841596 Eh
   Energy Change       :      -0.000001657600 Eh
   MAX-DP              :       0.001209619249
   RMS-DP              :       0.000069476016
   Orbital gradient    :       0.000335303299
   Orbital Rotation    :       0.000336855709
   Actual Damping      :       0.0000
   Int. Num. El.       :     8.00000402 (UP=    4.00000201 DN=    4.00000201)
   Exchange            :    -4.87955793
   Correlation         :    -0.21388667


                         ----------------------------
                         !        ITERATION     7   !
                         ----------------------------
   Total Energy        :     -26.570372012345 Eh
   Energy Change       :      -0.000001170748 Eh
   MAX-DP              :       0.000194498669
   RMS-DP              :       0.000015009199
   Orbital gradient    :       0.000060282499
   Orbital Rotation    :       0.000062737481
   Actual Damping      :       0.0000
   Int. Num. El.       :     8.00000401 (UP=    4.00000201 DN=    4.00000201)
   Exchange            :    -4.87899737
   Correlation         :    -0.21384343


                         ----------------------------
                         !        ITERATION     8   !
                         ----------------------------
   Total Energy        :     -26.570372038363 Eh
   Energy Change       :      -0.000000026018 Eh
   MAX-DP              :       0.000052549775
   RMS-DP              :       0.000004043483
   Orbital gradient    :       0.000019188281
   Orbital Rotation    :       0.000016208462
   Actual Damping      :       0.0000
   Int. Num. El.       :     8.00000401 (UP=    4.00000201 DN=    4.00000201)
   Exchange            :    -4.87891280
   Correlation         :    -0.21384770

                 **** Energy Check signals convergence ****
              ***Rediagonalizing the Fockian in SOSCF/NRSCF***

               *****************************************************
               *                     SUCCESS                       *
               *           SCF CONVERGED AFTER   9 CYCLES          *
               *****************************************************

Setting up the final grid:

General Integration Accuracy     IntAcc      ...  5.010
Radial Grid Type                 RadialGrid  ... Gauss-Chebyshev
Angular Grid (max. acc.)         AngularGrid ... Lebedev-434
Angular grid pruning method      GridPruning ... 3 (G Style)
Weight generation scheme         WeightScheme... Becke
Basis function cutoff            BFCut       ...    1.0000e-11
Integration weight cutoff        WCut        ...    1.0000e-14
Grids for H and He will be reduced by one unit

# of grid points (after initial pruning)     ...  30666 (   0.0 sec)
# of grid points (after weights+screening)   ...  30221 (   0.0 sec)
nearest neighbour list constructed           ...    0.0 sec
Grid point re-assignment to atoms done       ...    0.0 sec
Grid point division into batches done        ...    0.2 sec
Reduced shell lists constructed in    0.2 sec

Total number of grid points                  ...    30221
Total number of batches                      ...      474
Average number of points per batch           ...       63
Average number of grid points per atom       ...     7555
Average number of shells per batch           ...    12.20 (81.33%)
Average number of basis functions per batch  ...    23.22 (80.06%)
Average number of large shells per batch     ...    11.49 (94.19%)
Average number of large basis fcns per batch ...    21.96 (94.58%)
Maximum spatial batch extension              ...  21.88, 23.53, 23.53 au
Average spatial batch extension              ...   0.90,  0.99,  1.03 au

Final grid set up in    0.3 sec
Final integration                            ... done (   0.1 sec)
Change in XC energy                          ...     0.000009115
Integrated number of electrons               ...     8.000001624
Previous integrated no of electrons          ...     8.000004012

----------------
TOTAL SCF ENERGY
----------------

Total Energy       :          -26.57036293 Eh            -723.01633 eV

Components:
Nuclear Repulsion  :            7.27602845 Eh             197.99080 eV
Electronic Energy  :          -33.84639138 Eh            -921.00713 eV
One Electron Energy:          -48.74951799 Eh           -1326.54182 eV
Two Electron Energy:           14.90312661 Eh             405.53469 eV

Virial components:
Potential Energy   :          -52.68706670 Eh           -1433.68797 eV
Kinetic Energy     :           26.11670377 Eh             710.67164 eV
Virial Ratio       :            2.01737046


DFT components:
N(Alpha)           :        4.000000811901 electrons
N(Beta)            :        4.000000811901 electrons
N(Total)           :        8.000001623801 electrons
E(X)               :       -4.878944970399 Eh       
E(C)               :       -0.213840729830 Eh       
E(XC)              :       -5.092785700230 Eh       
DFET-embed. en.    :        0.000000000000 Eh       

---------------
SCF CONVERGENCE
---------------

  Last Energy change         ...   -3.4267e-09  Tolerance :   1.0000e-08
  Last MAX-Density change    ...    8.9042e-07  Tolerance :   1.0000e-07
  Last RMS-Density change    ...    5.8058e-08  Tolerance :   5.0000e-09
  Last Orbital Gradient      ...    2.9085e-07  Tolerance :   1.0000e-05
  Last Orbital Rotation      ...    3.2723e-07  Tolerance :   1.0000e-05

             **** THE GBW FILE WAS UPDATED (BH3.gbw) ****
             **** DENSITY FILE WAS UPDATED (BH3.scfp) ****
             **** ENERGY FILE WAS UPDATED (BH3.en.tmp) ****
             **** THE GBW FILE WAS UPDATED (BH3.gbw) ****
             **** DENSITY FILE WAS UPDATED (BH3.scfp) ****
----------------
ORBITAL ENERGIES
----------------

  NO   OCC          E(Eh)            E(eV) 
   0   2.0000      -6.556222      -178.4039 
   1   2.0000      -0.453491       -12.3401 
   2   2.0000      -0.306377        -8.3369 
   3   2.0000      -0.306372        -8.3368 
   4   0.0000      -0.105921        -2.8823 
   5   0.0000       0.120863         3.2888 
   6   0.0000       0.120874         3.2892 
   7   0.0000       0.125145         3.4054 
   8   0.0000       0.179187         4.8759 
   9   0.0000       0.235959         6.4208 
  10   0.0000       0.235969         6.4210 
  11   0.0000       0.294913         8.0250 
  12   0.0000       0.608588        16.5605 
  13   0.0000       0.608608        16.5611 
  14   0.0000       0.615606        16.7515 
  15   0.0000       0.868348        23.6289 
  16   0.0000       0.868354        23.6291 
  17   0.0000       1.225705        33.3531 
  18   0.0000       1.225724        33.3536 
  19   0.0000       1.247289        33.9405 
  20   0.0000       1.364091        37.1188 
  21   0.0000       1.570568        42.7373 
  22   0.0000       1.769988        48.1638 
  23   0.0000       1.770005        48.1643 
  24   0.0000       1.969913        53.6040 
  25   0.0000       1.969940        53.6048 
  26   0.0000       2.361580        64.2619 
  27   0.0000       2.505633        68.1817 
  28   0.0000       2.505642        68.1820 
------------------
MOLECULAR ORBITALS
------------------
                      0         1         2         3         4         5   
                  -6.55622  -0.45349  -0.30638  -0.30637  -0.10592   0.12086
                   2.00000   2.00000   2.00000   2.00000   0.00000   0.00000
                  --------  --------  --------  --------  --------  --------
  0B   1s         0.989425  0.241959 -0.000000 -0.000001 -0.000006 -0.000013
  0B   2s        -0.041512  0.487157 -0.000001 -0.000002 -0.000021 -0.000066
  0B   3s         0.022580  0.167910  0.000002 -0.000007  0.000009 -0.000168
  0B   1pz        0.000000  0.000000  0.232576 -0.123898  0.446365  0.059981
  0B   1px       -0.000000 -0.000005 -0.016715 -0.397965 -0.187256  0.304029
  0B   1py       -0.000000 -0.000000  0.351195  0.063108 -0.304516 -0.098975
  0B   2pz       -0.000000 -0.000002 -0.073779  0.039304 -0.428269 -0.386668
  0B   2px        0.000000 -0.000002  0.005304  0.126250  0.179655 -1.958094
  0B   2py       -0.000000 -0.000001 -0.111408 -0.020022  0.292201  0.637353
  0B   1dz2       0.000936 -0.001730  0.004428 -0.003827  0.000000 -0.009234
  0B   1dxz      -0.001001  0.001851  0.009364  0.004076 -0.000000  0.018241
  0B   1dyz      -0.001628  0.003009  0.001735 -0.008984  0.000001 -0.026846
  0B   1dx2y2    -0.000345  0.000638  0.003125  0.013218  0.000001  0.042893
  0B   1dxy       0.000683 -0.001263  0.013375 -0.003510  0.000001 -0.002911
  1H   1s         0.004046  0.207745  0.014892  0.369981  0.000004  0.159837
  1H   2s        -0.004326  0.048523  0.007037  0.174827  0.000012  2.199021
  1H   1pz       -0.000146 -0.005123 -0.004743 -0.002746 -0.017121  0.005931
  1H   1px       -0.000507 -0.017832 -0.000397 -0.010210  0.007182  0.010830
  1H   1py        0.000098  0.003455 -0.006708  0.002252  0.011680  0.002034
  2H   1s         0.004046  0.207744  0.312968 -0.197887  0.000002 -0.059086
  2H   2s        -0.004326  0.048518  0.147884 -0.093509  0.000018 -0.812307
  2H   1pz        0.000335  0.011765  0.005494 -0.003925 -0.017121  0.004093
  2H   1px        0.000253  0.008889  0.007904  0.002970  0.007183 -0.023600
  2H   1py        0.000335  0.011779  0.003193 -0.007579  0.011680  0.020510
  3H   1s         0.004046  0.207744 -0.327859 -0.172095  0.000006 -0.100764
  3H   2s        -0.004326  0.048522 -0.154923 -0.081316 -0.000035 -1.386394
  3H   1pz       -0.000189 -0.006640  0.001395  0.005529 -0.017121 -0.016104
  3H   1px        0.000255  0.008943 -0.007660  0.003568  0.007183 -0.018027
  3H   1py       -0.000434 -0.015234  0.006757  0.005911  0.011680 -0.012522
                      6         7         8         9        10        11   
                   0.12087   0.12515   0.17919   0.23596   0.23597   0.29491
                   0.00000   0.00000   0.00000   0.00000   0.00000   0.00000
                  --------  --------  --------  --------  --------  --------
  0B   1s        -0.000029 -0.213857  0.180536 -0.000009 -0.000022  0.000012
  0B   2s        -0.000169 -0.861652  1.301851 -0.000060 -0.000154  0.000082
  0B   3s         0.000159 -2.779578 -3.447305  0.000132  0.000380 -0.000181
  0B   1pz        0.194363 -0.000028  0.000124 -0.070176  0.489408 -0.806084
  0B   1px        0.045327 -0.000028  0.000063  0.620952  0.415785  0.338201
  0B   1py        0.256953 -0.000001  0.000032 -0.484830  0.461663  0.549938
  0B   2pz       -1.251337  0.000100  0.000021 -0.094649  0.660531 -0.828195
  0B   2px       -0.291528  0.000037 -0.000035  0.838029  0.561006  0.347517
  0B   2py       -1.655032  0.000059 -0.000100 -0.654191  0.623200  0.564948
  0B   1dz2      -0.016029 -0.014438 -0.014403  0.000342  0.004188 -0.000003
  0B   1dxz      -0.026634  0.015445  0.015399 -0.006319  0.003699 -0.000011
  0B   1dyz      -0.010750  0.025123  0.025046  0.004461  0.004803  0.000004
  0B   1dx2y2    -0.001813  0.005324  0.005314 -0.008968 -0.003785 -0.000009
  0B   1dxy      -0.043618 -0.010533 -0.010520 -0.003630  0.009231 -0.000009
  1H   1s         0.024054  0.121770  0.168117 -0.220552 -0.148201 -0.000027
  1H   2s         0.331430  1.490224  0.804020  0.125291  0.084208  0.000037
  1H   1pz       -0.018222  0.004323 -0.003085  0.008486  0.006651  0.014561
  1H   1px        0.001692  0.015041 -0.010729  0.031061  0.020879 -0.006110
  1H   1py       -0.027749 -0.002915  0.002077 -0.006658 -0.003087 -0.009937
  2H   1s        -0.150459  0.121795  0.168153 -0.018052  0.265080 -0.000006
  2H   2s        -2.070074  1.490454  0.803689  0.010301 -0.150656  0.000026
  2H   1pz        0.006163 -0.009926  0.007086 -0.001749  0.024627  0.014565
  2H   1px        0.015133 -0.007499  0.005356 -0.000133  0.018683 -0.006104
  2H   1py       -0.000271 -0.009939  0.007093 -0.002481  0.024608 -0.009933
  3H   1s         0.126383  0.121782  0.168159  0.238598 -0.116947  0.000056
  3H   2s         1.738673  1.490265  0.803981 -0.135680  0.066205  0.000049
  3H   1pz       -0.007622  0.005606 -0.003999 -0.012200  0.006777  0.014563
  3H   1px       -0.021410 -0.007542  0.005379  0.017358 -0.007231 -0.006110
  3H   1py        0.001995  0.012853 -0.009167 -0.028555  0.014381 -0.009933
                     12        13        14        15        16        17   
                   0.60859   0.60861   0.61561   0.86835   0.86835   1.22570
                   0.00000   0.00000   0.00000   0.00000   0.00000   0.00000
                  --------  --------  --------  --------  --------  --------
  0B   1s         0.000010  0.000021  0.171043 -0.000002 -0.000002 -0.000001
  0B   2s         0.000040  0.000085  0.751331 -0.000008 -0.000009 -0.000004
  0B   3s        -0.000206 -0.000482 -3.821319  0.000021  0.000026  0.000012
  0B   1pz       -0.142237  0.366541 -0.000037  0.000003 -0.000005 -0.162556
  0B   1px       -0.592486  0.045867  0.000014 -0.000004 -0.000012  0.014294
  0B   1py        0.155808  0.509030 -0.000087  0.000005 -0.000001 -0.247067
  0B   2pz       -0.386025  0.994693 -0.000099  0.000001 -0.000009  0.264900
  0B   2px       -1.607846  0.124476  0.000037 -0.000001 -0.000019 -0.023318
  0B   2py        0.422828  1.381443 -0.000232  0.000003  0.000002  0.402633
  0B   1dz2       0.066954 -0.099256  0.106800 -0.447271  0.487048 -0.183750
  0B   1dxz      -0.105652 -0.180325 -0.114195  0.322634  0.417849 -0.393199
  0B   1dyz       0.178263 -0.057173 -0.185771 -0.334136 -0.109153 -0.069221
  0B   1dx2y2    -0.276161 -0.031299 -0.039386 -0.438019 -0.168348 -0.135715
  0B   1dxy       0.038740 -0.280290  0.077961  0.067903 -0.400242 -0.558135
  1H   1s        -0.889466  0.070292 -0.738868  0.000001 -0.000007  0.036305
  1H   2s         2.317636 -0.183213  1.871444 -0.000006  0.000015 -0.002119
  1H   1pz       -0.034519 -0.028515 -0.020359  0.085648  0.215240 -0.211282
  1H   1px       -0.111582  0.008919 -0.070868 -0.035926 -0.090295  0.008993
  1H   1py        0.018014 -0.047281  0.013735 -0.058418 -0.146842 -0.315228
  2H   1s         0.383700 -0.805575 -0.738806  0.000003  0.000017  0.617946
  2H   2s        -0.999787  2.099081  1.871300 -0.000006 -0.000029 -0.036237
  2H   1pz       -0.034076  0.065571  0.046750  0.143581 -0.181789 -0.103467
  2H   1px        0.016910  0.069862  0.035318 -0.060244  0.076258  0.097821
  2H   1py       -0.060346  0.053155  0.046812 -0.097949  0.124021 -0.211830
  3H   1s         0.505636  0.734975 -0.739025  0.000019  0.000011 -0.654230
  3H   2s        -1.317542 -1.915125  1.871875 -0.000021 -0.000022  0.038335
  3H   1pz        0.047170  0.018143 -0.026399 -0.229224 -0.033451 -0.145805
  3H   1px        0.005438 -0.071867  0.035556  0.096164  0.014026 -0.066300
  3H   1py        0.065802  0.070794 -0.060560  0.156375  0.022817 -0.172928
                     18        19        20        21        22        23   
                   1.22572   1.24729   1.36409   1.57057   1.76999   1.77000
                   0.00000   0.00000   0.00000   0.00000   0.00000   0.00000
                  --------  --------  --------  --------  --------  --------
  0B   1s        -0.000002  0.052252  0.000000  0.000001  0.000000  0.000000
  0B   2s        -0.000000  0.095491 -0.000003  0.000000  0.000003  0.000002
  0B   3s        -0.000048  0.281457 -0.000011 -0.000021 -0.000010  0.000005
  0B   1pz        0.088512  0.000013  0.000010 -0.232688  0.000010  0.000009
  0B   1px        0.279404  0.000007  0.000002  0.097616  0.000008  0.000000
  0B   1py       -0.042073 -0.000010  0.000015  0.158743 -0.000012  0.000011
  0B   2pz       -0.144242 -0.000009 -0.000019  0.165666 -0.000005 -0.000011
  0B   2px       -0.455270 -0.000012 -0.000007 -0.069498 -0.000005  0.000001
  0B   2py        0.068522  0.000018 -0.000024 -0.113022  0.000009 -0.000015
  0B   1dz2       0.161733 -0.429679  0.000003 -0.000024 -0.240555 -0.632923
  0B   1dxz      -0.167000  0.459600  0.000023  0.000011 -0.530507  0.103542
  0B   1dyz       0.376325  0.747436  0.000020  0.000038  0.253210 -0.255761
  0B   1dx2y2    -0.551689  0.158514  0.000004  0.000016  0.355128 -0.323676
  0B   1dxy       0.151879 -0.313553  0.000030 -0.000004  0.335188  0.245787
  1H   1s         0.734524 -0.466443 -0.000003 -0.000015 -0.000019 -0.000005
  1H   2s        -0.043111  0.081542  0.000013  0.000016  0.000026  0.000000
  1H   1pz        0.059179 -0.024477  0.327235 -0.486393  0.673245  0.058081
  1H   1px        0.169156 -0.085240 -0.000961  0.204032 -0.282438 -0.024357
  1H   1py       -0.017299  0.016489  0.480256  0.331821 -0.459307 -0.039590
  2H   1s        -0.398665 -0.466486 -0.000055 -0.000016  0.000010  0.000021
  2H   2s         0.023396  0.081557  0.000022  0.000016 -0.000004 -0.000034
  2H   1pz        0.045757  0.056253 -0.026966 -0.486413 -0.286313 -0.612074
  2H   1px        0.307320  0.042503  0.475994  0.204063  0.120128  0.256760
  2H   1py       -0.121891  0.056287 -0.332219  0.331854  0.195316  0.417564
  3H   1s        -0.335793 -0.466495  0.000028 -0.000012  0.000012 -0.000014
  3H   2s         0.019742  0.081545  0.000000  0.000017 -0.000013  0.000024
  3H   1pz        0.145847 -0.031719 -0.300212 -0.486427 -0.386874  0.554018
  3H   1px        0.315153  0.042776 -0.475016  0.204068  0.162315 -0.232396
  3H   1py        0.020004 -0.072829 -0.147948  0.331834  0.263945 -0.377947
                     24        25        26        27        28   
                   1.96991   1.96994   2.36158   2.50563   2.50564
                   0.00000   0.00000   0.00000   0.00000   0.00000
                  --------  --------  --------  --------  --------
  0B   1s         0.000010  0.000000  0.256525  0.000002  0.000025
  0B   2s         0.000075  0.000003  1.774837  0.000014  0.000162
  0B   3s         0.000036 -0.000000  0.733320  0.000000  0.000056
  0B   1pz        0.131685 -0.259430 -0.000025  0.805020  0.332606
  0B   1px        0.439627  0.009775 -0.000156  0.073295  1.314541
  0B   1py       -0.077312 -0.386291  0.000016  1.134950 -0.320810
  0B   2pz       -0.151743  0.298963  0.000004 -0.100383 -0.041474
  0B   2px       -0.506622 -0.011253  0.000053 -0.009138 -0.163918
  0B   2py        0.089108  0.445147 -0.000009 -0.141524  0.040004
  0B   1dz2      -0.120785  0.145498 -0.330606  0.383065  0.270475
  0B   1dxz       0.137798  0.299985  0.353632  0.714906 -0.398393
  0B   1dyz      -0.289158  0.061841  0.575028  0.208735  0.702910
  0B   1dx2y2     0.429126  0.092469  0.122022  0.145807 -1.078660
  0B   1dxy      -0.104859  0.434507 -0.241256  1.094261  0.175251
  1H   1s        -0.147108 -0.003007 -0.539536  0.063734  1.108149
  1H   2s         0.746848  0.015283 -0.517698  0.017849  0.310364
  1H   1pz       -0.105880 -0.466435  0.237222 -0.232194 -0.318981
  1H   1px       -0.401525 -0.006860  0.825682 -0.065682 -1.152967
  1H   1py        0.091758 -0.679483 -0.159981 -0.299969  0.241388
  2H   1s         0.076149 -0.125863 -0.539416 -0.991577 -0.498969
  2H   2s        -0.386707  0.639191 -0.517592 -0.277746 -0.139777
  2H   1pz       -0.169918  0.206899 -0.544644 -0.688578 -0.326795
  2H   1px        0.474071  0.520828 -0.411497 -0.374646 -0.536207
  2H   1py       -0.540621 -0.016948 -0.545283 -0.778921 -0.149276
  3H   1s         0.070936  0.128873 -0.539419  0.927833 -0.609356
  3H   2s        -0.360234 -0.654478 -0.517587  0.259890 -0.170700
  3H   1pz        0.445257 -0.074273  0.307436 -0.467063  0.072385
  3H   1px        0.493216 -0.501399 -0.414001  0.313971 -0.577022
  3H   1py        0.349358  0.199396  0.705261 -0.877733  0.460949


-------
DENSITY
-------
                  0          1          2          3          4          5    
      0       2.075013   0.153597   0.125937   0.000000  -0.000001  -0.000000
      1       0.153597   0.478091   0.161722   0.000001  -0.000003  -0.000001
      2       0.125937   0.161722   0.057407   0.000003   0.000004   0.000000
      3       0.000000   0.000001   0.000003   0.138885   0.090839   0.147721
      4      -0.000001  -0.000003   0.000004   0.090839   0.317311  -0.061970
      5      -0.000000  -0.000001   0.000000   0.147721  -0.061970   0.254642
      6      -0.000001  -0.000002  -0.000002  -0.044058  -0.028817  -0.046861
      7      -0.000001  -0.000002  -0.000002  -0.028817  -0.100663   0.019660
      8      -0.000000  -0.000000  -0.000000  -0.046860   0.019661  -0.080779
      9       0.001014  -0.001764  -0.000539   0.003008   0.002898   0.002627
     10      -0.001085   0.001886   0.000576   0.003346  -0.003557   0.007092
     11      -0.001765   0.003067   0.000937   0.003033   0.007092   0.000085
     12      -0.000374   0.000650   0.000198  -0.001822  -0.010625   0.003863
     13       0.000740  -0.001287  -0.000393   0.007091   0.002347   0.008952
     14       0.108536   0.202072   0.069943  -0.084753  -0.294978   0.057157
     15       0.014921   0.047635   0.016097  -0.040048  -0.139386   0.027009
     16      -0.002768  -0.004980  -0.001727  -0.001526   0.002345  -0.003678
     17      -0.009633  -0.017332  -0.006011   0.002345   0.008140  -0.001567
     18       0.001866   0.003358   0.001165  -0.003678  -0.001568  -0.004428
     19       0.108538   0.202073   0.069951   0.194614   0.147040   0.194849
     20       0.014919   0.047631   0.016100   0.091960   0.069483   0.092070
     21       0.006356   0.011435   0.003966   0.003528   0.002940   0.003364
     22       0.004802   0.008639   0.002996   0.002941  -0.002628   0.005926
     23       0.006363   0.011449   0.003971   0.003363   0.005925   0.001286
     24       0.108537   0.202073   0.069948  -0.109860   0.147934  -0.252006
     25       0.014921   0.047635   0.016100  -0.051913   0.069900  -0.119080
     26      -0.003587  -0.006454  -0.002239  -0.000721  -0.004447   0.001678
     27       0.004831   0.008692   0.003015  -0.004447  -0.002584  -0.004930
     28      -0.008230  -0.014807  -0.005136   0.001678  -0.004931   0.005492
                  6          7          8          9         10         11    
      0      -0.000001  -0.000001  -0.000000   0.001014  -0.001085  -0.001765
      1      -0.000002  -0.000002  -0.000000  -0.001764   0.001886   0.003067
      2      -0.000002  -0.000002  -0.000000  -0.000539   0.000576   0.000937
      3      -0.044058  -0.028817  -0.046860   0.003008   0.003346   0.003033
      4      -0.028817  -0.100663   0.019661   0.002898  -0.003557   0.007092
      5      -0.046861   0.019660  -0.080779   0.002627   0.007092   0.000085
      6       0.013976   0.009142   0.014865  -0.000954  -0.001061  -0.000962
      7       0.009142   0.031934  -0.006237  -0.000919   0.001129  -0.002250
      8       0.014865  -0.006237   0.025625  -0.000833  -0.002250  -0.000027
      9      -0.000954  -0.000919  -0.000833   0.000076   0.000043   0.000071
     10      -0.001061   0.001129  -0.002250   0.000043   0.000217  -0.000026
     11      -0.000962  -0.002250  -0.000027   0.000071  -0.000026   0.000191
     12       0.000578   0.003371  -0.001226  -0.000076   0.000169  -0.000222
     13      -0.002250  -0.000744  -0.002840   0.000151   0.000216   0.000100
     14       0.026885   0.093577  -0.018134  -0.003411   0.004056  -0.005359
     15       0.012704   0.044218  -0.008569  -0.001452   0.001745  -0.002811
     16       0.000484  -0.000744   0.001167  -0.000004  -0.000130   0.000003
     17      -0.000744  -0.002582   0.000497   0.000135  -0.000156   0.000076
     18       0.001167   0.000497   0.001405  -0.000088  -0.000095  -0.000043
     19      -0.061737  -0.046647  -0.061810   0.003575   0.005009   0.005878
     20      -0.029172  -0.022043  -0.029206   0.001849   0.002196   0.002499
     21      -0.001119  -0.000933  -0.001067   0.000039   0.000114   0.000159
     22      -0.000933   0.000834  -0.001880   0.000017   0.000205   0.000027
     23      -0.001067  -0.001880  -0.000408   0.000046   0.000041   0.000217
     24       0.034849  -0.046932   0.079943  -0.002297  -0.006782   0.003191
     25       0.016468  -0.022176   0.037776  -0.000925  -0.003376   0.001229
     26       0.000229   0.001411  -0.000532  -0.000007   0.000047  -0.000134
     27       0.001411   0.000820   0.001564  -0.000126  -0.000082  -0.000038
     28      -0.000532   0.001564  -0.001742   0.000066   0.000119  -0.000173
                 12         13         14         15         16         17    
      0      -0.000374   0.000740   0.108536   0.014921  -0.002768  -0.009633
      1       0.000650  -0.001287   0.202072   0.047635  -0.004980  -0.017332
      2       0.000198  -0.000393   0.069943   0.016097  -0.001727  -0.006011
      3      -0.001822   0.007091  -0.084753  -0.040048  -0.001526   0.002345
      4      -0.010625   0.002347  -0.294978  -0.139386   0.002345   0.008140
      5       0.003863   0.008952   0.057157   0.027009  -0.003678  -0.001567
      6       0.000578  -0.002250   0.026885   0.012704   0.000484  -0.000744
      7       0.003371  -0.000744   0.093577   0.044218  -0.000744  -0.002582
      8      -0.001226  -0.002840  -0.018134  -0.008569   0.001167   0.000497
      9      -0.000076   0.000151  -0.003411  -0.001452  -0.000004   0.000135
     10       0.000169   0.000216   0.004056   0.001745  -0.000130  -0.000156
     11      -0.000222   0.000100  -0.005359  -0.002811   0.000003   0.000076
     12       0.000370  -0.000011   0.010136   0.004731  -0.000109  -0.000295
     13      -0.000011   0.000387  -0.002718  -0.001167  -0.000095   0.000105
     14       0.010136  -0.002718   0.360564   0.149701  -0.004303  -0.014980
     15       0.004731  -0.001167   0.149701   0.065975  -0.001523  -0.005302
     16      -0.000109  -0.000095  -0.004303  -0.001523   0.000113   0.000243
     17      -0.000295   0.000105  -0.014980  -0.005302   0.000243   0.000845
     18       0.000022  -0.000204   0.002903   0.001027   0.000016  -0.000164
     19      -0.003013   0.009242  -0.050759  -0.044662  -0.004012  -0.003620
     20      -0.001483   0.004484  -0.044665  -0.025869  -0.001385   0.000066
     21      -0.000055   0.000145   0.002150  -0.000156  -0.000151  -0.000344
     22       0.000139   0.000168   0.006128   0.002010  -0.000182  -0.000384
     23      -0.000166   0.000109  -0.000616  -0.001465  -0.000109  -0.000268
     24      -0.006336  -0.008081  -0.050760  -0.044662   0.001926  -0.003639
     25      -0.003053  -0.003702  -0.044659  -0.025867   0.001420   0.000057
     26       0.000147   0.000015   0.001372   0.001310   0.000024   0.000123
     27       0.000058  -0.000252   0.006130   0.002006  -0.000039  -0.000386
     28       0.000179   0.000177  -0.001758   0.000687   0.000060   0.000418
                 18         19         20         21         22         23    
      0       0.001866   0.108538   0.014919   0.006356   0.004802   0.006363
      1       0.003358   0.202073   0.047631   0.011435   0.008639   0.011449
      2       0.001165   0.069951   0.016100   0.003966   0.002996   0.003971
      3      -0.003678   0.194614   0.091960   0.003528   0.002941   0.003363
      4      -0.001568   0.147040   0.069483   0.002940  -0.002628   0.005925
      5      -0.004428   0.194849   0.092070   0.003364   0.005926   0.001286
      6       0.001167  -0.061737  -0.029172  -0.001119  -0.000933  -0.001067
      7       0.000497  -0.046647  -0.022043  -0.000933   0.000834  -0.001880
      8       0.001405  -0.061810  -0.029206  -0.001067  -0.001880  -0.000408
      9      -0.000088   0.003575   0.001849   0.000039   0.000017   0.000046
     10      -0.000095   0.005009   0.002196   0.000114   0.000205   0.000041
     11      -0.000043   0.005878   0.002499   0.000159   0.000027   0.000217
     12       0.000022  -0.003013  -0.001483  -0.000055   0.000139  -0.000166
     13      -0.000204   0.009242   0.004484   0.000145   0.000168   0.000109
     14       0.002903  -0.050759  -0.044665   0.002150   0.006128  -0.000616
     15       0.001027  -0.044662  -0.025869  -0.000156   0.002010  -0.001465
     16       0.000016  -0.004012  -0.001385  -0.000151  -0.000182  -0.000109
     17      -0.000164  -0.003620   0.000066  -0.000344  -0.000384  -0.000268
     18       0.000124  -0.003654  -0.002071  -0.000010  -0.000031   0.000004
     19      -0.003654   0.360565   0.149698   0.009883   0.007467   0.009895
     20      -0.002071   0.149698   0.065973   0.003498   0.002643   0.003502
     21      -0.000010   0.009883   0.003498   0.000368   0.000273   0.000372
     22      -0.000031   0.007467   0.002643   0.000273   0.000301   0.000215
     23       0.000004   0.009895   0.003502   0.000372   0.000215   0.000413
     24       0.005060  -0.050760  -0.044662   0.002639  -0.002510   0.005412
     25       0.002047  -0.044664  -0.025868   0.000075  -0.002071   0.001383
     26      -0.000040  -0.004075  -0.001264  -0.000184  -0.000063  -0.000231
     27       0.000181  -0.002489  -0.002067   0.000098   0.000059   0.000108
     28      -0.000169  -0.004443  -0.000582  -0.000331  -0.000129  -0.000406
                  24         25         26         27         28    
      0       0.108537   0.014921  -0.003587   0.004831  -0.008230
      1       0.202073   0.047635  -0.006454   0.008692  -0.014807
      2       0.069948   0.016100  -0.002239   0.003015  -0.005136
      3      -0.109860  -0.051913  -0.000721  -0.004447   0.001678
      4       0.147934   0.069900  -0.004447  -0.002584  -0.004931
      5      -0.252006  -0.119080   0.001678  -0.004930   0.005492
      6       0.034849   0.016468   0.000229   0.001411  -0.000532
      7      -0.046932  -0.022176   0.001411   0.000820   0.001564
      8       0.079943   0.037776  -0.000532   0.001564  -0.001742
      9      -0.002297  -0.000925  -0.000007  -0.000126   0.000066
     10      -0.006782  -0.003376   0.000047  -0.000082   0.000119
     11       0.003191   0.001229  -0.000134  -0.000038  -0.000173
     12      -0.006336  -0.003053   0.000147   0.000058   0.000179
     13      -0.008081  -0.003702   0.000015  -0.000252   0.000177
     14      -0.050760  -0.044659   0.001372   0.006130  -0.001758
     15      -0.044662  -0.025867   0.001310   0.002006   0.000687
     16       0.001926   0.001420   0.000024  -0.000039   0.000060
     17      -0.003639   0.000057   0.000123  -0.000386   0.000418
     18       0.005060   0.002047  -0.000040   0.000181  -0.000169
     19      -0.050760  -0.044664  -0.004075  -0.002489  -0.004443
     20      -0.044662  -0.025868  -0.001264  -0.002067  -0.000582
     21       0.002639   0.000075  -0.000184   0.000098  -0.000331
     22      -0.002510  -0.002071  -0.000063   0.000059  -0.000129
     23       0.005412   0.001383  -0.000231   0.000108  -0.000406
     24       0.360564   0.149699  -0.005579   0.007512  -0.012798
     25       0.149699   0.065973  -0.001974   0.002659  -0.004530
     26      -0.005579  -0.001974   0.000153  -0.000101   0.000287
     27       0.007512   0.002659  -0.000101   0.000303  -0.000334
     28      -0.012798  -0.004530   0.000287  -0.000334   0.000626



                    ********************************
                    * MULLIKEN POPULATION ANALYSIS *
                    ********************************

-----------------------
MULLIKEN ATOMIC CHARGES
-----------------------
   0 B :   -0.005273
   1 H :    0.001755
   2 H :    0.001762
   3 H :    0.001757
Sum of atomic charges:    0.0000000

------------------------
MULLIKEN ORBITAL CHARGES
------------------------
The uncorrected charge=density diagonal is given in parenthesis)
   0:   0B   1s           1.987613 (  2.075013)
   1:   0B   2s           0.882166 (  0.478091)
   2:   0B   3s           0.289460 (  0.057407)
   3:   0B   1pz          0.275181 (  0.138885)
   4:   0B   1px          0.628705 (  0.317311)
   5:   0B   1py          0.504538 (  0.254642)
   6:   0B   2pz          0.082141 (  0.013976)
   7:   0B   2px          0.187675 (  0.031934)
   8:   0B   2py          0.150603 (  0.025625)
   9:   0B   1dz2         0.001121 (  0.000076)
  10:   0B   1dxz         0.003024 (  0.000217)
  11:   0B   1dyz         0.002861 (  0.000191)
  12:   0B   1dx2y2       0.004961 (  0.000370)
  13:   0B   1dxy         0.005223 (  0.000387)
  14:   1H   1s           0.736828 (  0.360564)
  15:   1H   2s           0.249574 (  0.065975)
  16:   1H   1pz          0.001403 (  0.000113)
  17:   1H   1px          0.008629 (  0.000845)
  18:   1H   1py          0.001811 (  0.000124)
  19:   2H   1s           0.736829 (  0.360565)
  20:   2H   2s           0.249567 (  0.065973)
  21:   2H   1pz          0.003761 (  0.000368)
  22:   2H   1px          0.003605 (  0.000301)
  23:   2H   1py          0.004477 (  0.000413)
  24:   3H   1s           0.736828 (  0.360564)
  25:   3H   2s           0.249573 (  0.065973)
  26:   3H   1pz          0.001778 (  0.000153)
  27:   3H   1px          0.003625 (  0.000303)
  28:   3H   1py          0.006440 (  0.000626)
Sum of orbital charges :    8.0000000

--------------------------------
MULLIKEN REDUCED ORBITAL CHARGES
--------------------------------
  0 B s       :     3.159240  s :     3.159240
      pz      :     0.357322  p :     1.828843
      px      :     0.816380
      py      :     0.655141
      dz2     :     0.001121  d :     0.017191
      dxz     :     0.003024
      dyz     :     0.002861
      dx2y2   :     0.004961
      dxy     :     0.005223
  1 H s       :     0.986402  s :     0.986402
      pz      :     0.001403  p :     0.011843
      px      :     0.008629
      py      :     0.001811
  2 H s       :     0.986396  s :     0.986396
      pz      :     0.003761  p :     0.011843
      px      :     0.003605
      py      :     0.004477
  3 H s       :     0.986401  s :     0.986401
      pz      :     0.001778  p :     0.011843
      px      :     0.003625
      py      :     0.006440

------------------------
MULLIKEN OVERLAP CHARGES
------------------------
B(  0-B ,  1-H ) :   0.8247 B(  0-B ,  2-H ) :   0.8246 B(  0-B ,  3-H ) :   0.8247 


-----------------------------------
MULLIKEN ORBITAL POPULATIONS PER MO
-----------------------------------
THRESHOLD FOR PRINTING IS 0.1%
                      0         1         2         3         4         5   
                  -6.55622  -0.45349  -0.30638  -0.30637  -0.10592   0.12086
                   2.00000   2.00000   2.00000   2.00000   0.00000   0.00000
                  --------  --------  --------  --------  --------  --------
  0B   1s             98.9       0.5       0.0       0.0       0.0       0.0
  0B   2s              1.4      42.7       0.0       0.0       0.0       0.0
  0B   3s             -0.4      14.8      -0.0       0.0      -0.0      -0.0
  0B   1pz             0.0       0.0      10.7       3.0      30.8       0.4
  0B   1px             0.0       0.0       0.1      31.4       5.4       9.1
  0B   1py             0.0       0.0      24.4       0.8      14.3       1.0
  0B   2pz             0.0       0.0       3.2       0.9      29.2       1.3
  0B   2px            -0.0      -0.0       0.0       9.4       5.1      34.0
  0B   2py            -0.0      -0.0       7.3       0.2      13.6       3.6
  0B   1dxz            0.0       0.0       0.1       0.0      -0.0       0.3
  0B   1dyz            0.0       0.0       0.0       0.1       0.0       0.6
  0B   1dx2y2          0.0       0.0       0.0       0.2       0.0       1.5
  0B   1dxy            0.0       0.0       0.2       0.0       0.0       0.0
  1H   1s             -0.0      10.3       0.0      26.5       0.0       3.7
  1H   2s              0.0       3.3       0.0       9.1       0.0      26.5
  1H   1pz            -0.0       0.0       0.0       0.0       0.3       0.1
  1H   1px            -0.0       0.3       0.0       0.1       0.1       0.3
  1H   1py            -0.0       0.0       0.1       0.0       0.1      -0.0
  2H   1s             -0.0      10.3      18.9       7.6       0.0       0.5
  2H   2s              0.0       3.3       6.5       2.6       0.0       3.6
  2H   1pz            -0.0       0.1       0.0       0.0       0.3       0.0
  2H   1px            -0.0       0.1       0.1       0.0       0.1       0.5
  2H   1py            -0.0       0.1       0.0       0.1       0.1       0.5
  3H   1s             -0.0      10.3      20.8       5.7       0.0       1.5
  3H   2s              0.0       3.3       7.2       2.0      -0.0      10.5
  3H   1pz            -0.0       0.0       0.0       0.0       0.3       0.3
  3H   1px            -0.0       0.1       0.1       0.0       0.1       0.2
  3H   1py            -0.0       0.2       0.1       0.0       0.1       0.3

                      6         7         8         9        10        11   
                   0.12087   0.12515   0.17919   0.23596   0.23597   0.29491
                   0.00000   0.00000   0.00000   0.00000   0.00000   0.00000
                  --------  --------  --------  --------  --------  --------
  0B   1s              0.0       0.3       0.2       0.0       0.0       0.0
  0B   2s              0.0      24.4      10.7       0.0       0.0       0.0
  0B   3s              0.0     -12.0     143.9       0.0       0.0       0.0
  0B   1pz             3.7       0.0       0.0       0.2      10.2      29.3
  0B   1px             0.2       0.0       0.0      16.5       7.4       5.2
  0B   1py             6.5       0.0       0.0      10.0       9.1      13.6
  0B   2pz            13.9       0.0       0.0       0.5      23.8      31.5
  0B   2px             0.8       0.0      -0.0      38.3      17.2       5.6
  0B   2py            24.3       0.0       0.0      23.4      21.2      14.7
  0B   1dz2            0.2       0.2       0.2       0.0       0.0       0.0
  0B   1dxz            0.6       0.2       0.2       0.0       0.0       0.0
  0B   1dyz            0.1       0.6       0.5       0.0       0.0       0.0
  0B   1dxy            1.5       0.1       0.1       0.0       0.1       0.0
  1H   1s              0.1       2.4       1.5       0.5       0.2       0.0
  1H   2s              0.6      25.9     -20.2       3.5       1.6       0.0
  1H   1pz             0.3       0.0       0.0       0.1       0.1       0.0
  1H   1px             0.0       0.4       0.1       0.9       0.4       0.0
  1H   1py             0.8       0.0       0.0       0.1      -0.0       0.0
  2H   1s              3.2       2.4       1.5       0.0       0.8       0.0
  2H   2s             23.4      25.9     -20.2       0.0       5.1      -0.0
  2H   1pz             0.1       0.2       0.0       0.0       0.5       0.0
  2H   1px             0.3       0.1       0.0      -0.0       0.3       0.0
  2H   1py            -0.0       0.2       0.0       0.0       0.5       0.0
  3H   1s              2.3       2.4       1.5       0.6       0.2       0.0
  3H   2s             16.5      25.9     -20.2       4.1       1.0      -0.0
  3H   1pz             0.0       0.1       0.0       0.1       0.1       0.0
  3H   1px             0.6       0.1       0.0       0.3       0.0       0.0
  3H   1py             0.0       0.3       0.1       0.7       0.2       0.0

                     12        13        14        15        16        17   
                   0.60859   0.60861   0.61561   0.86835   0.86835   1.22570
[...]
Storage mode                      ...       InCore

One electron integral derivatives                ... done   (      0.1 sec)

------------------------
Batching info for step 1
------------------------
Number of perturbation per batch  ...            3
Number of batches                 ...            1
Storage mode                      ...       InCore

Transforming the overlap derivative matrices     ... done   (      0.0 sec)

------------------------
Batching info for step 1
------------------------
Number of perturbation per batch  ...            3
Number of batches                 ...            1
Storage mode                      ...       InCore

Making the Q(x) pseudodensities                  ... done   (      0.1 sec)
Adding the E*S(x)*S(y) terms to the Hessian      ... done   (      0.0 sec)
Calculating energy weighted overlap derivatives  ... done   (      0.0 sec)

------------------------
Batching info for step 3
------------------------
Number of perturbation per batch  ...            3
Number of batches                 ...            1
Storage mode                      ...       InCore

Two electron integral derivatives (RI)           ... done   (      0.3 sec)

------------------------
Batching info for step 4
------------------------
Number of perturbation per batch  ...            3
Number of batches                 ...            1
Storage mode                      ...       InCore

Exchange-correlation integral derivatives        ... done   (      0.6 sec)
tr(F(y)Q(x)) contribution to the Hessian         ... done   (      0.0 sec)

------------------------
Batching info for step 5
------------------------
Number of perturbation per batch  ...            3
Number of batches                 ...            1
Storage mode                      ...       InCore

Response fock operator R(S(x)) (RI)              ... (RIJ)done   (      0.4 sec)

------------------------
Batching info for step 6
------------------------
Number of perturbation per batch  ...            3
Number of batches                 ...            1
Storage mode                      ...       InCore

XC Response fock operator R(S(x))                ... done   (      0.1 sec)
tr(F(y)S(x)) contribution to the Hessian         ... done   (      0.0 sec)
Transforming and finalizing RHSs                 ... done   (      0.0 sec)

----------------------------------------------
Solving the CP-SCF equations (RI)                ...
----------------------------------------------
     CP-SCF ITERATION   0: 
     CP-SCF ITERATION   1:      0.000027811545
     CP-SCF ITERATION   2:      0.000000022576
     CP-SCF ITERATION   3:      0.000000001394

                                                 ... done   (      1.2 sec)
Forming perturbed density Hessian contributions  ... done   (      0.0 sec)
Making the perturbed densities                   ... done   (      0.0 sec)
2nd integral derivative contribs (RI)            ... done   (      0.4 sec)
Exchange-correlation Hessian                     ... done   (      0.8 sec)
Dispersion correction in the Hessian             ... 
The revPBE functional is recognized
Active option DFTDOPT                   ...         5   



------------------- 
Dispersion Gradient 
------------------- 
   1  :   -0.000000964    0.000000072   -0.000000105
   2  :    0.000075341   -0.000014563    0.000021593
   3  :   -0.000036792   -0.000048935   -0.000048898
   4  :   -0.000037016    0.000063309    0.000027581

  |G| =    0.000375169


The revPBE functional is recognized
Active option DFTDOPT                   ...         5   



------------------- 
Dispersion Gradient 
------------------- 
   1  :    0.000000911   -0.000000143    0.000000210
   2  :    0.000073576   -0.000014268    0.000021156
   3  :   -0.000037433   -0.000049423   -0.000049397
   4  :   -0.000037661    0.000063954    0.000027854

  |G| =    0.000375985


The revPBE functional is recognized
Active option DFTDOPT                   ...         5   



------------------- 
Dispersion Gradient 
------------------- 
   1  :   -0.000000092    0.000000109    0.000000035
   2  :    0.000074529   -0.000014316    0.000021421
   3  :   -0.000037110   -0.000049250   -0.000049128
   4  :   -0.000037252    0.000063441    0.000027691

  |G| =    0.000374376


The revPBE functional is recognized
Active option DFTDOPT                   ...         5   



------------------- 
Dispersion Gradient 
------------------- 
   1  :    0.000000049   -0.000000183    0.000000072
   2  :    0.000074414   -0.000014518    0.000021335
   3  :   -0.000037116   -0.000049106   -0.000049166
   4  :   -0.000037426    0.000063820    0.000027743

  |G| =    0.000374947


The revPBE functional is recognized
Active option DFTDOPT                   ...         5   



------------------- 
Dispersion Gradient 
------------------- 
   1  :    0.000000097    0.000000121    0.000000339
   2  :    0.000074231   -0.000014399    0.000021192
   3  :   -0.000037212   -0.000049305   -0.000049201
   4  :   -0.000037246    0.000063411    0.000027509

  |G| =    0.000374262


The revPBE functional is recognized
Active option DFTDOPT                   ...         5   



------------------- 
Dispersion Gradient 
------------------- 
   1  :   -0.000000141   -0.000000196   -0.000000235
   2  :    0.000074719   -0.000014437    0.000021567
   3  :   -0.000037012   -0.000049048   -0.000049088
   4  :   -0.000037435    0.000063855    0.000027928

  |G| =    0.000375661


Dispersion correction Hessian from Numerical Differentiation: 
                  0          1          2          3          4          5    
      0      -0.000187   0.000000   0.000000   0.000000  -0.000014   0.000000
      1       0.000000   0.000000   0.000000   0.000000   0.000029   0.000000
      2       0.000000   0.000000   0.000000   0.000000  -0.000004   0.000000
      3       0.000000   0.000000   0.000000   0.000000   0.000012   0.000000
      4      -0.000014   0.000029  -0.000004   0.000012   0.000020   0.000000
      5       0.000000   0.000000   0.000000   0.000000   0.000000   0.000000
      6       0.000000   0.000000   0.000000   0.000000   0.000000   0.000000
      7       0.000000   0.000000   0.000000   0.000000   0.000000   0.000000
      8       0.000024   0.000032   0.000057  -0.000049   0.000004  -0.000037
      9       0.000000   0.000000   0.000000   0.000000   0.000000   0.000000
     10       0.000000   0.000000   0.000000   0.000000   0.000000   0.000000
     11       0.000000   0.000000   0.000000   0.000000   0.000000   0.000000
                  6          7          8          9         10         11    
      0       0.000000   0.000000   0.000024   0.000000   0.000000   0.000000
      1       0.000000   0.000000   0.000032   0.000000   0.000000   0.000000
      2       0.000000   0.000000   0.000057   0.000000   0.000000   0.000000
      3       0.000000   0.000000  -0.000049   0.000000   0.000000   0.000000
      4       0.000000   0.000000   0.000004   0.000000   0.000000   0.000000
      5       0.000000   0.000000  -0.000037   0.000000   0.000000   0.000000
      6       0.000000   0.000000  -0.000020   0.000000   0.000000   0.000000
      7       0.000000   0.000000  -0.000026   0.000000   0.000000   0.000000
      8      -0.000020  -0.000026  -0.000011   0.000000   0.000000   0.000000
      9       0.000000   0.000000   0.000000   0.000000   0.000000   0.000000
     10       0.000000   0.000000   0.000000   0.000000   0.000000   0.000000
     11       0.000000   0.000000   0.000000   0.000000   0.000000   0.000000

done   (      0.3 sec)
gCP correction in the Hessian                    ...  
-----------------
gCP hessian 
from Numerical Differentiation: 
-----------------
                  0          1          2          3          4          5    
      0       0.000352  -0.000425   0.000623  -0.000843   0.000282  -0.000417
      1      -0.000425  -0.000078   0.001014   0.000282   0.000554   0.000081
      2       0.000623   0.001014  -0.000872  -0.000417   0.000081   0.000488
      3      -0.000843   0.000282  -0.000417   0.000965  -0.000318   0.000472
      4       0.000282   0.000554   0.000081  -0.000318  -0.000565  -0.000059
      5      -0.000417   0.000081   0.000488   0.000472  -0.000059  -0.000517
      6       0.000247  -0.000478  -0.000477  -0.000061  -0.000029  -0.000060
      7      -0.000478  -0.000025  -0.000632  -0.000029   0.000024  -0.000019
      8      -0.000477  -0.000632  -0.000023  -0.000060  -0.000019  -0.000004
      9       0.000243   0.000622   0.000271  -0.000061   0.000066   0.000005
     10       0.000622  -0.000450  -0.000462   0.000066  -0.000013  -0.000004
     11       0.000271  -0.000462   0.000407   0.000005  -0.000004   0.000033
                  6          7          8          9         10         11    
      0       0.000247  -0.000478  -0.000477   0.000243   0.000622   0.000271
      1      -0.000478  -0.000025  -0.000632   0.000622  -0.000450  -0.000462
      2      -0.000477  -0.000632  -0.000023   0.000271  -0.000462   0.000407
      3      -0.000061  -0.000029  -0.000060  -0.000061   0.000066   0.000005
      4      -0.000029   0.000024  -0.000019   0.000066  -0.000013  -0.000004
      5      -0.000060  -0.000019  -0.000004   0.000005  -0.000004   0.000033
      6      -0.000220   0.000507   0.000537   0.000034   0.000000   0.000000
      7       0.000507   0.000064   0.000717   0.000000  -0.000063  -0.000066
      8       0.000537   0.000717   0.000038   0.000000  -0.000066  -0.000011
      9       0.000034   0.000000   0.000000  -0.000215  -0.000688  -0.000277
     10       0.000000  -0.000063  -0.000066  -0.000688   0.000526   0.000532
     11       0.000000  -0.000066  -0.000011  -0.000277   0.000532  -0.000429

done   (      0.0 sec)
Dipol derivatives                                ... done   (      0.1 sec)

-------
TIMINGS
-------

Total SCF Hessian time: 0 days 0 hours 0 min 5 sec 
                   F(y)            G[Q(x)]           CPSCF         Total
Table01         0.3  0.07         0.4  0.08         1.2  0.23         5.0 
Table01a        0.3  0.07,        0.4, 0.08,        1.2  0.23         5.0 
Table01b        0.3   6.7,        0.4,  7.7,        1.2  23.2         5.0 

Writing the Hessian file to the disk             ... done


Maximum memory used throughout the entire calculation: 131.4 MB

-----------------------
VIBRATIONAL FREQUENCIES
-----------------------

Scaling factor for frequencies =  1.000000000  (already applied!)

   0:         0.00 cm**-1
   1:         0.00 cm**-1
   2:         0.00 cm**-1
   3:         0.00 cm**-1
   4:         0.00 cm**-1
   5:         0.00 cm**-1
   6:      1106.42 cm**-1
   7:      1135.54 cm**-1
   8:      1135.57 cm**-1
   9:      2463.74 cm**-1
  10:      2612.36 cm**-1
  11:      2612.37 cm**-1


------------
NORMAL MODES
------------

These modes are the Cartesian displacements weighted by the diagonal matrix
M(i,i)=1/sqrt(m[i]) where m[i] is the mass of the displaced atom
Thus, these vectors are normalized but *not* orthogonal

                  0          1          2          3          4          5    
      0       0.000000   0.000000   0.000000   0.000000   0.000000   0.000000
      1       0.000000   0.000000   0.000000   0.000000   0.000000   0.000000
      2       0.000000   0.000000   0.000000   0.000000   0.000000   0.000000
      3       0.000000   0.000000   0.000000   0.000000   0.000000   0.000000
      4       0.000000   0.000000   0.000000   0.000000   0.000000   0.000000
      5       0.000000   0.000000   0.000000   0.000000   0.000000   0.000000
      6       0.000000   0.000000   0.000000   0.000000   0.000000   0.000000
      7       0.000000   0.000000   0.000000   0.000000   0.000000   0.000000
      8       0.000000   0.000000   0.000000   0.000000   0.000000   0.000000
      9       0.000000   0.000000   0.000000   0.000000   0.000000   0.000000
     10       0.000000   0.000000   0.000000   0.000000   0.000000   0.000000
     11       0.000000   0.000000   0.000000   0.000000   0.000000   0.000000
                  6          7          8          9         10         11    
      0      -0.052205   0.019928  -0.093406   0.000018  -0.037610   0.098400
      1      -0.084873   0.077798   0.035652   0.000023   0.093377   0.013664
      2       0.124471   0.061374  -0.014870  -0.000037   0.047924   0.050600
      3       0.186830   0.018178  -0.078493   0.545450   0.272372  -0.716441
      4       0.303234  -0.656014  -0.125239  -0.105798  -0.041899   0.143157
      5      -0.444970  -0.439772  -0.117995   0.156861   0.085821  -0.203254
      6       0.186634   0.241056   0.617517  -0.271985  -0.250488  -0.288907
      7       0.303316  -0.091321  -0.455878  -0.360432  -0.313755  -0.397743
      8      -0.445004   0.039379  -0.052032  -0.359776  -0.318879  -0.392237
      9       0.186393  -0.472945   0.462683  -0.273658   0.381451  -0.049913
     10       0.303648  -0.086986   0.198776   0.465980  -0.645745   0.108055
     11      -0.444880  -0.257795   0.329495   0.203308  -0.280893   0.052843


-----------
IR SPECTRUM
-----------

 Mode    freq (cm**-1)   T**2         TX         TY         TZ
-------------------------------------------------------------------
   6:      1106.42   76.338133  ( -2.860859  -4.651043   6.820661)
   7:      1135.54   10.880750  (  0.651428   2.539281   2.002110)
   8:      1135.57   10.887767  ( -3.049382   1.163170  -0.485870)
   9:      2463.74    0.000001  (  0.000667  -0.000941   0.000271)
  10:      2612.36  123.057433  ( -3.741792   9.290565   4.768840)
  11:      2612.37  123.044145  (  9.790542   1.358484   5.034278)

The first frequency considered to be a vibration is 6
The total number of vibrations considered is 6


--------------------------
THERMOCHEMISTRY AT 298.15K
--------------------------

Temperature         ... 298.15 K
Pressure            ... 1.00 atm
Total Mass          ... 13.83 AMU

Throughout the following assumptions are being made:
  (1) The electronic state is orbitally nondegenerate
  (2) There are no thermally accessible electronically excited states
  (3) Hindered rotations indicated by low frequency modes are not
      treated as such but are treated as vibrations and this may
      cause some error
  (4) All equations used are the standard statistical mechanics
      equations for an ideal gas
  (5) All vibrations are strictly harmonic

freq.    1106.42  E(vib)   ...       0.02 
freq.    1135.54  E(vib)   ...       0.01 
freq.    1135.57  E(vib)   ...       0.01 
freq.    2463.74  E(vib)   ...       0.00 
freq.    2612.36  E(vib)   ...       0.00 
freq.    2612.37  E(vib)   ...       0.00 

------------
INNER ENERGY
------------

The inner energy is: U= E(el) + E(ZPE) + E(vib) + E(rot) + E(trans)
    E(el)   - is the total energy from the electronic structure calculation
              = E(kin-el) + E(nuc-el) + E(el-el) + E(nuc-nuc)
    E(ZPE)  - the the zero temperature vibrational energy from the frequency calculation
    E(vib)  - the the finite temperature correction to E(ZPE) due to population
              of excited vibrational states
    E(rot)  - is the rotational thermal energy
    E(trans)- is the translational thermal energy

Summary of contributions to the inner energy U:
Electronic energy                ...    -26.56742414 Eh
Zero point energy                ...      0.02521022 Eh      15.82 kcal/mol
Thermal vibrational correction   ...      0.00006781 Eh       0.04 kcal/mol
Thermal rotational correction    ...      0.00141627 Eh       0.89 kcal/mol
Thermal translational correction ...      0.00141627 Eh       0.89 kcal/mol
-----------------------------------------------------------------------
Total thermal energy                    -26.53931356 Eh


Summary of corrections to the electronic energy:
(perhaps to be used in another calculation)
Total thermal correction                  0.00290035 Eh       1.82 kcal/mol
Non-thermal (ZPE) correction              0.02521022 Eh      15.82 kcal/mol
-----------------------------------------------------------------------
Total correction                          0.02811057 Eh      17.64 kcal/mol


--------
ENTHALPY
--------

The enthalpy is H = U + kB*T
                kB is Boltzmann's constant
Total free energy                 ...    -26.53931356 Eh 
Thermal Enthalpy correction       ...      0.00094421 Eh       0.59 kcal/mol
-----------------------------------------------------------------------
Total Enthalpy                    ...    -26.53836936 Eh


Note: Only C1 symmetry has been detected, increase convergence thresholds 
      if your molecule has a higher symmetry. Symmetry factor of 1.0 is   
      used for the rotational entropy correction. 
 

Note: Rotational entropy computed according to Herzberg 
Infrared and Raman Spectra, Chapter V,1, Van Nostrand Reinhold, 1945 
Point Group:  C1, Symmetry Number:   1  
Rotational constants in cm-1:     7.501210     7.501096     3.750577 

Vibrational entropy computed according to the QRRHO of S. Grimme
Chem.Eur.J. 2012 18 9955


-------
ENTROPY
-------

The entropy contributions are T*S = T*(S(el)+S(vib)+S(rot)+S(trans))
     S(el)   - electronic entropy
     S(vib)  - vibrational entropy
     S(rot)  - rotational entropy
     S(trans)- translational entropy
The entropies will be listed as mutliplied by the temperature to get
units of energy

Electronic entropy                ...      0.00000000 Eh      0.00 kcal/mol
Vibrational entropy               ...      0.00008029 Eh      0.05 kcal/mol
Rotational entropy                ...      0.00698417 Eh      4.38 kcal/mol
Translational entropy             ...      0.01606980 Eh     10.08 kcal/mol
-----------------------------------------------------------------------
Final entropy term                ...      0.02313426 Eh     14.52 kcal/mol

In case the symmetry of your molecule has not been determined correctly
or in case you have a reason to use a different symmetry number we print 
out the resulting rotational entropy values for sn=1,12 :
 --------------------------------------------------------
|  sn= 1 | S(rot)=       0.00698417 Eh      4.38 kcal/mol|
|  sn= 2 | S(rot)=       0.00632971 Eh      3.97 kcal/mol|
|  sn= 3 | S(rot)=       0.00594688 Eh      3.73 kcal/mol|
|  sn= 4 | S(rot)=       0.00567526 Eh      3.56 kcal/mol|
|  sn= 5 | S(rot)=       0.00546457 Eh      3.43 kcal/mol|
|  sn= 6 | S(rot)=       0.00529243 Eh      3.32 kcal/mol|
|  sn= 7 | S(rot)=       0.00514688 Eh      3.23 kcal/mol|
|  sn= 8 | S(rot)=       0.00502080 Eh      3.15 kcal/mol|
|  sn= 9 | S(rot)=       0.00490959 Eh      3.08 kcal/mol|
|  sn=10 | S(rot)=       0.00481011 Eh      3.02 kcal/mol|
|  sn=11 | S(rot)=       0.00472012 Eh      2.96 kcal/mol|
|  sn=12 | S(rot)=       0.00463797 Eh      2.91 kcal/mol|
 --------------------------------------------------------


-------------------
GIBBS FREE ENERGY
-------------------

The Gibbs free energy is G = H - T*S

Total enthalpy                    ...    -26.53836936 Eh 
Total entropy correction          ...     -0.02313426 Eh    -14.52 kcal/mol
-----------------------------------------------------------------------
Final Gibbs free energy         ...    -26.56150362 Eh

For completeness - the Gibbs free energy minus the electronic energy
G-E(el)                           ...      0.00592052 Eh      3.72 kcal/mol


Timings for individual modules:

Sum of individual times         ...       22.496 sec (=   0.375 min)
GTO integral calculation        ...        3.200 sec (=   0.053 min)  14.2 %
SCF iterations                  ...        9.429 sec (=   0.157 min)  41.9 %
SCF Gradient evaluation         ...        3.439 sec (=   0.057 min)  15.3 %
Geometry relaxation             ...        0.094 sec (=   0.002 min)   0.4 %
Analytical frequency calculation...        6.334 sec (=   0.106 min)  28.2 %
                             ****ORCA TERMINATED NORMALLY****
TOTAL RUN TIME: 0 days 0 hours 0 minutes 24 seconds 48 msec
