
                                 *****************
                                 * O   R   C   A *
                                 *****************

           --- An Ab Initio, DFT and Semiempirical electronic structure package ---

                  #######################################################
                  #                        -***-                        #
                  #          Department of theory and spectroscopy      #
                  #               Directorship: Frank Neese             #
                  #        Max Planck Institute fuer Kohlenforschung    #
                  #                Kaiser Wilhelm Platz 1               #
                  #                 D-45470 Muelheim/Ruhr               #
                  #                      Germany                        #
                  #                                                     #
                  #                  All rights reserved                #
                  #                        -***-                        #
                  #######################################################


                         Program Version 4.2.1 -  RELEASE  -


 With contributions from (in alphabetic order):
   Daniel Aravena         : Magnetic Suceptibility
   Michael Atanasov       : Ab Initio Ligand Field Theory (pilot matlab implementation)
   Alexander A. Auer      : GIAO ZORA, VPT2
   Ute Becker             : Parallelization
   Giovanni Bistoni       : ED, misc. LED, open-shell LED, HFLD
   Martin Brehm           : Molecular dynamics
   Dmytro Bykov           : SCF Hessian
   Vijay G. Chilkuri      : MRCI spin determinant printing, contributions to CSF-ICE
   Dipayan Datta          : RHF DLPNO-CCSD density
   Achintya Kumar Dutta   : EOM-CC, STEOM-CC
   Dmitry Ganyushin       : Spin-Orbit,Spin-Spin,Magnetic field MRCI
   Miquel Garcia          : C-PCM Hessian, Gaussian charge scheme
   Yang Guo               : DLPNO-NEVPT2, CIM, IAO-localization
   Andreas Hansen         : Spin unrestricted coupled pair/coupled cluster methods
   Benjamin Helmich-Paris : CASSCF linear response (MC-RPA)
   Lee Huntington         : MR-EOM, pCC
   Robert Izsak           : Overlap fitted RIJCOSX, COSX-SCS-MP3, EOM
   Christian Kollmar      : KDIIS, OOCD, Brueckner-CCSD(T), CCSD density
   Simone Kossmann        : Meta GGA functionals, TD-DFT gradient, OOMP2, MP2 Hessian
   Martin Krupicka        : AUTO-CI
   Lucas Lang             : DCDCAS
   Dagmar Lenk            : GEPOL surface, SMD
   Dimitrios Liakos       : Extrapolation schemes; Compound Job, initial MDCI parallelization
   Dimitrios Manganas     : Further ROCIS development; embedding schemes
   Dimitrios Pantazis     : SARC Basis sets
   Taras Petrenko         : DFT Hessian,TD-DFT gradient, ASA, ECA, R-Raman, ABS, FL, XAS/XES, NRVS
   Peter Pinski           : DLPNO-MP2, DLPNO-MP2 Gradient
   Christoph Reimann      : Effective Core Potentials
   Marius Retegan         : Local ZFS, SOC
   Christoph Riplinger    : Optimizer, TS searches, QM/MM, DLPNO-CCSD(T), (RO)-DLPNO pert. Triples
   Tobias Risthaus        : Range-separated hybrids, TD-DFT gradient, RPA, STAB
   Michael Roemelt        : Original ROCIS implementation
   Masaaki Saitow         : Open-shell DLPNO-CCSD energy and density
   Barbara Sandhoefer     : DKH picture change effects
   Avijit Sen             : IP-ROCIS
   Kantharuban Sivalingam : CASSCF convergence, NEVPT2, FIC-MRCI
   Bernardo de Souza      : ESD, SOC TD-DFT
   Georgi Stoychev        : AutoAux, RI-MP2 NMR
   Willem Van den Heuvel  : Paramagnetic NMR
   Boris Wezisla          : Elementary symmetry handling
   Frank Wennmohs         : Technical directorship


 We gratefully acknowledge several colleagues who have allowed us to
 interface, adapt or use parts of their codes:
   Stefan Grimme, W. Hujo, H. Kruse,             : VdW corrections, initial TS optimization,
                  C. Bannwarth                     DFT functionals, gCP, sTDA/sTD-DF
   Ed Valeev, F. Pavosevic, A. Kumar             : LibInt (2-el integral package), F12 methods
   Garnet Chan, S. Sharma, J. Yang, R. Olivares  : DMRG
   Ulf Ekstrom                                   : XCFun DFT Library
   Mihaly Kallay                                 : mrcc  (arbitrary order and MRCC methods)
   Andreas Klamt, Michael Diedenhofen            : otool_cosmo (COSMO solvation model)
   Jiri Pittner, Ondrej Demel                    : Mk-CCSD
   Frank Weinhold                                : gennbo (NPA and NBO analysis)
   Christopher J. Cramer and Donald G. Truhlar   : smd solvation model
   Lars Goerigk                                  : TD-DFT with DH, B97 family of functionals
   V. Asgeirsson, H. Jonsson                     : NEB implementation
   FAccTs GmbH                                   : IRC, NEB, NEB-TS, Multilevel, MM, QM/MM, CI optimization
   S Lehtola, MJT Oliveira, MAL Marques          : LibXC Library


 Your calculation uses the libint2 library for the computation of 2-el integrals
 For citations please refer to: http://libint.valeyev.net

 Your ORCA version has been built with support for libXC version: 4.2.3
 For citations please refer to: https://tddft.org/programs/libxc/

 This ORCA versions uses:
   CBLAS   interface :  Fast vector & matrix operations
   LAPACKE interface :  Fast linear algebra routines
   SCALAPACK package :  Parallel linear algebra routines


Your calculation utilizes the geometrical counterpoise correction gCP
Please cite in your paper:
H.Kruse, S. Grimme J.Chem.Phys., 136, (2012), 154101 
   

Your calculation utilizes the atom-pairwise dispersion correction
based on tight binding partial charges (D4)
Cite in your paper:
E.Caldeweyher, C.Bannwarth, S.Grimme, J.Chem.Phys., (2017), 147, 034112.
E.Caldeweyher, S.Ehlert, A.Hansen, H.Neugebauer, S.Grimme, J.Chem.Phys., (2018), in progress.
   

----- Orbital basis set information -----
Your calculation utilizes the basis: def2-SVP
   F. Weigend and R. Ahlrichs, Phys. Chem. Chem. Phys. 7, 3297 (2005).

----- AuxJ basis set information -----
Your calculation utilizes the auxiliary basis: def2/J
   F. Weigend, Phys. Chem. Chem. Phys. 8, 1057 (2006).

================================================================================
                                        WARNINGS
                       Please study these warnings very carefully!
================================================================================


WARNING: Geometry Optimization
  ===> : Switching off AutoStart
         For restart on a previous wavefunction, please use MOREAD

INFO   : the flag for use of LIBINT has been found!

================================================================================
                                       INPUT FILE
================================================================================
NAME = C8H8-2.inp
|  1> ! revPBE D4 gCP(DFT/SVP) def2-SVP Opt Freq TightOpt TightSCF Grid4 FinalGrid5 LargePrint
|  2> 
|  3> %pal
|  4>  nprocs 12
|  5> end
|  6> 
|  7> *xyz -2 1
|  8> C       -2.2562703391      3.2253040573      0.6471286322                 
|  9> C       -2.3262210938      1.8391653209      0.1727889265                 
| 10> C       -1.4152268922      0.8920791485     -0.0637212527                 
| 11> C       -1.2631500029      4.0392658079      1.0126368218                 
| 12> C        0.2048168143      3.9411619329      1.1136156505                 
| 13> C        1.1150343969      2.9943158810      0.8771155904                 
| 14> C        1.0467545369      1.6087693055      0.4031284289                 
| 15> C        0.0519506135      0.7936195958      0.0370653988                 
| 16> H       -3.2445471974      3.6819965472      0.7110259604                 
| 17> H       -1.6100077273      5.0229827081      1.3130468009                 
| 18> H       -3.3520656648      1.5257915505     -0.0267139632                 
| 19> H       -1.8510728304     -0.0384539449     -0.4176763266                 
| 20> H        0.6390729792      4.8716189167      1.4673998055                 
| 21> H        2.1411448072      3.3088880697      1.0770473411                 
| 22> H        2.0347520711      1.1522581044      0.3392667863                 
| 23> H        0.4000469303     -0.1895550705     -0.2630483816                 
| 24> *
| 25> 
| 26>                          ****END OF INPUT****
================================================================================

                       *****************************
                       * Geometry Optimization Run *
                       *****************************

Geometry optimization settings:
Update method            Update   .... BFGS
Choice of coordinates    CoordSys .... Z-matrix Internals
Initial Hessian          InHess   .... Almoef's Model

Convergence Tolerances:
Energy Change            TolE     ....  1.0000e-06 Eh
Max. Gradient            TolMAXG  ....  1.0000e-04 Eh/bohr
RMS Gradient             TolRMSG  ....  3.0000e-05 Eh/bohr
Max. Displacement        TolMAXD  ....  1.0000e-03 bohr
RMS Displacement         TolRMSD  ....  6.0000e-04 bohr
Strict Convergence                ....  False
------------------------------------------------------------------------------
                        ORCA OPTIMIZATION COORDINATE SETUP
------------------------------------------------------------------------------

The optimization will be done in new redundant internal coordinates
Making redundant internal coordinates   ...  (new redundants) done
Evaluating the initial hessian          ...  (Almloef) done
Evaluating the coordinates              ...  done
Calculating the B-matrix                .... done
Calculating the G-matrix                .... done
Diagonalizing the G-matrix              .... done
The first mode is                       ....   30
The number of degrees of freedom        ....   42

    -----------------------------------------------------------------
                    Redundant Internal Coordinates


    -----------------------------------------------------------------
         Definition                    Initial Value    Approx d2E/dq
    -----------------------------------------------------------------
      1. B(C   1,C   0)                  1.4667         0.471340   
      2. B(C   2,C   1)                  1.3352         0.764068   
      3. B(C   3,C   0)                  1.3351         0.764491   
      4. B(C   4,C   3)                  1.4747         0.457721   
      5. B(C   5,C   4)                  1.3345         0.766041   
      6. B(C   6,C   5)                  1.4660         0.472645   
      7. B(C   7,C   2)                  1.4739         0.459026   
      8. B(C   7,C   6)                  1.3372         0.758536   
      9. B(H   8,C   0)                  1.0906         0.359347   
     10. B(H   9,C   3)                  1.0855         0.366136   
     11. B(H  10,C   1)                  1.0910         0.358731   
     12. B(H  11,C   2)                  1.0868         0.364356   
     13. B(H  12,C   4)                  1.0860         0.365371   
     14. B(H  13,C   5)                  1.0917         0.357845   
     15. B(H  14,C   6)                  1.0902         0.359785   
     16. B(H  15,C   7)                  1.0853         0.366374   
     17. A(C   1,C   0,H   8)          111.8074         0.336914   
     18. A(C   3,C   0,H   8)          113.7499         0.365593   
     19. A(C   1,C   0,C   3)          134.4427         0.429054   
     20. A(C   0,C   1,H  10)          112.0505         0.336818   
     21. A(C   2,C   1,H  10)          113.9155         0.365451   
     22. A(C   0,C   1,C   2)          134.0340         0.429011   
     23. A(C   1,C   2,C   7)          135.5961         0.426980   
     24. A(C   7,C   2,H  11)          111.3629         0.336206   
     25. A(C   1,C   2,H  11)          113.0411         0.366426   
     26. A(C   0,C   3,H   9)          112.9912         0.366767   
     27. A(C   4,C   3,H   9)          111.0648         0.336320   
     28. A(C   0,C   3,C   4)          135.9440         0.426804   
     29. A(C   5,C   4,H  12)          113.1330         0.366763   
     30. A(C   3,C   4,H  12)          111.3052         0.336203   
     31. A(C   3,C   4,C   5)          135.5617         0.426959   
     32. A(C   4,C   5,C   6)          134.1158         0.429422   
     33. A(C   6,C   5,H  13)          112.0447         0.336834   
     34. A(C   4,C   5,H  13)          113.8395         0.365457   
     35. A(C   5,C   6,C   7)          134.3720         0.428665   
     36. A(C   7,C   6,H  14)          113.7590         0.365180   
     37. A(C   5,C   6,H  14)          111.8690         0.337138   
     38. A(C   6,C   7,H  15)          112.9123         0.366316   
     39. A(C   2,C   7,H  15)          111.1540         0.336516   
     40. A(C   2,C   7,C   6)          135.9337         0.426424   
     41. D(C   2,C   1,C   0,C   3)      0.0000         0.015127   
     42. D(H  10,C   1,C   0,C   3)    180.0000         0.015127   
     43. D(C   2,C   1,C   0,H   8)   -180.0000         0.015127   
     44. D(H  10,C   1,C   0,H   8)     -0.0000         0.015127   
     45. D(H  11,C   2,C   1,C   0)    180.0000         0.041786   
     46. D(H  11,C   2,C   1,H  10)      0.0000         0.041786   
     47. D(C   7,C   2,C   1,C   0)     -0.0000         0.041786   
     48. D(C   7,C   2,C   1,H  10)   -180.0000         0.041786   
     49. D(H   9,C   3,C   0,H   8)      0.0000         0.041837   
     50. D(H   9,C   3,C   0,C   1)   -180.0000         0.041837   
     51. D(C   4,C   3,C   0,H   8)   -180.0000         0.041837   
     52. D(C   4,C   3,C   0,C   1)      0.0000         0.041837   
     53. D(C   5,C   4,C   3,H   9)    180.0000         0.014274   
     54. D(C   5,C   4,C   3,C   0)     -0.0000         0.014274   
     55. D(H  12,C   4,C   3,C   0)    180.0000         0.014274   
     56. D(H  12,C   4,C   3,H   9)     -0.0000         0.014274   
     57. D(H  13,C   5,C   4,H  12)     -0.0000         0.042024   
     58. D(H  13,C   5,C   4,C   3)    180.0000         0.042024   
     59. D(C   6,C   5,C   4,H  12)   -180.0000         0.042024   
     60. D(C   6,C   5,C   4,C   3)      0.0000         0.042024   
     61. D(H  14,C   6,C   5,H  13)      0.0000         0.015211   
     62. D(H  14,C   6,C   5,C   4)    180.0000         0.015211   
     63. D(C   7,C   6,C   5,H  13)   -180.0000         0.015211   
     64. D(C   7,C   6,C   5,C   4)     -0.0000         0.015211   
     65. D(C   2,C   7,C   6,H  14)   -180.0000         0.041124   
     66. D(C   2,C   7,C   6,C   5)      0.0000         0.041124   
     67. D(H  15,C   7,C   2,H  11)      0.0000         0.014354   
     68. D(H  15,C   7,C   2,C   1)   -180.0000         0.014354   
     69. D(C   6,C   7,C   2,H  11)    180.0000         0.014354   
     70. D(H  15,C   7,C   6,C   5)   -180.0000         0.041124   
     71. D(C   6,C   7,C   2,C   1)     -0.0000         0.014354   
     72. D(H  15,C   7,C   6,H  14)     -0.0000         0.041124   
    -----------------------------------------------------------------

Number of atoms                         .... 16
Number of degrees of freedom            .... 72

         *************************************************************
         *                GEOMETRY OPTIMIZATION CYCLE   1            *
         *************************************************************
---------------------------------
CARTESIAN COORDINATES (ANGSTROEM)
---------------------------------
  C     -2.256270    3.225304    0.647129
  C     -2.326221    1.839165    0.172789
  C     -1.415227    0.892079   -0.063721
  C     -1.263150    4.039266    1.012637
  C      0.204817    3.941162    1.113616
  C      1.115034    2.994316    0.877116
  C      1.046755    1.608769    0.403128
  C      0.051951    0.793620    0.037065
  H     -3.244547    3.681997    0.711026
  H     -1.610008    5.022983    1.313047
  H     -3.352066    1.525792   -0.026714
  H     -1.851073   -0.038454   -0.417676
  H      0.639073    4.871619    1.467400
  H      2.141145    3.308888    1.077047
  H      2.034752    1.152258    0.339267
  H      0.400047   -0.189555   -0.263048

----------------------------
CARTESIAN COORDINATES (A.U.)
----------------------------
  NO LB      ZA    FRAG     MASS         X           Y           Z
   0 C     6.0000    0    12.011   -4.263733    6.094941    1.222896
   1 C     6.0000    0    12.011   -4.395921    3.475519    0.326524
   2 C     6.0000    0    12.011   -2.674391    1.685785   -0.120416
   3 C     6.0000    0    12.011   -2.387008    7.633106    1.913606
   4 C     6.0000    0    12.011    0.387048    7.447717    2.104429
   5 C     6.0000    0    12.011    2.107110    5.658437    1.657508
   6 C     6.0000    0    12.011    1.978079    3.040133    0.761802
   7 C     6.0000    0    12.011    0.098172    1.499724    0.070043
   8 H     1.0000    0     1.008   -6.131306    6.957965    1.343644
   9 H     1.0000    0     1.008   -3.042474    9.492062    2.481299
  10 H     1.0000    0     1.008   -6.334486    2.883328   -0.050482
  11 H     1.0000    0     1.008   -3.498021   -0.072667   -0.789294
  12 H     1.0000    0     1.008    1.207673    9.206026    2.772984
  13 H     1.0000    0     1.008    4.046177    6.252892    2.035325
  14 H     1.0000    0     1.008    3.845124    2.177452    0.641121
  15 H     1.0000    0     1.008    0.755979   -0.358207   -0.497089

--------------------------------
INTERNAL COORDINATES (ANGSTROEM)
--------------------------------
 C      0   0   0     0.000000000000     0.00000000     0.00000000
 C      1   0   0     1.466721466753     0.00000000     0.00000000
 C      2   1   0     1.335222722307   134.03398780     0.00000000
 C      1   2   3     1.335072271556   134.44270095     0.00000000
 C      4   1   2     1.474702570194   135.94399479     0.00000000
 C      5   4   1     1.334520802423   135.56171277     0.00000000
 C      6   5   4     1.465969058824   134.11580489     0.00000000
 C      7   6   5     1.337200821583   134.37200752     0.00000000
 H      1   2   3     1.090569597749   111.80739417   180.00000000
 H      4   1   2     1.085474723915   112.99124800   180.00000000
 H      2   1   3     1.091036941090   112.05048329   180.00000000
 H      3   2   1     1.086801598314   113.04106705   180.00000000
 H      5   4   1     1.086044126076   111.30524615   179.99999915
 H      6   5   4     1.091710099325   113.83952031   180.00000000
 H      7   6   5     1.090238466442   111.86897343   180.00000000
 H      8   7   6     1.085298001201   112.91229910   180.00000000

---------------------------
INTERNAL COORDINATES (A.U.)
---------------------------
 C      0   0   0     0.000000000000     0.00000000     0.00000000
 C      1   0   0     2.771701886907     0.00000000     0.00000000
 C      2   1   0     2.523205272949   134.03398780     0.00000000
 C      1   2   3     2.522920962234   134.44270095     0.00000000
 C      4   1   2     2.786783986656   135.94399479     0.00000000
 C      5   4   1     2.521878836601   135.56171277     0.00000000
 C      6   5   4     2.770280041979   134.11580489     0.00000000
 C      7   6   5     2.526943338846   134.37200752     0.00000000
 H      1   2   3     2.060877869725   111.80739417   180.00000000
 H      4   1   2     2.051249953493   112.99124800   180.00000000
 H      2   1   3     2.061761020652   112.05048329   180.00000000
 H      3   2   1     2.053757382721   113.04106705   180.00000000
 H      5   4   1     2.052325967638   111.30524615   179.99999915
 H      6   5   4     2.063033105360   113.83952031   180.00000000
 H      7   6   5     2.060252122242   111.86897343   180.00000000
 H      8   7   6     2.050915995961   112.91229910   180.00000000

---------------------
BASIS SET INFORMATION
---------------------
There are 2 groups of distinct atoms

 Group   1 Type C   : 7s4p1d contracted to 3s2p1d pattern {511/31/1}
 Group   2 Type H   : 4s1p contracted to 2s1p pattern {31/1}

Atom   0C    basis set group =>   1
Atom   1C    basis set group =>   1
Atom   2C    basis set group =>   1
Atom   3C    basis set group =>   1
Atom   4C    basis set group =>   1
Atom   5C    basis set group =>   1
Atom   6C    basis set group =>   1
Atom   7C    basis set group =>   1
Atom   8H    basis set group =>   2
Atom   9H    basis set group =>   2
Atom  10H    basis set group =>   2
Atom  11H    basis set group =>   2
Atom  12H    basis set group =>   2
Atom  13H    basis set group =>   2
Atom  14H    basis set group =>   2
Atom  15H    basis set group =>   2

-------------------------
BASIS SET IN INPUT FORMAT
-------------------------

 # Basis set for element : H 
 NewGTO H 
 S 3 
   1      13.0107010000      0.0334854848
   2       1.9622572000      0.2347218709
   3       0.4445379600      0.8137702853
 S 1 
   1       0.1219496200      1.0000000000
 P 1 
   1       0.8000000000      1.0000000000
  end;

 # Basis set for element : C 
 NewGTO C 
 S 5 
   1    1238.4016938000      0.0055173650
   2     186.2900499200      0.0410888285
   3      42.2511763460      0.1822538213
   4      11.6765579320      0.4682845944
   5       3.5930506482      0.4457581734
 S 1 
   1       0.4024514736      1.0000000000
 S 1 
   1       0.1309018267      1.0000000000
 P 3 
   1       9.4680970621      0.0568883320
   2       2.0103545142      0.3129405934
   3       0.5477100471      0.7606501651
 P 1 
   1       0.1526861379      1.0000000000
 D 1 
   1       0.8000000000      1.0000000000
  end;

---------------------------------
AUXILIARY/J BASIS SET INFORMATION
---------------------------------
There are 2 groups of distinct atoms

 Group   1 Type C   : 12s5p4d2f1g contracted to 6s4p3d1f1g pattern {711111/2111/211/2/1}
 Group   2 Type H   : 5s2p1d contracted to 3s1p1d pattern {311/2/1}

Atom   0C    basis set group =>   1
Atom   1C    basis set group =>   1
Atom   2C    basis set group =>   1
Atom   3C    basis set group =>   1
Atom   4C    basis set group =>   1
Atom   5C    basis set group =>   1
Atom   6C    basis set group =>   1
Atom   7C    basis set group =>   1
Atom   8H    basis set group =>   2
Atom   9H    basis set group =>   2
Atom  10H    basis set group =>   2
Atom  11H    basis set group =>   2
Atom  12H    basis set group =>   2
Atom  13H    basis set group =>   2
Atom  14H    basis set group =>   2
Atom  15H    basis set group =>   2

-------------------------------------
AUXILIARY/J BASIS SET IN INPUT FORMAT
-------------------------------------

 # Auxiliary/J basis set for element : H 
 NewAuxJGTO H 
 S 3 
   1      15.6752927000      0.1007184237
   2       3.6063578000      0.3404257499
   3       1.2080016000      0.6491996172
 S 1 
   1       0.4726794000      1.0000000000
 S 1 
   1       0.2018100000      1.0000000000
 P 2 
   1       2.0281365000      0.5596620919
   2       0.5358730000      0.5596620919
 D 1 
   1       2.2165124000      1.0000000000
  end;

 # Auxiliary/J basis set for element : C 
 NewAuxJGTO C 
 S 7 
   1    1861.0916331000      0.0134602335
   2     642.9939764000      0.0299160374
   3     235.1105725000      0.1008649584
   4      90.7028894000      0.2370970548
   5      36.7794552000      0.3924037254
   6      15.6046273000      0.3195862154
   7       6.8907294000      0.0530104441
 S 1 
   1       3.1478850000     -1.0000000000
 S 1 
   1       1.4777287000      1.0000000000
 S 1 
   1       0.7076466000      1.0000000000
 S 1 
   1       0.3430122000      1.0000000000
 S 1 
   1       0.1669453000      1.0000000000
 P 2 
   1      13.5472892000     -0.6769313712
   2       5.4669419000     -0.3779500978
 P 1 
   1       2.1751721000      1.0000000000
 P 1 
   1       0.8582194000      1.0000000000
 P 1 
   1       0.3376720000      1.0000000000
 D 2 
   1       5.9287253000     -0.3533329857
   2       1.9809209000     -0.7456525731
 D 1 
   1       0.8055417000     -1.0000000000
 D 1 
   1       0.3531244000     -1.0000000000
 F 2 
   1       1.6755626000      0.6311076882
   2       0.5997536000      0.4968166032
 G 1 
   1       1.0024600000     -1.0000000000
  end;



           ************************************************************
           *        Program running with 12 parallel MPI-processes    *
           *              working on a common directory               *
           ************************************************************
------------------------------------------------------------------------------
                           ORCA GTO INTEGRAL CALCULATION
                           -- RI-GTO INTEGRALS CHOSEN --
------------------------------------------------------------------------------

                         BASIS SET STATISTICS AND STARTUP INFO

Gaussian basis set:
 # of primitive gaussian shells          ...  136
 # of primitive gaussian functions       ...  248
 # of contracted shells                  ...   72
 # of contracted basis functions         ...  152
 Highest angular momentum                ...    2
 Maximum contraction depth               ...    5
Auxiliary gaussian basis set:
 # of primitive gaussian shells          ...  256
 # of primitive gaussian functions       ...  688
 # of contracted shells                  ...  160
 # of contracted aux-basis functions     ...  480
 Highest angular momentum                ...    4
 Maximum contraction depth               ...    7
Ratio of auxiliary to basis functions    ...  3.16
Integral package used                  ... LIBINT
 One Electron integrals                  ... done
 Ordering auxiliary basis shells         ... done
 Integral threshhold             Thresh  ...  2.500e-11
 Primitive cut-off               TCut    ...  2.500e-12
 Pre-screening matrix                    ... done
 Shell pair data                         ... 
 Ordering of the shell pairs             ... done (   0.001 sec) 2514 of 2628 pairs
 Determination of significant pairs      ... done (   0.000 sec)
 Creation of shell pair data             ... done (   0.001 sec)
 Storage of shell pair data              ... done (   0.014 sec)
 Shell pair data done in (   0.017 sec)
 Computing two index integrals           ... done
 Cholesky decomposition of the V-matrix  ... done


Timings:
 Total evaluation time                   ...   0.240 sec (  0.004 min)
 One electron matrix time                ...   0.025 sec (  0.000 min) = 10.6%
 Schwartz matrix evaluation time         ...   0.147 sec (  0.002 min) = 61.1%
 Two index repulsion integral time       ...   0.011 sec (  0.000 min) =  4.5%
 Cholesky decomposition of V             ...   0.021 sec (  0.000 min) =  8.5%
 Three index repulsion integral time     ...   0.000 sec (  0.000 min) =  0.0%



           ************************************************************
           *        Program running with 12 parallel MPI-processes    *
           *              working on a common directory               *
           ************************************************************
-------------------------------------------------------------------------------
                                 ORCA SCF
-------------------------------------------------------------------------------

------------
SCF SETTINGS
------------
Hamiltonian:
 Density Functional     Method          .... DFT(GTOs)
 Exchange Functional    Exchange        .... PBE
   PBE kappa parameter   XKappa         ....  1.245000
   PBE mue parameter    XMuePBE         ....  0.219520
 Correlation Functional Correlation     .... PBE
   PBE beta parameter  CBetaPBE         ....  0.066725
 LDA part of GGA corr.  LDAOpt          .... PW91-LDA
 Gradients option       PostSCFGGA      .... off
   Density functional embedding theory  .... OFF
   NL short-range parameter             ....  3.700000
 RI-approximation to the Coulomb term is turned on
   Number of auxiliary basis functions  .... 480


General Settings:
 Integral files         IntName         .... C8H8-2
 Hartree-Fock type      HFTyp           .... RHF
 Total Charge           Charge          ....   -2
 Multiplicity           Mult            ....    1
 Number of Electrons    NEL             ....   58
 Basis Dimension        Dim             ....  152
 Nuclear Repulsion      ENuc            ....    316.8967396500 Eh

Convergence Acceleration:
 DIIS                   CNVDIIS         .... on
   Start iteration      DIISMaxIt       ....    12
   Startup error        DIISStart       ....  0.200000
   # of expansion vecs  DIISMaxEq       ....     5
   Bias factor          DIISBfac        ....   1.050
   Max. coefficient     DIISMaxC        ....  10.000
 Newton-Raphson         CNVNR           .... off
 SOSCF                  CNVSOSCF        .... on
   Start iteration      SOSCFMaxIt      ....   150
   Startup grad/error   SOSCFStart      ....  0.003300
 Level Shifting         CNVShift        .... on
   Level shift para.    LevelShift      ....    0.2500
   Turn off err/grad.   ShiftErr        ....    0.0010
 Zerner damping         CNVZerner       .... off
 Static damping         CNVDamp         .... on
   Fraction old density DampFac         ....    0.7000
   Max. Damping (<1)    DampMax         ....    0.9800
   Min. Damping (>=0)   DampMin         ....    0.0000
   Turn off err/grad.   DampErr         ....    0.1000
 Fernandez-Rico         CNVRico         .... off

SCF Procedure:
 Maximum # iterations   MaxIter         ....   125
 SCF integral mode      SCFMode         .... Direct
   Integral package                     .... LIBINT
 Reset frequency        DirectResetFreq ....    20
 Integral Threshold     Thresh          ....  2.500e-11 Eh
 Primitive CutOff       TCut            ....  2.500e-12 Eh

Convergence Tolerance:
 Convergence Check Mode ConvCheckMode   .... Total+1el-Energy
 Convergence forced     ConvForced      .... 0
 Energy Change          TolE            ....  1.000e-08 Eh
 1-El. energy change                    ....  1.000e-05 Eh
 Orbital Gradient       TolG            ....  1.000e-05
 Orbital Rotation angle TolX            ....  1.000e-05
 DIIS Error             TolErr          ....  5.000e-07


Diagonalization of the overlap matrix:
Smallest eigenvalue                        ... 3.096e-04
Time for diagonalization                   ...    0.006 sec
Threshold for overlap eigenvalues          ... 1.000e-08
Number of eigenvalues below threshold      ... 0
Time for construction of square roots      ...    0.010 sec
Total time needed                          ...    0.016 sec

-------------------
DFT GRID GENERATION
-------------------

General Integration Accuracy     IntAcc      ...  4.670
Radial Grid Type                 RadialGrid  ... Gauss-Chebyshev
Angular Grid (max. acc.)         AngularGrid ... Lebedev-302
Angular grid pruning method      GridPruning ... 3 (G Style)
Weight generation scheme         WeightScheme... Becke
Basis function cutoff            BFCut       ...    1.0000e-11
Integration weight cutoff        WCut        ...    1.0000e-14
Grids for H and He will be reduced by one unit

# of grid points (after initial pruning)     ...  76848 (   0.0 sec)
# of grid points (after weights+screening)   ...  70441 (   0.1 sec)
nearest neighbour list constructed           ...    0.0 sec
Grid point re-assignment to atoms done       ...    0.0 sec
Grid point division into batches done        ...    0.3 sec
Reduced shell lists constructed in    0.4 sec

Total number of grid points                  ...    70441
Total number of batches                      ...     1107
Average number of points per batch           ...       63
Average number of grid points per atom       ...     4403
Average number of shells per batch           ...    56.57 (78.58%)
Average number of basis functions per batch  ...   119.72 (78.77%)
Average number of large shells per batch     ...    45.20 (79.90%)
Average number of large basis fcns per batch ...    92.27 (77.07%)
Maximum spatial batch extension              ...   4.81,  7.78, 16.45 au
Average spatial batch extension              ...   0.12,  0.13,  0.17 au

Time for grid setup =    0.610 sec

------------------------------
INITIAL GUESS: MODEL POTENTIAL
------------------------------
Loading Hartree-Fock densities                     ... done
Calculating cut-offs                               ... done
Setting up the integral package                    ... done
Initializing the effective Hamiltonian             ... done
Starting the Coulomb interaction                   ... done (   0.0 sec)
Reading the grid                                   ... done
Mapping shells                                     ... done
Starting the XC term evaluation                    ... done (   0.1 sec)
  promolecular density results
     # of electrons  =     55.996016439
     EX              =    -43.525788790
     EC              =     -1.821340201
     EX+EC           =    -45.347128991
Transforming the Hamiltonian                       ... done (   0.0 sec)
Diagonalizing the Hamiltonian                      ... done (   0.0 sec)
Back transforming the eigenvectors                 ... done (   0.0 sec)
Now organizing SCF variables                       ... done
                      ------------------
                      INITIAL GUESS DONE (   1.1 sec)
                      ------------------
----------------------
INITIAL GUESS ORBITALS
----------------------
                      0         1         2         3         4         5   
                 -10.08230 -10.08223 -10.08214 -10.08195 -10.08170 -10.08166
                   2.00000   2.00000   2.00000   2.00000   2.00000   2.00000
                  --------  --------  --------  --------  --------  --------
  0C   1s         0.309038 -0.751594  0.069214  0.192586  0.129223  0.499948
  0C   2s         0.015041 -0.035848  0.000589  0.007830  0.008084  0.029862
  0C   3s         0.015307  0.017880  0.013718 -0.007780 -0.019389 -0.035937
  0C   1pz        0.000067  0.000180  0.000478  0.000124  0.000347  0.000761
  0C   1px       -0.000121  0.000890 -0.000159 -0.000291  0.000549  0.001762
  0C   1py        0.000232  0.000292  0.001460  0.000446  0.000881  0.001777
  0C   2pz        0.005283  0.003945  0.002745  0.001910 -0.000594  0.005217
  0C   2px        0.006961  0.010129  0.007094  0.002427 -0.003981 -0.001002
  0C   2py        0.013766  0.008945  0.006212  0.005000 -0.000681  0.015725
  0C   1dz2      -0.000391  0.001342  0.000353 -0.000221 -0.000607 -0.001811
  0C   1dxz       0.000061 -0.000199 -0.000049  0.000071  0.000271  0.000741
  0C   1dyz       0.000048 -0.000933 -0.000634  0.000064  0.000522  0.001295
  0C   1dx2y2     0.000516  0.000131  0.000996  0.000232 -0.000158  0.000123
  0C   1dxy      -0.000148  0.000095 -0.000190  0.000038  0.000507  0.001177
  1C   1s         0.245437  0.161364  0.781407  0.121021 -0.018521 -0.136035
  1C   2s         0.011662  0.010148  0.036765  0.003821 -0.002226 -0.008711
  1C   3s         0.010420 -0.020247 -0.009526 -0.011188  0.008651  0.028481
  1C   1pz       -0.000139  0.000472 -0.000084 -0.000203 -0.000072 -0.000171
  1C   1px       -0.000182  0.000004 -0.000817 -0.000445 -0.000218 -0.000031
  1C   1py       -0.000362  0.001397 -0.000028 -0.000480 -0.000155 -0.000499
  1C   2pz       -0.000458  0.004508 -0.001027  0.003275  0.000527  0.003518
  1C   2px        0.000385 -0.011482 -0.003081 -0.003991  0.002050 -0.000543
  1C   2py       -0.001460  0.016460 -0.002209  0.010780  0.001005  0.010567
  1C   1dz2      -0.000260 -0.000740 -0.001252 -0.000047  0.000265  0.000848
  1C   1dxz       0.000097  0.000065  0.000229  0.000021  0.000020  0.000044
  1C   1dyz       0.000002  0.000883  0.000717 -0.000023 -0.000272 -0.000813
  1C   1dx2y2     0.000464 -0.001019  0.000292  0.000143  0.000292  0.000776
  1C   1dxy       0.000037  0.000040 -0.000058  0.000004  0.000128  0.000391
  2C   1s         0.157804  0.142409  0.458163  0.095442  0.078048  0.129605
  2C   2s         0.007502  0.007257  0.018921  0.002165  0.004213  0.008195
  2C   3s         0.001578  0.018333  0.000482  0.004875 -0.007971 -0.007861
  2C   1pz       -0.000088 -0.000003 -0.000420 -0.000237  0.000011  0.000099
  2C   1px        0.000363  0.000395  0.001112 -0.000791 -0.000093 -0.000597
  2C   1py       -0.000360 -0.000115 -0.001546 -0.000487  0.000058  0.000454
  2C   2pz       -0.000978  0.000793 -0.000910  0.001826 -0.000619 -0.000703
  2C   2px        0.012037 -0.012488  0.012091 -0.012798 -0.000601 -0.002072
  2C   2py       -0.006155  0.005729 -0.005966  0.008872 -0.001669 -0.001521
  2C   1dz2      -0.000264  0.000005 -0.000356  0.000273 -0.000273 -0.000582
  2C   1dxz       0.000115  0.000054  0.000260 -0.000055  0.000011 -0.000011
  2C   1dyz       0.000124  0.000148  0.000242  0.000077  0.000105  0.000277
  2C   1dx2y2     0.000183 -0.000329  0.000150 -0.000645  0.000158  0.000179
  2C   1dxy       0.000154  0.000237  0.000534  0.000133 -0.000149 -0.000380
  3C   1s         0.165869 -0.496577  0.015459  0.057834 -0.229543 -0.782484
  3C   2s         0.008224 -0.020905 -0.000855  0.000622 -0.014889 -0.041642
  3C   3s        -0.010097 -0.011753 -0.009710 -0.007437  0.037377  0.029036
  3C   1pz        0.000203 -0.000531  0.000098  0.000221 -0.000007  0.000533
  3C   1px        0.001126 -0.000864 -0.000447  0.000207 -0.000917  0.002737
  3C   1py        0.000296 -0.001338  0.000411  0.000600  0.000227  0.000838
  3C   2pz        0.005758 -0.000028  0.001267 -0.000309 -0.001274 -0.000581
  3C   2px        0.024393 -0.001289  0.008594 -0.000004  0.004791  0.010348
  3C   2py        0.010456  0.000265  0.001428 -0.000915 -0.005069 -0.004521
  3C   1dz2      -0.000516  0.000300  0.000029  0.000071  0.001443  0.001929
  3C   1dxz       0.000043  0.000162 -0.000000 -0.000047 -0.000491 -0.000697
  3C   1dyz       0.000050 -0.000289 -0.000019 -0.000055 -0.000439 -0.001367
  3C   1dx2y2     0.000683  0.000397  0.000002 -0.000008 -0.001481 -0.000087
  3C   1dxy      -0.000304  0.000536  0.000014 -0.000097 -0.000326 -0.000994
  4C   1s        -0.458732 -0.185322  0.163679 -0.030555  0.806741 -0.219198
  4C   2s        -0.020204 -0.006756  0.005680 -0.003402  0.044107 -0.009462
  4C   3s        -0.002695 -0.013272 -0.000752 -0.013024 -0.045270 -0.016086
  4C   1pz       -0.000327 -0.000240  0.000222  0.000176 -0.000202 -0.000010
  4C   1px        0.001281 -0.000469 -0.000304  0.000274  0.001773 -0.002168
  4C   1py       -0.001316 -0.000583  0.000740  0.000447 -0.001077  0.000556
  4C   2pz       -0.001566  0.001816 -0.000450  0.000245  0.002814  0.000564
  4C   2px        0.016817 -0.014475  0.003503 -0.010684  0.011259 -0.000310
  4C   2py       -0.009188  0.009296 -0.002280  0.003617  0.005288  0.001755
  4C   1dz2       0.000508 -0.000217  0.000029  0.000085 -0.002515 -0.000175
  4C   1dxz      -0.000286  0.000001  0.000061 -0.000005  0.000019  0.000118
  4C   1dyz      -0.000283 -0.000159  0.000053 -0.000104  0.001307 -0.000348
  4C   1dx2y2    -0.000299  0.000718 -0.000125  0.000126  0.000551  0.001218
  4C   1dxy      -0.000496 -0.000277  0.000221  0.000001 -0.001391 -0.000034
  5C   1s        -0.744170 -0.238534  0.301655  0.091479 -0.490370  0.156622
  5C   2s        -0.035822 -0.010737  0.013818  0.001602 -0.029515  0.008942
  5C   3s         0.002073  0.018367 -0.015371  0.013044  0.039037 -0.002931
  5C   1pz       -0.000015  0.000010 -0.000019  0.000570 -0.000636  0.000055
  5C   1px       -0.000660 -0.000455  0.000413  0.000249  0.001685 -0.000443
  5C   1py        0.000133  0.000153 -0.000169  0.001621 -0.002339  0.000283
  5C   2pz       -0.000986  0.004705 -0.000028  0.003198 -0.004150  0.002687
  5C   2px       -0.003114 -0.008556  0.002456 -0.008195 -0.004754 -0.001814
  5C   2py       -0.002078  0.016253 -0.000746  0.011691 -0.011006  0.008451
  5C   1dz2       0.001218  0.000461 -0.000564  0.000318  0.001936 -0.000460
  5C   1dxz      -0.000240 -0.000067  0.000065 -0.000003  0.000153 -0.000000
  5C   1dyz      -0.000704 -0.000412  0.000424 -0.000640 -0.001211  0.000219
  5C   1dx2y2    -0.000284  0.000273 -0.000149  0.001102  0.000220  0.000146
  5C   1dxy       0.000008 -0.000015 -0.000073 -0.000099  0.001408 -0.000275
  6C   1s        -0.063652  0.126503 -0.159073  0.815385  0.081489 -0.060761
  6C   2s        -0.001351  0.007484 -0.009731  0.038054  0.005693 -0.002745
  6C   3s        -0.023621 -0.004697 -0.004494 -0.013218 -0.024782  0.005113
  6C   1pz        0.000408  0.000185 -0.000246  0.000006  0.000289 -0.000104
  6C   1px        0.000000  0.000039  0.000080  0.000921  0.000200 -0.000268
  6C   1py        0.001208  0.000538 -0.000750 -0.000232  0.000802 -0.000237
  6C   2pz        0.005356  0.004124  0.002317  0.001425 -0.002625  0.001833
  6C   2px        0.010551  0.007874  0.000962  0.005819 -0.000486  0.002995
  6C   2py        0.013010  0.010085  0.006603  0.002646 -0.007645  0.004620
  6C   1dz2      -0.000324 -0.000402  0.000479 -0.001295 -0.000635  0.000182
  6C   1dxz       0.000054  0.000040 -0.000071  0.000205  0.000174 -0.000040
  6C   1dyz       0.000633  0.000401 -0.000409  0.000750  0.000743 -0.000171
  6C   1dx2y2    -0.001033 -0.000356  0.000236  0.000254 -0.000742  0.000116
  6C   1dxy       0.000227 -0.000010 -0.000010 -0.000141  0.000345 -0.000048
  7C   1s        -0.017088  0.108286 -0.091157  0.488866 -0.028446 -0.037921
  7C   2s        -0.000680  0.005747 -0.005883  0.019839 -0.002862 -0.001669
  7C   3s         0.013596  0.013805  0.000704  0.004974  0.006921  0.007643
  7C   1pz        0.000057 -0.000027  0.000061 -0.000608 -0.000113  0.000093
  7C   1px        0.000101 -0.000181  0.001131 -0.000988 -0.000260  0.000448
  7C   1py        0.000142 -0.000031 -0.000126 -0.001535 -0.000265  0.000155
  7C   2pz        0.004275  0.000692  0.003726 -0.001229  0.000493  0.000562
  7C   2px        0.020171  0.003355  0.013796 -0.007471 -0.000788  0.000549
  7C   2py        0.007207  0.001141  0.007302 -0.001618  0.001674  0.001515
  7C   1dz2       0.000246 -0.000064  0.000400 -0.000307  0.000339  0.000137
  7C   1dxz      -0.000063 -0.000055 -0.000035 -0.000167 -0.000145 -0.000025
  7C   1dyz       0.000015  0.000116 -0.000036  0.000227 -0.000127  0.000005
  7C   1dx2y2    -0.000457 -0.000236 -0.000538 -0.000239 -0.000312 -0.000238
  7C   1dxy       0.000051 -0.000138  0.000234 -0.000591 -0.000171  0.000055
  8H   1s        -0.002001  0.004085  0.000044 -0.000782 -0.000380 -0.003130
  8H   2s         0.000180 -0.003509  0.000256  0.001369  0.001671  0.003242
  8H   1pz       -0.000088 -0.000358 -0.000215 -0.000028  0.000026 -0.000160
  8H   1px       -0.000842  0.001412 -0.000264 -0.000541 -0.000352 -0.001991
  8H   1py       -0.000032 -0.001441 -0.000565  0.000064  0.000171  0.000064
  9H   1s        -0.001226  0.002541  0.000726  0.000167  0.001011  0.004713
  9H   2s         0.000626 -0.001530  0.001465  0.001049 -0.002615 -0.004066
  9H   1pz       -0.000094 -0.000201 -0.000053 -0.000001 -0.000198 -0.000765
  9H   1px       -0.001245  0.000688 -0.000128 -0.000151  0.000453  0.000214
  9H   1py        0.000057 -0.000781 -0.000122  0.000038 -0.000710 -0.002325
 10H   1s        -0.001457 -0.001198 -0.004284 -0.000170  0.000131  0.000122
 10H   2s         0.000352  0.001003  0.003243  0.001490 -0.000292 -0.002431
 10H   1pz       -0.000066 -0.000380 -0.000432 -0.000108  0.000007  0.000041
 10H   1px       -0.000516 -0.000188 -0.001777 -0.000145  0.000100  0.000543
 10H   1py       -0.000057 -0.001074 -0.000799 -0.000282 -0.000006 -0.000025
 11H   1s        -0.000838 -0.001334 -0.002299  0.000264 -0.000404 -0.000697
 11H   2s         0.000578 -0.000941  0.001838  0.001086  0.000565  0.000864
 11H   1pz       -0.000068 -0.000124 -0.000256 -0.000054 -0.000070 -0.000128
 11H   1px       -0.000581  0.000159 -0.001204  0.000543 -0.000092 -0.000159
 11H   1py       -0.000044 -0.000410 -0.000432 -0.000305 -0.000183 -0.000337
 12H   1s         0.002603  0.000565 -0.000662  0.001031 -0.004655  0.001626
 12H   2s        -0.001420 -0.000654  0.000840  0.001463  0.004951  0.000036
 12H   1pz       -0.000255 -0.000120  0.000105 -0.000079  0.000847 -0.000204
 12H   1px       -0.001361  0.000436  0.000210  0.000203  0.000653  0.000179
 12H   1py       -0.000388 -0.000474  0.000254 -0.000290  0.002331 -0.000654
 13H   1s         0.004277  0.000979 -0.001483 -0.000085  0.002953 -0.001324
 13H   2s        -0.002557 -0.001994  0.001918  0.000366 -0.003436  0.000354
 13H   1pz       -0.000413 -0.000285  0.000219 -0.000214 -0.000135  0.000004
 13H   1px       -0.001656 -0.000341  0.000710  0.000351 -0.001874  0.000738
 13H   1py       -0.000775 -0.000753  0.000456 -0.000728  0.000106 -0.000187
 14H   1s         0.000251 -0.000919  0.001412 -0.004379  0.000154  0.000028
 14H   2s         0.000558  0.000372  0.000243  0.003655  0.001948 -0.000904
 14H   1pz       -0.000269 -0.000193  0.000056 -0.000257  0.000001 -0.000010
 14H   1px       -0.000330  0.000080 -0.000408  0.001678  0.000297 -0.000205
 14H   1py       -0.000708 -0.000593  0.000277 -0.001215 -0.000078  0.000027
 15H   1s        -0.000230 -0.000881  0.001307 -0.002283  0.000070  0.000185
 15H   2s        -0.001049 -0.000503  0.000636  0.002037 -0.000428 -0.000373
 15H   1pz       -0.000122 -0.000075 -0.000054 -0.000143  0.000013  0.000017
 15H   1px       -0.000661 -0.000035 -0.000851  0.000934 -0.000087 -0.000104
 15H   1py       -0.000183 -0.000212  0.000071 -0.000675  0.000063  0.000078
                      6         7         8         9        10        11   
                 -10.08157 -10.08140  -0.88788  -0.84973  -0.84739  -0.78859
                   2.00000   2.00000   2.00000   2.00000   2.00000   2.00000
                  --------  --------  --------  --------  --------  --------
  0C   1s         0.081118 -0.021850  0.108913  0.123880 -0.085576 -0.097372
  0C   2s         0.003794 -0.000691 -0.220167 -0.252728  0.175392  0.203122
  0C   3s         0.013852  0.001581 -0.037748 -0.039937  0.016137  0.020820
  0C   1pz        0.000546 -0.000029 -0.005416  0.001488  0.027884  0.037613
  0C   1px        0.000730  0.000116 -0.043232 -0.023986  0.053353  0.049384
  0C   1py        0.001419 -0.000118 -0.004344  0.010900  0.068159  0.098051
  0C   2pz       -0.001965 -0.000935  0.000246  0.004682  0.010366  0.010277
  0C   2px       -0.002328 -0.002264 -0.007727 -0.004869  0.007859  0.010240
  0C   2py       -0.005191 -0.002156  0.002815  0.015182  0.028581  0.027673
  0C   1dz2       0.000095  0.000050  0.005964  0.005966 -0.004083 -0.003784
  0C   1dxz       0.000043 -0.000027 -0.002650 -0.002212  0.003413  0.003154
  0C   1dyz      -0.000363 -0.000031 -0.005431 -0.006125  0.002946  0.003008
  0C   1dx2y2     0.000789 -0.000021  0.002298  0.004369  0.001652  0.000838
  0C   1dxy      -0.000009 -0.000047 -0.005115 -0.004324  0.007395  0.006990
  1C   1s         0.494606  0.031311  0.108409  0.138727  0.057805  0.098351
  1C   2s         0.029251  0.001545 -0.219172 -0.283184 -0.118691 -0.205184
  1C   3s        -0.031349  0.006851 -0.037989 -0.042285 -0.007539 -0.020807
  1C   1pz       -0.000734  0.000101 -0.000561 -0.000449  0.021525  0.031294
  1C   1px        0.001755  0.000057 -0.042698 -0.034686 -0.040771 -0.039984
  1C   1py       -0.002648  0.000282  0.009893  0.008057  0.074793  0.103517
  1C   2pz       -0.003985 -0.001816 -0.001340 -0.003245  0.010389  0.008974
  1C   2px       -0.003879  0.002933 -0.008069 -0.007150 -0.003772 -0.007360
  1C   2py       -0.010755 -0.006173 -0.001785 -0.007676  0.031794  0.028575
  1C   1dz2      -0.001794  0.000021  0.006348  0.007128  0.003303  0.004404
  1C   1dxz      -0.000143  0.000036  0.000827  0.000957  0.001739  0.001813
  1C   1dyz       0.001001 -0.000083 -0.004961 -0.006095 -0.001018 -0.002418
  1C   1dx2y2     0.000095  0.000203  0.003434  0.005174 -0.000991  0.000878
  1C   1dxy      -0.001378  0.000069  0.004929  0.005308  0.007017  0.007373
  2C   1s        -0.829539 -0.027635  0.107184  0.085584  0.124320  0.098221
  2C   2s        -0.044514  0.001053 -0.216405 -0.175047 -0.253799 -0.204724
  2C   3s         0.038376 -0.026822 -0.035815 -0.016545 -0.039162 -0.022622
  2C   1pz       -0.000182  0.000060 -0.012696 -0.010653 -0.007584 -0.006337
  2C   1px        0.002103  0.001718  0.009123  0.073275 -0.007844  0.105907
  2C   1py       -0.001108 -0.000288 -0.040078 -0.051384 -0.020343 -0.047430
  2C   2pz        0.002464 -0.001209 -0.002805 -0.000340 -0.002734 -0.001125
  2C   2px        0.011104 -0.001832 -0.003400  0.027490 -0.016426  0.023575
  2C   2py        0.004295 -0.003085 -0.007390 -0.008446 -0.003655 -0.009711
  2C   1dz2       0.002329 -0.000782  0.006923  0.004759  0.007264  0.004537
  2C   1dxz       0.000003  0.000121  0.000525  0.001882  0.000002  0.001641
  2C   1dyz      -0.001325 -0.000031 -0.002551 -0.002418 -0.002041 -0.002004
  2C   1dx2y2    -0.000211  0.001346 -0.003624  0.000406 -0.005825 -0.000484
  2C   1dxy       0.001278 -0.000374  0.006000  0.007871  0.005173  0.007261
  3C   1s        -0.182573 -0.001064  0.108125  0.057455 -0.139009 -0.098229
  3C   2s        -0.008910  0.000433 -0.218246 -0.117663  0.283816  0.204714
  3C   3s         0.007269  0.001191 -0.036336 -0.008099  0.041361  0.022442
  3C   1pz        0.000021 -0.000015  0.014098  0.019057 -0.010762 -0.020764
  3C   1px        0.000225  0.000021  0.012717  0.078038 -0.011540 -0.109307
  3C   1py        0.000002 -0.000051  0.038318  0.035333 -0.028756 -0.031928
  3C   2pz        0.000065 -0.000406  0.002478  0.003908 -0.001476 -0.004261
  3C   2px        0.002421 -0.001201 -0.002791  0.031185  0.009310 -0.023848
  3C   2py       -0.000463 -0.000879  0.008097  0.003139 -0.006892 -0.006167
  3C   1dz2       0.000349 -0.000083  0.006564  0.002568 -0.007608 -0.003975
  3C   1dxz      -0.000105  0.000030 -0.003118 -0.002714  0.003516  0.003137
  3C   1dyz      -0.000257  0.000037 -0.003016 -0.002505  0.002987  0.002597
  3C   1dx2y2     0.000025  0.000057 -0.004947  0.000103  0.006910  0.002126
  3C   1dxy      -0.000130  0.000031 -0.004470 -0.006567  0.004619  0.006539
  4C   1s         0.011527 -0.066892  0.108154 -0.086636 -0.122671  0.098531
  4C   2s         0.001390 -0.002618 -0.218325  0.177173  0.250366 -0.205339
  4C   3s        -0.003545  0.001915 -0.036551  0.017076  0.038596 -0.022388
  4C   1pz       -0.000027 -0.000036  0.012777 -0.010765 -0.007415  0.006273
  4C   1px       -0.000229  0.000061 -0.009105  0.074107 -0.008105 -0.105231
  4C   1py       -0.000019 -0.000122  0.040313 -0.051943 -0.019772  0.047057
  4C   2pz       -0.000023  0.000075  0.002914 -0.000361 -0.002753  0.001046
  4C   2px        0.001728 -0.000398  0.003455  0.027699 -0.016381 -0.022962
  4C   2py       -0.000536  0.000330  0.007695 -0.008565 -0.003722  0.009310
  4C   1dz2      -0.000228  0.000021  0.006986 -0.004814 -0.007167  0.004547
  4C   1dxz       0.000018 -0.000007  0.000525 -0.001903  0.000009  0.001630
  4C   1dyz       0.000051 -0.000056 -0.002571  0.002444  0.002006 -0.001997
  4C   1dx2y2     0.000230  0.000099 -0.003670 -0.000403  0.005774 -0.000526
  4C   1dxy      -0.000120 -0.000033  0.006044 -0.007961 -0.005078  0.007243
  5C   1s        -0.027712  0.013031  0.108835 -0.139891 -0.056164  0.097235
  5C   2s        -0.001032 -0.000280 -0.220048  0.285579  0.115312 -0.202839
  5C   3s         0.001935  0.019367 -0.037658  0.042603  0.006713 -0.020726
  5C   1pz       -0.000090  0.000365  0.000365 -0.000269  0.021471 -0.031576
  5C   1px       -0.000074 -0.000361  0.043044 -0.035134 -0.040229  0.040239
  5C   1py       -0.000247  0.001180 -0.010566  0.008710  0.074486 -0.104421
  5C   2pz       -0.000320 -0.002561  0.001291 -0.003265  0.010388 -0.009141
  5C   2px        0.001316  0.001519  0.007743 -0.007004 -0.003629  0.007600
  5C   2py       -0.001303 -0.007998  0.001730 -0.007777  0.031754 -0.029133
  5C   1dz2       0.000064  0.000352  0.006371 -0.007186 -0.003217  0.004363
  5C   1dxz       0.000014  0.000013  0.000849 -0.000980 -0.001724  0.001821
  5C   1dyz      -0.000021 -0.000530 -0.004964  0.006136  0.000956 -0.002370
  5C   1dx2y2    -0.000032  0.000794  0.003426 -0.005208  0.001027  0.000827
  5C   1dxy       0.000080  0.000038  0.005007 -0.005399 -0.006937  0.007385
  6C   1s        -0.003126  0.505404  0.107596 -0.123383  0.086089 -0.098759
  6C   2s        -0.000465  0.030038 -0.217537  0.251755 -0.176499  0.206080
  6C   3s         0.008888 -0.034097 -0.037554  0.039937 -0.016208  0.021099
  6C   1pz        0.000174 -0.000939  0.004988  0.001902  0.027592 -0.037419
  6C   1px        0.000114 -0.001957  0.042352 -0.023477  0.053178 -0.049233
  6C   1py        0.000485 -0.002250  0.003315  0.011986  0.067342 -0.097517
  6C   2pz       -0.001869 -0.004380 -0.000260  0.004642  0.010316 -0.010270
  6C   2px       -0.003300  0.002084  0.007852 -0.005024  0.007858 -0.010267
  6C   2py       -0.004644 -0.013537 -0.002892  0.015105  0.028433 -0.027644
  6C   1dz2       0.000131 -0.001775  0.005898 -0.005948  0.004111 -0.003841
  6C   1dxz      -0.000082  0.000763 -0.002590  0.002178 -0.003405  0.003168
  6C   1dyz      -0.000163  0.001207 -0.005379  0.006112 -0.002974  0.003060
  6C   1dx2y2     0.000140  0.000306  0.002318 -0.004394 -0.001620  0.000808
  6C   1dxy      -0.000202  0.001217 -0.004980  0.004240 -0.007366  0.007008
  7C   1s         0.039552 -0.844314  0.106482 -0.056760  0.139602 -0.099160
  7C   2s         0.004586 -0.045219 -0.214964  0.116277 -0.285092  0.206714
  7C   3s        -0.028542  0.036852 -0.035729  0.007686 -0.041772  0.022827
  7C   1pz       -0.000140 -0.000489 -0.013805  0.018827 -0.010669  0.020775
  7C   1px       -0.001525 -0.002377 -0.011967  0.077042 -0.010653  0.109329
  7C   1py       -0.000002 -0.000805 -0.037655  0.034921 -0.028721  0.031954
  7C   2pz       -0.000996  0.000841 -0.002461  0.003876 -0.001536  0.004374
  7C   2px        0.002139 -0.011271  0.002838  0.030915  0.009320  0.024165
  7C   2py       -0.003530  0.005541 -0.008062  0.003118 -0.007072  0.006417
  7C   1dz2      -0.000927  0.002231  0.006471 -0.002537  0.007650 -0.004020
  7C   1dxz       0.000304 -0.000784 -0.003060  0.002680 -0.003516  0.003154
  7C   1dyz       0.000104 -0.001453 -0.002968  0.002483 -0.002996  0.002623
  7C   1dx2y2     0.001381 -0.000397 -0.004879 -0.000120 -0.006950  0.002142
  7C   1dxy       0.000075 -0.001017 -0.004363  0.006488 -0.004587  0.006562
  8H   1s        -0.001173 -0.000133 -0.046795 -0.062389  0.041921  0.060498
  8H   2s        -0.000978 -0.000560 -0.005410 -0.007484  0.001699  0.005131
  8H   1pz       -0.000020  0.000008  0.000216  0.000501  0.000326  0.000470
  8H   1px       -0.000268  0.000075 -0.007783 -0.008872  0.007236  0.009002
  8H   1py        0.000013  0.000002  0.002746  0.003885 -0.000992 -0.001044
  9H   1s         0.001174  0.000065 -0.048041 -0.028060  0.072534  0.062575
  9H   2s        -0.000921  0.000104 -0.006049 -0.000787  0.007996  0.005963
  9H   1pz       -0.000199  0.000006  0.002481  0.001739 -0.003240 -0.003005
  9H   1px        0.000015 -0.000007 -0.001869  0.000578  0.002917 -0.000179
  9H   1py       -0.000592  0.000019  0.007854  0.004995 -0.010388 -0.008854
 10H   1s        -0.003220 -0.000594 -0.046327 -0.069171 -0.027636 -0.060779
 10H   2s         0.002924 -0.000570 -0.005356 -0.007561 -0.000132 -0.005170
 10H   1pz       -0.000114  0.000042 -0.001270 -0.001805 -0.000278 -0.000762
 10H   1px       -0.001921 -0.000272 -0.007910 -0.010430 -0.005164 -0.009069
 10H   1py        0.000183  0.000197 -0.001622 -0.002525  0.000575  0.000198
 11H   1s         0.004922  0.000535 -0.047243 -0.042376 -0.064736 -0.062211
 11H   2s        -0.004642  0.001255 -0.005882 -0.002521 -0.007544 -0.005928
 11H   1pz        0.000868  0.000002 -0.002741 -0.002418 -0.003253 -0.003019
 11H   1px        0.000574 -0.000351 -0.002528 -0.000720 -0.003787 -0.000626
 11H   1py        0.002417  0.000100 -0.007434 -0.006966 -0.008611 -0.008773
 12H   1s         0.000032  0.000488 -0.047786  0.042933  0.064054 -0.062453
 12H   2s         0.000362 -0.000274 -0.005977  0.002549  0.007519 -0.005948
 12H   1pz        0.000025 -0.000084  0.002771 -0.002451 -0.003217  0.003031
 12H   1px        0.000060  0.000008  0.002560 -0.000727 -0.003754  0.000643
 12H   1py        0.000057 -0.000251  0.007515 -0.007063 -0.008513  0.008805
 13H   1s        -0.000084 -0.000768 -0.046430  0.069648  0.026834 -0.060059
 13H   2s        -0.000557 -0.001465 -0.005297  0.007553  0.000059 -0.005079
 13H   1pz       -0.000012  0.000007  0.001269 -0.001814 -0.000259  0.000741
 13H   1px       -0.000071 -0.000004  0.007942 -0.010512 -0.005038  0.008984
 13H   1py       -0.000017  0.000021  0.001610 -0.002530  0.000597 -0.000238
 14H   1s        -0.000391 -0.003237 -0.046255  0.062162 -0.042192  0.061406
 14H   2s        -0.000816  0.003121 -0.005407  0.007498 -0.001759  0.005243
 14H   1pz        0.000064  0.000161 -0.000224  0.000511  0.000316 -0.000458
 14H   1px        0.000140  0.001992  0.007671 -0.008817  0.007257 -0.009096
 14H   1py        0.000152 -0.000063 -0.002739  0.003901 -0.001028  0.001105
 15H   1s         0.000138  0.005035 -0.047332  0.027779 -0.072861  0.063293
 15H   2s         0.001596 -0.004638 -0.006021  0.000814 -0.008076  0.006072
 15H   1pz       -0.000014  0.000818 -0.002439  0.001717 -0.003246  0.003026
 15H   1px        0.000392 -0.000325  0.001858  0.000562  0.002962  0.000139
 15H   1py       -0.000146  0.002512 -0.007727  0.004935 -0.010417  0.008926
                     12        13        14        15        16        17   
                  -0.72924  -0.65257  -0.65128  -0.58501  -0.56900  -0.53712
                   2.00000   2.00000   2.00000   2.00000   2.00000   2.00000
                  --------  --------  --------  --------  --------  --------
  0C   1s        -0.091995 -0.064151  0.080399 -0.002079 -0.004172 -0.015160
  0C   2s         0.197230  0.143980 -0.178100  0.003102  0.012546  0.044345
  0C   3s         0.002998 -0.002477  0.002241  0.016204  0.010399  0.102361
  0C   1pz       -0.033925 -0.066273 -0.037293  0.010808 -0.081048 -0.016890
  0C   1px       -0.061646 -0.117693 -0.010473 -0.170185 -0.105834  0.202839
  0C   1py       -0.083810 -0.164464 -0.107634  0.078065 -0.211438 -0.104919
  0C   2pz       -0.015313 -0.022334 -0.003403  0.003760 -0.019927  0.013952
  0C   2px       -0.021626 -0.036063  0.008167 -0.052587 -0.023825  0.097821
  0C   2py       -0.039505 -0.056394 -0.012292  0.025368 -0.052581  0.014854
  0C   1dz2      -0.002643 -0.001214  0.001672  0.000285 -0.000031  0.000008
  0C   1dxz      -0.000094 -0.001065 -0.000591  0.000296 -0.000930 -0.000698
  0C   1dyz       0.003260  0.001003 -0.000929  0.001457 -0.000304  0.000156
  0C   1dx2y2    -0.004171 -0.001539 -0.000696 -0.003779  0.000030 -0.000973
  0C   1dxy      -0.000685 -0.003373 -0.000680  0.001891 -0.002729 -0.001796
  1C   1s        -0.091976 -0.042776 -0.093469 -0.002272 -0.003889 -0.015042
  1C   2s         0.197177  0.096606  0.207529  0.003504  0.011968  0.044907
  1C   3s         0.002536 -0.001911 -0.002821  0.016581  0.010873  0.095333
  1C   1pz        0.026234  0.058945 -0.023025 -0.034024  0.068500  0.047457
  1C   1px       -0.052765 -0.097600 -0.024628 -0.176061 -0.082825  0.238048
  1C   1py        0.091986  0.201012 -0.061541 -0.053145  0.225321  0.076160
  1C   2pz        0.012804  0.018736 -0.000143 -0.010851  0.017482  0.005671
  1C   2px       -0.018183 -0.027754 -0.016780 -0.054541 -0.018805  0.090335
  1C   2py        0.042848  0.063008  0.004116 -0.017391  0.056873 -0.007640
  1C   1dz2      -0.002552 -0.000481 -0.001902  0.000182  0.000177  0.000018
  1C   1dxz       0.000640  0.001316  0.000335 -0.000730  0.000933  0.000177
  1C   1dyz       0.003376  0.001088  0.001152  0.001336 -0.000064 -0.000228
  1C   1dx2y2    -0.003986 -0.000879  0.000277 -0.004172  0.000665  0.000681
  1C   1dxy       0.001455  0.003779 -0.000087 -0.001051  0.002650  0.000363
  2C   1s         0.092465  0.080801  0.063365 -0.000455 -0.004731 -0.004340
  2C   2s        -0.198206 -0.178683 -0.142379 -0.000461  0.014084  0.013860
  2C   3s        -0.003273 -0.000911  0.003138  0.016146  0.013235  0.010883
  2C   1pz        0.012933  0.007433  0.022703 -0.060342 -0.012983  0.052415
  2C   1px       -0.088207  0.113601 -0.177366 -0.073781  0.229385  0.028317
  2C   1py        0.062175 -0.008723  0.115241 -0.158776 -0.100528  0.147598
  2C   2pz        0.003506  0.003054  0.006692 -0.018741 -0.002677  0.005549
  2C   2px       -0.043202  0.010144 -0.061645 -0.025183  0.056593  0.115302
  2C   2py        0.022075  0.006304  0.036500 -0.048702 -0.023238 -0.014759
  2C   1dz2       0.003375  0.001715  0.001157 -0.000554  0.000205  0.000336
  2C   1dxz      -0.001119 -0.000118 -0.001437 -0.000087  0.000827 -0.003241
  2C   1dyz      -0.000494 -0.001044 -0.000600 -0.001177  0.000335  0.001694
  2C   1dx2y2    -0.004752 -0.000085 -0.001436  0.003663 -0.000450 -0.007360
  2C   1dxy      -0.000375  0.000576 -0.003236 -0.001399  0.002618 -0.007525
  3C   1s         0.092483  0.093220 -0.042540  0.000042 -0.004500 -0.001008
  3C   2s        -0.198225 -0.206673  0.096231 -0.001617  0.013459  0.004373
  3C   3s        -0.003499 -0.000167 -0.003131  0.015555  0.011745 -0.012680
  3C   1pz       -0.025418 -0.003543  0.048520  0.051432  0.045336 -0.037039
  3C   1px       -0.092874  0.065535  0.208955 -0.059755  0.236031 -0.001283
  3C   1py       -0.050161 -0.028227  0.087182  0.168517  0.070424 -0.109367
  3C   2pz       -0.009277 -0.005147  0.014368  0.015695  0.010579  0.017057
  3C   2px       -0.044175 -0.005560  0.064928 -0.020704  0.057869  0.120137
  3C   2py       -0.015529 -0.013745  0.024992  0.052097  0.015679  0.018017
  3C   1dz2       0.003449  0.001961 -0.000986 -0.000479  0.000020  0.001032
  3C   1dxz      -0.000407 -0.000214 -0.000984  0.000547 -0.000913  0.002561
  3C   1dyz      -0.000431 -0.001137  0.000061 -0.001063  0.000114  0.002451
  3C   1dx2y2    -0.004431 -0.000303  0.000511  0.003791 -0.001066 -0.005480
  3C   1dxy       0.001661  0.000477 -0.003496  0.000452 -0.002394  0.009265
  4C   1s         0.092614 -0.080373 -0.063382 -0.000208 -0.004482  0.003983
  4C   2s        -0.198495  0.177719  0.142435 -0.001080  0.013486 -0.013117
  4C   3s        -0.003100  0.000689 -0.003180  0.015995  0.012293 -0.008247
  4C   1pz       -0.012978  0.007411  0.022914  0.060608  0.013224  0.052943
  4C   1px        0.087633  0.113471 -0.178148  0.074590 -0.228418  0.028328
  4C   1py       -0.062153 -0.008753  0.116080  0.159345  0.100978  0.149161
  4C   2pz       -0.003502  0.003081  0.006736  0.018777  0.002818  0.005218
  4C   2px        0.043072  0.010797 -0.062171  0.025178 -0.057282  0.115394
  4C   2py       -0.022026  0.006209  0.036773  0.048809  0.023842 -0.015764
  4C   1dz2       0.003376 -0.001700 -0.001153 -0.000551  0.000210 -0.000338
  4C   1dxz      -0.001117  0.000114  0.001446 -0.000091  0.000820  0.003275
  4C   1dyz      -0.000500  0.001037  0.000606 -0.001177  0.000341 -0.001675
  4C   1dx2y2    -0.004737  0.000078  0.001423  0.003654 -0.000479  0.007344
  4C   1dxy      -0.000371 -0.000577  0.003267 -0.001406  0.002604  0.007627
  5C   1s        -0.091873  0.042741  0.093606 -0.002458 -0.004247  0.015472
  5C   2s         0.196981 -0.096560 -0.207807  0.003978  0.012811 -0.045812
  5C   3s         0.002586  0.002099  0.003138  0.016424  0.011462 -0.098381
  5C   1pz       -0.026424  0.058846 -0.023237  0.034053 -0.068458  0.047311
  5C   1px        0.052934 -0.097334 -0.024154  0.176558  0.083278  0.238305
  5C   1py       -0.092594  0.200649 -0.062298  0.053094 -0.225316  0.075658
  5C   2pz       -0.012877  0.018447 -0.000099  0.011000 -0.017080  0.005783
  5C   2px        0.018250 -0.027589 -0.016726  0.054680  0.018306  0.091619
  5C   2py       -0.043083  0.062106  0.004233  0.017794 -0.055546 -0.007654
  5C   1dz2      -0.002545  0.000477  0.001904  0.000184  0.000177 -0.000008
  5C   1dxz       0.000641 -0.001308 -0.000331 -0.000718  0.000947 -0.000187
  5C   1dyz       0.003375 -0.001081 -0.001153  0.001354 -0.000054  0.000250
  5C   1dx2y2    -0.003995  0.000875 -0.000275 -0.004210  0.000652 -0.000760
  5C   1dxy       0.001463 -0.003758  0.000101 -0.001008  0.002694 -0.000369
  6C   1s        -0.092233  0.063730 -0.080619 -0.002027 -0.003819  0.014656
  6C   2s         0.197748 -0.142985  0.178664  0.002958  0.011721 -0.043239
  6C   3s         0.003133  0.002159 -0.001680  0.016449  0.010530 -0.098888
  6C   1pz        0.034039 -0.066273 -0.037169 -0.010558  0.081190 -0.016711
  6C   1px        0.061727 -0.117242 -0.009987  0.169502  0.104415  0.203346
  6C   1py        0.084127 -0.164586 -0.107400 -0.077142  0.212243 -0.104525
  6C   2pz        0.015267 -0.022524 -0.003414 -0.003557  0.020297  0.014002
  6C   2px        0.021578 -0.036032  0.008184  0.052512  0.023990  0.096770
  6C   2py        0.039380 -0.056967 -0.012330 -0.024748  0.053631  0.015288
  6C   1dz2      -0.002654  0.001211 -0.001682  0.000283 -0.000027 -0.000019
  6C   1dxz      -0.000093  0.001061  0.000592  0.000317 -0.000909  0.000705
  6C   1dyz       0.003272 -0.001007  0.000928  0.001438 -0.000299 -0.000182
  6C   1dx2y2    -0.004183  0.001550  0.000713 -0.003711  0.000028  0.001062
  6C   1dxy      -0.000683  0.003356  0.000672  0.001936 -0.002662  0.001792
  7C   1s         0.092838 -0.093352  0.042221 -0.000041 -0.004580  0.001426
  7C   2s        -0.199002  0.207006 -0.095449 -0.001423  0.013639 -0.005307
  7C   3s        -0.003740  0.000771  0.003006  0.015880  0.012591  0.009702
  7C   1pz        0.025418 -0.003501  0.048234 -0.051208 -0.045005 -0.036706
  7C   1px        0.092940  0.066121  0.208450  0.058612 -0.237101 -0.001945
  7C   1py        0.050143 -0.028262  0.086470 -0.167545 -0.069153 -0.108201
  7C   2pz        0.009249 -0.005137  0.014316 -0.015628 -0.010530  0.016619
  7C   2px        0.044030 -0.005809  0.064962  0.020365 -0.058355  0.119675
  7C   2py        0.015485 -0.013647  0.024829 -0.051809 -0.015401  0.016845
  7C   1dz2       0.003466 -0.001971  0.000984 -0.000475  0.000017 -0.001020
  7C   1dxz      -0.000414  0.000216  0.000973  0.000547 -0.000898 -0.002530
  7C   1dyz      -0.000435  0.001147 -0.000055 -0.001048  0.000113 -0.002453
  7C   1dx2y2    -0.004451  0.000296 -0.000533  0.003749 -0.001046  0.005492
  7C   1dxy       0.001654 -0.000474  0.003468  0.000464 -0.002358 -0.009172
  8H   1s         0.074247  0.071592 -0.083941  0.116519  0.008495 -0.143195
  8H   2s         0.010729  0.012575 -0.013679  0.009015  0.002514 -0.024921
  8H   1pz       -0.001292 -0.002078 -0.000490 -0.000363 -0.002150  0.000239
  8H   1px        0.006430  0.003331 -0.008871  0.007163 -0.002897 -0.007342
  8H   1py       -0.005568 -0.007059  0.000950 -0.003013 -0.005586  0.002696
  9H   1s        -0.077296 -0.100659  0.050629  0.115008  0.007862 -0.075327
  9H   2s        -0.010934 -0.017004  0.008834  0.008674  0.002118 -0.015426
  9H   1pz        0.001903  0.003026 -0.000007 -0.002147  0.001298  0.000948
  9H   1px       -0.005119 -0.001492  0.006977  0.002123  0.006382 -0.002022
  9H   1py        0.007023  0.009369 -0.001909 -0.006935  0.002117  0.003354
 10H   1s         0.073966  0.048857  0.098800  0.116160  0.006900 -0.160987
 10H   2s         0.010653  0.008828  0.016222  0.008987  0.002125 -0.028908
 10H   1pz        0.002174  0.002300  0.001305  0.001345  0.001763 -0.001468
 10H   1px        0.006916  0.001714  0.009597  0.007398 -0.002419 -0.008415
 10H   1py        0.004569  0.006349  0.001270  0.001982  0.005876 -0.002072
 11H   1s        -0.076706 -0.086171 -0.072153  0.114600  0.006311 -0.103806
 11H   2s        -0.010789 -0.014465 -0.012405  0.008629  0.001744 -0.020145
 11H   1pz       -0.002625 -0.002972 -0.001699  0.002477 -0.000473 -0.001751
 11H   1px       -0.005673 -0.000594 -0.007352  0.002754  0.006078 -0.002868
 11H   1py       -0.006242 -0.008642 -0.003043  0.006593 -0.003046 -0.004411
 12H   1s        -0.077098  0.085778  0.072696  0.115035  0.006868  0.105341
 12H   2s        -0.010864  0.014361  0.012504  0.008715  0.001862  0.020667
 12H   1pz        0.002641 -0.002962 -0.001710 -0.002485  0.000463 -0.001775
 12H   1px        0.005675 -0.000580 -0.007386 -0.002751 -0.006066 -0.002912
 12H   1py        0.006287 -0.008617 -0.003067 -0.006616  0.003013 -0.004471
 13H   1s         0.073721 -0.048565 -0.098713  0.116518  0.007363  0.160468
 13H   2s         0.010612 -0.008738 -0.016248  0.009010  0.002212  0.028650
 13H   1pz       -0.002176  0.002298  0.001301 -0.001351 -0.001773 -0.001467
 13H   1px       -0.006878  0.001686  0.009599 -0.007419  0.002398 -0.008379
 13H   1py       -0.004583  0.006351  0.001255 -0.001995 -0.005902 -0.002079
 14H   1s         0.074429 -0.071028  0.084387  0.115897  0.007041  0.143989
 14H   2s         0.010758 -0.012532  0.013717  0.008940  0.002220  0.025190
 14H   1pz        0.001295 -0.002070 -0.000484  0.000367  0.002143  0.000249
 14H   1px       -0.006452  0.003304 -0.008890 -0.007122  0.002962 -0.007380
 14H   1py        0.005584 -0.007027  0.000972  0.003015  0.005546  0.002734
 15H   1s        -0.077485  0.100990 -0.049868  0.114316  0.006630  0.073953
 15H   2s        -0.010960  0.017069 -0.008742  0.008582  0.001877  0.014955
 15H   1pz       -0.001909  0.003034  0.000004  0.002131 -0.001317  0.000924
 15H   1px        0.005133 -0.001491  0.006938 -0.002133 -0.006376 -0.002017
 15H   1py       -0.007045  0.009390 -0.001867  0.006890 -0.002177  0.003283
                     18        19        20        21        22        23   
                  -0.53438  -0.49840  -0.46592  -0.43326  -0.43227  -0.43074
                   2.00000   2.00000   2.00000   2.00000   2.00000   2.00000
                  --------  --------  --------  --------  --------  --------
  0C   1s         0.004037 -0.069760  0.013688 -0.000000  0.029298  0.012083
  0C   2s        -0.013801  0.155287 -0.039403  0.000001 -0.064046 -0.023028
  0C   3s        -0.000976  0.324567 -0.080848  0.000030 -0.109642 -0.058077
  0C   1pz       -0.002779  0.005209 -0.018389  0.207304  0.029241 -0.070038
  0C   1px       -0.157315 -0.117795 -0.210656 -0.018932  0.187782  0.029370
  0C   1py        0.034339  0.047305  0.002536 -0.069962  0.035830 -0.215472
  0C   2pz        0.037243 -0.002988  0.013383  0.089041  0.009617 -0.020272
  0C   2px        0.018168  0.101019 -0.034545 -0.008108  0.001731 -0.019194
  0C   2py        0.105406 -0.036181  0.048994 -0.030011  0.028028 -0.054878
  0C   1dz2       0.000124 -0.001787 -0.000358  0.000860  0.000970  0.000813
  0C   1dxz      -0.003136 -0.002723 -0.004469  0.007134  0.004217  0.000046
  0C   1dyz       0.002030 -0.002792  0.000890 -0.000639  0.003865  0.003666
  0C   1dx2y2    -0.007786  0.007316 -0.005352 -0.000814 -0.007509 -0.010230
  0C   1dxy      -0.007233 -0.010561 -0.011927 -0.002380  0.014521  0.002946
  1C   1s        -0.000578  0.070029 -0.013471 -0.000001 -0.031011  0.004004
  1C   2s         0.003904 -0.155889  0.039004  0.000002  0.066321 -0.005802
  1C   3s        -0.017719 -0.325542  0.079952  0.000039  0.117657 -0.026469
  1C   1pz        0.009325  0.021299  0.010446  0.206740 -0.018611  0.073323
  1C   1px        0.117039  0.120734  0.210781 -0.018891 -0.194425 -0.005311
  1C   1py       -0.004047  0.030423 -0.026090 -0.069814 -0.002492  0.218568
  1C   2pz        0.034884 -0.016785  0.018378  0.088748  0.004138  0.019658
  1C   2px       -0.024787 -0.104812  0.039257 -0.008124  0.002409 -0.012936
  1C   2py        0.110040 -0.021358  0.043819 -0.029953  0.011614  0.061698
  1C   1dz2      -0.000807  0.001029 -0.000640  0.000864 -0.000121  0.000673
  1C   1dxz      -0.002499 -0.003877 -0.004104  0.007177  0.005204  0.000401
  1C   1dyz      -0.002724  0.001988 -0.001896 -0.000645 -0.003721  0.002655
  1C   1dx2y2     0.005867 -0.009648  0.002249 -0.000819  0.013664 -0.007230
  1C   1dxy      -0.009057 -0.008477 -0.012789 -0.002395  0.011873  0.003205
  2C   1s        -0.017712 -0.069183 -0.012876  0.000003  0.010932 -0.028613
  2C   2s         0.050366  0.153955  0.037284 -0.000006 -0.020671  0.061989
  2C   3s         0.103541  0.320831  0.078468  0.000028 -0.052871  0.108203
  2C   1pz        0.074017 -0.041062  0.067723  0.204890  0.031028 -0.057259
  2C   1px        0.100272 -0.044323 -0.007245 -0.018709  0.229395  0.046690
  2C   1py        0.192117 -0.109637  0.202565 -0.069147  0.029865 -0.182305
  2C   2pz        0.029340  0.035032  0.015156  0.088118  0.000641  0.002264
  2C   2px       -0.020914  0.031150  0.052422 -0.008043  0.059248  0.030656
  2C   2py        0.092572  0.095342  0.030711 -0.029757 -0.014117 -0.001609
  2C   1dz2       0.000046  0.000545 -0.000070  0.003840 -0.001253  0.001812
  2C   1dxz       0.000546  0.002800 -0.004645 -0.000387  0.000197  0.004036
  2C   1dyz      -0.000322  0.003658  0.000336  0.005868 -0.003460  0.003597
  2C   1dx2y2     0.001177 -0.007534 -0.004562  0.002252  0.010575 -0.008255
  2C   1dxy       0.001338  0.010184 -0.012474 -0.000544 -0.002554  0.014609
  3C   1s         0.018466  0.069058  0.012681  0.000003 -0.003167 -0.030767
  3C   2s        -0.052627 -0.153699 -0.036878 -0.000006  0.004205  0.066103
  3C   3s        -0.105899 -0.320022 -0.077717 -0.000047  0.024265  0.120570
  3C   1pz        0.069645 -0.035338  0.070327  0.205958 -0.018493  0.061300
  3C   1px       -0.084898  0.033608  0.024626 -0.018826 -0.228242 -0.000547
  3C   1py        0.229274 -0.113771  0.201658 -0.069545  0.007008  0.181668
  3C   2pz        0.030238  0.031250  0.008001  0.088608 -0.008633 -0.000682
  3C   2px        0.005697 -0.022953 -0.049673 -0.008056 -0.066214  0.012632
  3C   2py        0.088033  0.098776  0.037145 -0.029901 -0.007642 -0.005467
  3C   1dz2      -0.000115  0.000198 -0.000987 -0.003924  0.000856  0.001007
  3C   1dxz      -0.000092  0.003554 -0.004286 -0.000581  0.000344 -0.005326
  3C   1dyz       0.000008 -0.002844 -0.001444 -0.005733  0.002426  0.003221
  3C   1dx2y2     0.000077  0.009659  0.001503 -0.002120 -0.006983 -0.013857
  3C   1dxy      -0.000348  0.008178 -0.013327  0.000861  0.003080 -0.011719
  4C   1s         0.017514 -0.069298 -0.012491 -0.000003 -0.011622  0.028343
  4C   2s        -0.049971  0.154240  0.036496  0.000006  0.022584 -0.061151
  4C   3s        -0.102465  0.321124  0.077121 -0.000028  0.056012 -0.106622
  4C   1pz        0.073690  0.040477 -0.068546  0.206050  0.028870 -0.058101
  4C   1px        0.101518  0.043799  0.005775 -0.018815  0.224110  0.041943
  4C   1py        0.190809  0.108046 -0.204607 -0.069539  0.024902 -0.183515
  4C   2pz        0.029048 -0.035253 -0.015044  0.088591 -0.000187  0.001951
  4C   2px       -0.020899 -0.031641 -0.052565 -0.008086  0.058288  0.030264
  4C   2py        0.091704 -0.095864 -0.030339 -0.029917 -0.016309 -0.002428
  4C   1dz2      -0.000042  0.000553 -0.000091 -0.003856  0.001225 -0.001842
  4C   1dxz      -0.000546  0.002781 -0.004673  0.000377 -0.000198 -0.003952
  4C   1dyz       0.000342  0.003675  0.000265 -0.005890  0.003341 -0.003729
  4C   1dx2y2    -0.001230 -0.007603 -0.004377 -0.002259 -0.010240  0.008695
  4C   1dxy      -0.001321  0.010149 -0.012609  0.000549  0.002458 -0.014485
  5C   1s         0.000798  0.069917 -0.013711  0.000001  0.031355 -0.003319
  5C   2s        -0.004340 -0.155639  0.039423 -0.000001 -0.067416  0.003848
  5C   3s         0.016550 -0.325569  0.081051 -0.000038 -0.119975  0.023709
  5C   1pz        0.009419 -0.021571 -0.009476  0.207275 -0.016836  0.075226
  5C   1px        0.114896 -0.122657 -0.208760 -0.018940 -0.191923  0.000652
  5C   1py       -0.003189 -0.030707  0.028418 -0.069995  0.002089  0.222593
  5C   2pz        0.034998  0.016630 -0.018247  0.088965  0.004270  0.020174
  5C   2px       -0.024853  0.104172 -0.039274 -0.008144  0.003816 -0.010840
  5C   2py        0.110395  0.021071 -0.043426 -0.030026  0.011626  0.062660
  5C   1dz2       0.000811  0.001018 -0.000655 -0.000826  0.000073 -0.000703
  5C   1dxz       0.002478 -0.003887 -0.004077 -0.007213 -0.005232 -0.000346
  5C   1dyz       0.002730  0.001971 -0.001962  0.000711  0.003572 -0.002749
  5C   1dx2y2    -0.005904 -0.009597  0.002457  0.000847 -0.013248  0.007552
  5C   1dxy       0.009008 -0.008524 -0.012770  0.002399 -0.012077 -0.003135
  6C   1s        -0.004313 -0.069833  0.013869  0.000000 -0.028634 -0.011796
  6C   2s         0.014468  0.155429 -0.039924 -0.000001  0.062085  0.022172
  6C   3s         0.002691  0.324581 -0.081300 -0.000030  0.106001  0.055750
  6C   1pz       -0.003218 -0.005222  0.017510  0.205835  0.027969 -0.071537
  6C   1px       -0.157890  0.117024  0.210458 -0.018798  0.192869  0.030648
  6C   1py        0.033196 -0.047134 -0.005087 -0.069466  0.030685 -0.220257
  6C   2pz        0.037059  0.002782 -0.013593  0.088450  0.009593 -0.020024
  6C   2px        0.017077 -0.101708  0.034882 -0.008055  0.004051 -0.017573
  6C   2py        0.105157  0.035759 -0.049708 -0.029812  0.027330 -0.054581
  6C   1dz2      -0.000130 -0.001796 -0.000362 -0.000781 -0.001010 -0.000842
  6C   1dxz       0.003114 -0.002731 -0.004432 -0.007050 -0.004208  0.000039
  6C   1dyz      -0.002025 -0.002784  0.000871  0.000736 -0.003978 -0.003793
  6C   1dx2y2     0.007763  0.007304 -0.005269  0.000844  0.007856  0.010657
  6C   1dxy       0.007170 -0.010585 -0.011841  0.002340 -0.014598 -0.002814
  7C   1s        -0.018167  0.069063  0.013092 -0.000003  0.002737  0.030009
  7C   2s         0.051962 -0.153715 -0.037861  0.000006 -0.003018 -0.063953
  7C   3s         0.103872 -0.320011 -0.078886  0.000046 -0.021981 -0.116507
  7C   1pz        0.070176  0.035267 -0.069797  0.204059 -0.018077  0.062825
  7C   1px       -0.083618 -0.033601 -0.022967 -0.018653 -0.233369 -0.004963
  7C   1py        0.230500  0.113558 -0.200537 -0.068905  0.009629  0.187382
  7C   2pz        0.030232 -0.031390 -0.008127  0.087839 -0.008101  0.000182
  7C   2px        0.006292  0.022372  0.050118 -0.007986 -0.066163  0.012513
  7C   2py        0.087855 -0.099034 -0.037641 -0.029642 -0.006080 -0.002874
  7C   1dz2       0.000112  0.000212 -0.000988  0.003873 -0.000896 -0.001019
  7C   1dxz       0.000099  0.003565 -0.004238  0.000516 -0.000368  0.005368
  7C   1dyz      -0.000028 -0.002832 -0.001454  0.005675 -0.002569 -0.003324
  7C   1dx2y2    -0.000016  0.009618  0.001568  0.002104  0.007376  0.014163
  7C   1dxy       0.000350  0.008229 -0.013204 -0.000832 -0.003262  0.011761
  8H   1s         0.105734  0.178513  0.143580  0.000004 -0.181501 -0.124417
  8H   2s         0.022129  0.062575  0.046358 -0.000000 -0.069405 -0.044830
  8H   1pz       -0.000585 -0.000751 -0.000712  0.005778  0.001330 -0.000647
  8H   1px        0.004784  0.008568  0.005336 -0.000528 -0.006073 -0.006701
  8H   1py       -0.003028 -0.004544 -0.003554 -0.001951  0.005584 -0.000106
  9H   1s         0.160313 -0.175487  0.148540 -0.000013  0.068587  0.209635
  9H   2s         0.029178 -0.061270  0.047958 -0.000001  0.022326  0.079854
  9H   1pz       -0.002441  0.002537 -0.001612  0.005831 -0.001634 -0.002219
  9H   1px        0.002242 -0.003554  0.003053 -0.000534 -0.002302  0.004555
  9H   1py       -0.007836  0.008475 -0.005602 -0.001968 -0.004217 -0.007806
 10H   1s        -0.076901 -0.178407 -0.145211  0.000010  0.213718 -0.067365
 10H   2s        -0.016821 -0.062836 -0.046920 -0.000008  0.080946 -0.022891
 10H   1pz       -0.001019 -0.001928 -0.001482  0.005751  0.002201  0.000379
 10H   1px       -0.003531 -0.008945 -0.005717 -0.000525  0.008376 -0.004525
 10H   1py       -0.002062 -0.003291 -0.002843 -0.001942  0.004254  0.002346
 11H   1s        -0.142875  0.176635 -0.146753 -0.000023 -0.128232  0.184069
 11H   2s        -0.025708  0.061671 -0.047303 -0.000019 -0.044683  0.071282
 11H   1pz       -0.002510  0.003092 -0.002037  0.005778 -0.002169  0.002427
 11H   1px       -0.002488  0.004358 -0.003581 -0.000529  0.000327  0.005621
 11H   1py       -0.006762  0.007981 -0.005064 -0.001952 -0.006512  0.005667
[...]
     29      -0.062126   0.068875   0.065131   0.082856   0.039599   0.066907
     30      -0.120307  -0.120596  -0.119138   0.094345  -0.144999   0.106053
     31       0.353920   0.274635   0.315268  -0.110835   0.425216  -0.383862
     32       0.108481   0.081707   0.095554  -0.028802   0.130311  -0.119901
     33       0.447366  -0.041486  -0.316411   0.398153  -0.189839  -0.200630
     34      -0.208750   0.040944   0.149332  -0.161978   0.137626   0.006701
     35      -0.029594   0.010016   0.021499  -0.018299   0.029109  -0.016052
     36       0.447323  -0.041461   0.316421   0.398153  -0.189848   0.200656
     37      -0.208728   0.040932  -0.149335  -0.161976   0.137630  -0.006652
     38      -0.029591   0.010015  -0.021499  -0.018298   0.029109   0.016071
     39      -0.120288  -0.120607   0.119136   0.094341  -0.144998  -0.106145
     40       0.353872   0.274666  -0.315263  -0.110823   0.425211   0.383995
     41       0.108466   0.081717  -0.095553  -0.028799   0.130310   0.119937
     42      -0.041860  -0.206506  -0.147866   0.139268   0.158759   0.001152
     43      -0.038341  -0.419674  -0.296810   0.176769   0.374193   0.190664
     44      -0.016771  -0.160603  -0.113749   0.072422   0.140879   0.064496
     45      -0.285361   0.368745  -0.327942   0.442790   0.113741  -0.400422
     46      -0.106833   0.104247  -0.104186   0.125606   0.086536  -0.089781
     47      -0.062133   0.068888  -0.065130   0.082857   0.039598  -0.066894
                 36         37         38         39         40         41    
      0      -0.034978   0.081929  -0.166597   0.147959   0.024427   0.031779
      1      -0.147083  -0.055841  -0.325345   0.297046  -0.011531  -0.015570
      2      -0.052859  -0.011378  -0.125064   0.113807  -0.001662  -0.002353
      3       0.049366  -0.159228  -0.021119   0.119253  -0.025359  -0.034552
      4       0.085301   0.236445   0.257180  -0.315683  -0.008055  -0.011402
      5       0.033313   0.065280   0.084903  -0.095684  -0.005036  -0.007005
      6      -0.155696   0.346974  -0.056193  -0.316594   0.011398   0.006096
      7       0.037554  -0.168111  -0.076463   0.149406   0.022885   0.014792
      8      -0.001548  -0.025052  -0.030956   0.021514   0.008767   0.005550
      9      -0.091086  -0.269737   0.243859  -0.328483  -0.009190  -0.003345
     10       0.049461  -0.012523   0.144572  -0.104358   0.024316   0.012158
     11       0.008380  -0.028861   0.071087  -0.065237   0.007372   0.003800
     12       0.155624   0.347051  -0.056412   0.316584  -0.011393   0.006092
     13      -0.037551  -0.168113  -0.076214  -0.149402  -0.022878   0.014785
     14       0.001542  -0.025045  -0.030892  -0.021513  -0.008764   0.005548
     15      -0.049348  -0.159236  -0.020881  -0.119246   0.025358  -0.034544
     16      -0.085260   0.236387   0.256958   0.315681   0.008055  -0.011399
     17      -0.033297   0.065260   0.084850   0.095684   0.005036  -0.007003
     18       0.034918   0.081924  -0.166847  -0.147975  -0.024439   0.031781
     19       0.146996  -0.055783  -0.325527  -0.297061   0.011537  -0.015571
     20       0.052824  -0.011359  -0.125148  -0.113813   0.001662  -0.002353
     21       0.091200  -0.269659   0.244064   0.328503   0.009195  -0.003345
     22      -0.049417  -0.012531   0.144787   0.104369  -0.024328   0.012158
     23      -0.008354  -0.028856   0.071178   0.065243  -0.007376   0.003800
     24       0.208317   0.077564   0.119378   0.018565  -0.318330  -0.405853
     25       0.334997  -0.023468   0.246922   0.037334   0.150274   0.192157
     26       0.132158  -0.000849   0.094315   0.014304   0.021651   0.027794
     27       0.142583   0.163939  -0.217928  -0.041436   0.119763   0.055475
     28       0.130136   0.111622  -0.014685  -0.013162  -0.316915  -0.150114
     29       0.056942   0.052618  -0.024887  -0.008224  -0.096069  -0.045618
     30       0.141044   0.021972   0.122151   0.014996   0.330442   0.439997
     31      -0.139571  -0.208520  -0.159530  -0.039817   0.104977   0.140204
     32      -0.034233  -0.068393  -0.042685  -0.012072   0.065619   0.087515
     33       0.358251  -0.263357  -0.022901  -0.039931  -0.148548  -0.089367
     34      -0.207959   0.120756  -0.072967   0.018840  -0.298275  -0.181997
     35      -0.037463   0.016703  -0.026698   0.002703  -0.114261  -0.069601
     36      -0.358212  -0.263484  -0.022152   0.039929   0.148498  -0.089324
     37       0.207914   0.120851  -0.073163  -0.018839   0.298177  -0.181912
     38       0.037451   0.016723  -0.026696  -0.002703   0.114223  -0.069568
     39      -0.141008   0.021885   0.122052  -0.014996  -0.330431   0.439898
     40       0.139548  -0.208378  -0.158828   0.039827  -0.104973   0.140171
     41       0.034229  -0.068354  -0.042457   0.012075  -0.065617   0.087495
     42      -0.208296   0.077467   0.119565  -0.018564   0.318469  -0.405872
     43      -0.334923  -0.023588   0.247636  -0.037321  -0.150342   0.192169
     44      -0.132131  -0.000898   0.094573  -0.014299  -0.021661   0.027796
     45      -0.142675   0.163798  -0.218666   0.041427  -0.119825   0.055472
     46      -0.130159   0.111544  -0.014758   0.013164   0.317075  -0.150103
     47      -0.056958   0.052579  -0.024980   0.008224   0.096117  -0.045614
                 42         43         44         45         46         47    
      0       0.015752   0.001327   0.037750   0.035997  -0.015224  -0.027574
      1      -0.006245  -0.001828  -0.017765  -0.017759   0.005270   0.013018
      2      -0.000670  -0.000496  -0.002549  -0.002708   0.000389   0.001876
      3       0.012704   0.039122  -0.002223   0.036963   0.016631  -0.028602
      4       0.002836   0.012484   0.000452   0.012530   0.003457  -0.009087
      5       0.002118   0.007788  -0.000050   0.007606   0.002686  -0.005681
      6      -0.015439  -0.001859  -0.017582   0.005106   0.017624  -0.012892
      7      -0.029786  -0.001163  -0.035428   0.014357   0.033756  -0.025888
      8      -0.011465  -0.000563  -0.013566   0.005312   0.013005  -0.009917
      9      -0.012992  -0.014271  -0.000393   0.004127  -0.014254  -0.010397
     10       0.033207   0.037613  -0.002141  -0.015947   0.035555   0.027511
     11       0.010026   0.011397  -0.000759  -0.005007   0.010703   0.008339
     12      -0.015444   0.001860   0.017582   0.005107   0.017622   0.012893
     13      -0.029795   0.001164   0.035427   0.014360   0.033754   0.025889
     14      -0.011469   0.000563   0.013565   0.005314   0.013004   0.009917
     15       0.012713  -0.039124   0.002216   0.036967   0.016628   0.028602
     16       0.002839  -0.012484  -0.000454   0.012531   0.003456   0.009087
     17       0.002120  -0.007788   0.000049   0.007607   0.002686   0.005681
     18       0.015746  -0.001322  -0.037748   0.035994  -0.015226   0.027570
     19      -0.006242   0.001825   0.017764  -0.017758   0.005271  -0.013016
     20      -0.000669   0.000496   0.002549  -0.002707   0.000389  -0.001876
     21      -0.012990   0.014271   0.000392   0.004127  -0.014255   0.010396
     22       0.033199  -0.037612   0.002146  -0.015948   0.035557  -0.027507
     23       0.010024  -0.011397   0.000760  -0.005008   0.010704  -0.008338
     24      -0.194218  -0.020557  -0.449169  -0.416796   0.168492   0.317830
     25       0.090499   0.012240   0.211925   0.198977  -0.073989  -0.150043
     26       0.012809   0.002254   0.030511   0.029099  -0.009586  -0.021620
     27       0.160200   0.169404  -0.005842  -0.062083   0.157706   0.119837
     28      -0.422745  -0.447958   0.022164   0.178842  -0.411052  -0.317108
     29      -0.128108  -0.135782   0.006952   0.054718  -0.124389  -0.096128
     30      -0.156416  -0.465895   0.022620  -0.427519  -0.186011   0.329668
     31      -0.048494  -0.148126   0.004745  -0.138097  -0.053802   0.104733
     32      -0.030658  -0.092556   0.003667  -0.085667  -0.035152   0.065466
     33       0.190144   0.011976   0.209804  -0.072993  -0.197094   0.148604
     34       0.380588   0.018629   0.421547  -0.158459  -0.391039   0.298402
     35       0.145845   0.007384   0.161469  -0.060159  -0.150010   0.114307
     36       0.190205  -0.011981  -0.209801  -0.073010  -0.197078  -0.148613
     37       0.380713  -0.018639  -0.421542  -0.158493  -0.391009  -0.298422
     38       0.145893  -0.007388  -0.161467  -0.060172  -0.149998  -0.114315
     39      -0.156541   0.465920  -0.022542  -0.427570  -0.185979  -0.329677
     40      -0.048533   0.148132  -0.004719  -0.138112  -0.053791  -0.104735
     41      -0.030682   0.092561  -0.003652  -0.085676  -0.035146  -0.065468
     42      -0.194131   0.020490   0.449146  -0.416758   0.168512  -0.317787
     43       0.090459  -0.012208  -0.211917   0.198962  -0.074000   0.150025
     44       0.012803  -0.002249  -0.030511   0.029097  -0.009588   0.021618
     45       0.160164  -0.169401   0.005865  -0.062086   0.157714  -0.119825
     46      -0.422644   0.447946  -0.022224   0.178847  -0.411068   0.317071
     47      -0.128077   0.135778  -0.006970   0.054719  -0.124393   0.096116


-----------
IR SPECTRUM
-----------

 Mode    freq (cm**-1)   T**2         TX         TY         TZ
-------------------------------------------------------------------
   6:       194.54    0.000002  ( -0.000799   0.000502   0.000966)
   7:       194.65    0.000001  (  0.000746  -0.000094  -0.000374)
   8:       322.87    0.000000  ( -0.000003   0.000007   0.000002)
   9:       322.90    0.000000  (  0.000012  -0.000004  -0.000000)
  10:       503.26    0.000000  (  0.000008   0.000033  -0.000098)
  11:       503.39    0.000000  (  0.000009   0.000035  -0.000102)
  12:       571.51   69.837833  ( -0.721149  -2.666006   7.887344)
  13:       575.69    0.000046  (  0.000457  -0.002390   0.006333)
  14:       595.13    0.000000  (  0.000013   0.000045  -0.000135)
  15:       595.15    0.000000  (  0.000006   0.000028  -0.000078)
  16:       619.05    0.000001  ( -0.000799   0.000327  -0.000462)
  17:       619.05    0.000008  (  0.000408   0.002750  -0.000346)
  18:       731.82    0.000000  (  0.000011  -0.000052  -0.000017)
  19:       737.76    0.000000  (  0.000002   0.000005  -0.000010)
  20:       737.81    0.000000  ( -0.000002   0.000001   0.000001)
  21:       751.21    0.000002  ( -0.001304   0.000098  -0.000342)
  22:       751.25    0.000002  (  0.000941   0.000833  -0.000027)
  23:       809.83    0.000003  ( -0.001641   0.000792   0.000127)
  24:       874.94   48.245787  ( -2.206681  -6.176354  -2.286700)
  25:       874.96   48.250800  ( -6.559459   2.279321   0.170252)
  26:       960.71    0.000000  ( -0.000054  -0.000013  -0.000009)
  27:      1136.26    0.000000  (  0.000018  -0.000011  -0.000002)
  28:      1136.30    0.000000  ( -0.000007   0.000008   0.000002)
  29:      1239.19    0.000000  ( -0.000005   0.000023   0.000008)
  30:      1248.90    0.000002  (  0.001022  -0.000076   0.000711)
  31:      1248.92    0.000012  ( -0.003160  -0.001333  -0.000692)
  32:      1332.58    0.000000  ( -0.000100  -0.000043  -0.000023)
  33:      1388.45   46.405090  ( -6.775322  -0.185603  -0.682383)
  34:      1388.47   46.417533  (  0.393447  -6.454467  -2.145364)
  35:      1476.38    0.000000  (  0.000094  -0.000032  -0.000002)
  36:      1476.44    0.000000  (  0.000008   0.000087   0.000030)
  37:      1482.33    0.000001  ( -0.000046  -0.000152   0.000781)
  38:      1482.38    0.000004  ( -0.001118  -0.001191  -0.001000)
  39:      1629.97    0.000000  (  0.000078  -0.000193  -0.000058)
  40:      2832.49    0.000000  ( -0.000653  -0.000014  -0.000065)
  41:      2840.15    0.000139  ( -0.007441  -0.008402  -0.003672)
  42:      2840.19    0.000112  (  0.009779   0.002765   0.002997)
  43:      2865.84    0.000001  (  0.000687  -0.000199  -0.000004)
  44:      2865.86    0.000001  ( -0.001167   0.000334   0.000006)
  45:      2901.37  845.006434  ( 28.911963  -2.397617   1.832010)
  46:      2901.41  845.019747  (  1.679469  27.448589   9.422000)
  47:      2928.81    0.000002  ( -0.000574   0.001154   0.000337)

The first frequency considered to be a vibration is 6
The total number of vibrations considered is 42


--------------------------
THERMOCHEMISTRY AT 298.15K
--------------------------

Temperature         ... 298.15 K
Pressure            ... 1.00 atm
Total Mass          ... 104.15 AMU

Throughout the following assumptions are being made:
  (1) The electronic state is orbitally nondegenerate
  (2) There are no thermally accessible electronically excited states
  (3) Hindered rotations indicated by low frequency modes are not
      treated as such but are treated as vibrations and this may
      cause some error
  (4) All equations used are the standard statistical mechanics
      equations for an ideal gas
  (5) All vibrations are strictly harmonic

freq.     194.54  E(vib)   ...       0.36 
freq.     194.65  E(vib)   ...       0.36 
freq.     322.87  E(vib)   ...       0.25 
freq.     322.90  E(vib)   ...       0.25 
freq.     503.26  E(vib)   ...       0.14 
freq.     503.39  E(vib)   ...       0.14 
freq.     571.51  E(vib)   ...       0.11 
freq.     575.69  E(vib)   ...       0.11 
freq.     595.13  E(vib)   ...       0.10 
freq.     595.15  E(vib)   ...       0.10 
freq.     619.05  E(vib)   ...       0.09 
freq.     619.05  E(vib)   ...       0.09 
freq.     731.82  E(vib)   ...       0.06 
freq.     737.76  E(vib)   ...       0.06 
freq.     737.81  E(vib)   ...       0.06 
freq.     751.21  E(vib)   ...       0.06 
freq.     751.25  E(vib)   ...       0.06 
freq.     809.83  E(vib)   ...       0.05 
freq.     874.94  E(vib)   ...       0.04 
freq.     874.96  E(vib)   ...       0.04 
freq.     960.71  E(vib)   ...       0.03 
freq.    1136.26  E(vib)   ...       0.01 
freq.    1136.30  E(vib)   ...       0.01 
freq.    1239.19  E(vib)   ...       0.01 
freq.    1248.90  E(vib)   ...       0.01 
freq.    1248.92  E(vib)   ...       0.01 
freq.    1332.58  E(vib)   ...       0.01 
freq.    1388.45  E(vib)   ...       0.00 
freq.    1388.47  E(vib)   ...       0.00 
freq.    1476.38  E(vib)   ...       0.00 
freq.    1476.44  E(vib)   ...       0.00 
freq.    1482.33  E(vib)   ...       0.00 
freq.    1482.38  E(vib)   ...       0.00 
freq.    1629.97  E(vib)   ...       0.00 
freq.    2832.49  E(vib)   ...       0.00 
freq.    2840.15  E(vib)   ...       0.00 
freq.    2840.19  E(vib)   ...       0.00 
freq.    2865.84  E(vib)   ...       0.00 
freq.    2865.86  E(vib)   ...       0.00 
freq.    2901.37  E(vib)   ...       0.00 
freq.    2901.41  E(vib)   ...       0.00 
freq.    2928.81  E(vib)   ...       0.00 

------------
INNER ENERGY
------------

The inner energy is: U= E(el) + E(ZPE) + E(vib) + E(rot) + E(trans)
    E(el)   - is the total energy from the electronic structure calculation
              = E(kin-el) + E(nuc-el) + E(el-el) + E(nuc-nuc)
    E(ZPE)  - the the zero temperature vibrational energy from the frequency calculation
    E(vib)  - the the finite temperature correction to E(ZPE) due to population
              of excited vibrational states
    E(rot)  - is the rotational thermal energy
    E(trans)- is the translational thermal energy

Summary of contributions to the inner energy U:
Electronic energy                ...   -309.17242920 Eh
Zero point energy                ...      0.12185961 Eh      76.47 kcal/mol
Thermal vibrational correction   ...      0.00419833 Eh       2.63 kcal/mol
Thermal rotational correction    ...      0.00141627 Eh       0.89 kcal/mol
Thermal translational correction ...      0.00141627 Eh       0.89 kcal/mol
-----------------------------------------------------------------------
Total thermal energy                   -309.04353872 Eh


Summary of corrections to the electronic energy:
(perhaps to be used in another calculation)
Total thermal correction                  0.00703087 Eh       4.41 kcal/mol
Non-thermal (ZPE) correction              0.12185961 Eh      76.47 kcal/mol
-----------------------------------------------------------------------
Total correction                          0.12889048 Eh      80.88 kcal/mol


--------
ENTHALPY
--------

The enthalpy is H = U + kB*T
                kB is Boltzmann's constant
Total free energy                 ...   -309.04353872 Eh 
Thermal Enthalpy correction       ...      0.00094421 Eh       0.59 kcal/mol
-----------------------------------------------------------------------
Total Enthalpy                    ...   -309.04259451 Eh


Note: Only C1 symmetry has been detected, increase convergence thresholds 
      if your molecule has a higher symmetry. Symmetry factor of 1.0 is   
      used for the rotational entropy correction. 
 

Note: Rotational entropy computed according to Herzberg 
Infrared and Raman Spectra, Chapter V,1, Van Nostrand Reinhold, 1945 
Point Group:  C1, Symmetry Number:   1  
Rotational constants in cm-1:     0.082786     0.082783     0.041392 

Vibrational entropy computed according to the QRRHO of S. Grimme
Chem.Eur.J. 2012 18 9955


-------
ENTROPY
-------

The entropy contributions are T*S = T*(S(el)+S(vib)+S(rot)+S(trans))
     S(el)   - electronic entropy
     S(vib)  - vibrational entropy
     S(rot)  - rotational entropy
     S(trans)- translational entropy
The entropies will be listed as mutliplied by the temperature to get
units of energy

Electronic entropy                ...      0.00000000 Eh      0.00 kcal/mol
Vibrational entropy               ...      0.00630443 Eh      3.96 kcal/mol
Rotational entropy                ...      0.01336670 Eh      8.39 kcal/mol
Translational entropy             ...      0.01892886 Eh     11.88 kcal/mol
-----------------------------------------------------------------------
Final entropy term                ...      0.03859999 Eh     24.22 kcal/mol

In case the symmetry of your molecule has not been determined correctly
or in case you have a reason to use a different symmetry number we print 
out the resulting rotational entropy values for sn=1,12 :
 --------------------------------------------------------
|  sn= 1 | S(rot)=       0.01336670 Eh      8.39 kcal/mol|
|  sn= 2 | S(rot)=       0.01271224 Eh      7.98 kcal/mol|
|  sn= 3 | S(rot)=       0.01232941 Eh      7.74 kcal/mol|
|  sn= 4 | S(rot)=       0.01205779 Eh      7.57 kcal/mol|
|  sn= 5 | S(rot)=       0.01184710 Eh      7.43 kcal/mol|
|  sn= 6 | S(rot)=       0.01167496 Eh      7.33 kcal/mol|
|  sn= 7 | S(rot)=       0.01152941 Eh      7.23 kcal/mol|
|  sn= 8 | S(rot)=       0.01140333 Eh      7.16 kcal/mol|
|  sn= 9 | S(rot)=       0.01129212 Eh      7.09 kcal/mol|
|  sn=10 | S(rot)=       0.01119264 Eh      7.02 kcal/mol|
|  sn=11 | S(rot)=       0.01110265 Eh      6.97 kcal/mol|
|  sn=12 | S(rot)=       0.01102050 Eh      6.92 kcal/mol|
 --------------------------------------------------------


-------------------
GIBBS FREE ENERGY
-------------------

The Gibbs free energy is G = H - T*S

Total enthalpy                    ...   -309.04259451 Eh 
Total entropy correction          ...     -0.03859999 Eh    -24.22 kcal/mol
-----------------------------------------------------------------------
Final Gibbs free energy         ...   -309.08119450 Eh

For completeness - the Gibbs free energy minus the electronic energy
G-E(el)                           ...      0.09123470 Eh     57.25 kcal/mol


Timings for individual modules:

Sum of individual times         ...      171.681 sec (=   2.861 min)
GTO integral calculation        ...        4.392 sec (=   0.073 min)   2.6 %
SCF iterations                  ...       68.040 sec (=   1.134 min)  39.6 %
SCF Gradient evaluation         ...       21.535 sec (=   0.359 min)  12.5 %
Geometry relaxation             ...        0.421 sec (=   0.007 min)   0.2 %
Analytical frequency calculation...       77.294 sec (=   1.288 min)  45.0 %
                             ****ORCA TERMINATED NORMALLY****
TOTAL RUN TIME: 0 days 0 hours 2 minutes 52 seconds 981 msec
