
                                 *****************
                                 * O   R   C   A *
                                 *****************

           --- An Ab Initio, DFT and Semiempirical electronic structure package ---

                  #######################################################
                  #                        -***-                        #
                  #          Department of theory and spectroscopy      #
                  #               Directorship: Frank Neese             #
                  #        Max Planck Institute fuer Kohlenforschung    #
                  #                Kaiser Wilhelm Platz 1               #
                  #                 D-45470 Muelheim/Ruhr               #
                  #                      Germany                        #
                  #                                                     #
                  #                  All rights reserved                #
                  #                        -***-                        #
                  #######################################################


                         Program Version 4.2.1 -  RELEASE  -


 With contributions from (in alphabetic order):
   Daniel Aravena         : Magnetic Suceptibility
   Michael Atanasov       : Ab Initio Ligand Field Theory (pilot matlab implementation)
   Alexander A. Auer      : GIAO ZORA, VPT2
   Ute Becker             : Parallelization
   Giovanni Bistoni       : ED, misc. LED, open-shell LED, HFLD
   Martin Brehm           : Molecular dynamics
   Dmytro Bykov           : SCF Hessian
   Vijay G. Chilkuri      : MRCI spin determinant printing, contributions to CSF-ICE
   Dipayan Datta          : RHF DLPNO-CCSD density
   Achintya Kumar Dutta   : EOM-CC, STEOM-CC
   Dmitry Ganyushin       : Spin-Orbit,Spin-Spin,Magnetic field MRCI
   Miquel Garcia          : C-PCM Hessian, Gaussian charge scheme
   Yang Guo               : DLPNO-NEVPT2, CIM, IAO-localization
   Andreas Hansen         : Spin unrestricted coupled pair/coupled cluster methods
   Benjamin Helmich-Paris : CASSCF linear response (MC-RPA)
   Lee Huntington         : MR-EOM, pCC
   Robert Izsak           : Overlap fitted RIJCOSX, COSX-SCS-MP3, EOM
   Christian Kollmar      : KDIIS, OOCD, Brueckner-CCSD(T), CCSD density
   Simone Kossmann        : Meta GGA functionals, TD-DFT gradient, OOMP2, MP2 Hessian
   Martin Krupicka        : AUTO-CI
   Lucas Lang             : DCDCAS
   Dagmar Lenk            : GEPOL surface, SMD
   Dimitrios Liakos       : Extrapolation schemes; Compound Job, initial MDCI parallelization
   Dimitrios Manganas     : Further ROCIS development; embedding schemes
   Dimitrios Pantazis     : SARC Basis sets
   Taras Petrenko         : DFT Hessian,TD-DFT gradient, ASA, ECA, R-Raman, ABS, FL, XAS/XES, NRVS
   Peter Pinski           : DLPNO-MP2, DLPNO-MP2 Gradient
   Christoph Reimann      : Effective Core Potentials
   Marius Retegan         : Local ZFS, SOC
   Christoph Riplinger    : Optimizer, TS searches, QM/MM, DLPNO-CCSD(T), (RO)-DLPNO pert. Triples
   Tobias Risthaus        : Range-separated hybrids, TD-DFT gradient, RPA, STAB
   Michael Roemelt        : Original ROCIS implementation
   Masaaki Saitow         : Open-shell DLPNO-CCSD energy and density
   Barbara Sandhoefer     : DKH picture change effects
   Avijit Sen             : IP-ROCIS
   Kantharuban Sivalingam : CASSCF convergence, NEVPT2, FIC-MRCI
   Bernardo de Souza      : ESD, SOC TD-DFT
   Georgi Stoychev        : AutoAux, RI-MP2 NMR
   Willem Van den Heuvel  : Paramagnetic NMR
   Boris Wezisla          : Elementary symmetry handling
   Frank Wennmohs         : Technical directorship


 We gratefully acknowledge several colleagues who have allowed us to
 interface, adapt or use parts of their codes:
   Stefan Grimme, W. Hujo, H. Kruse,             : VdW corrections, initial TS optimization,
                  C. Bannwarth                     DFT functionals, gCP, sTDA/sTD-DF
   Ed Valeev, F. Pavosevic, A. Kumar             : LibInt (2-el integral package), F12 methods
   Garnet Chan, S. Sharma, J. Yang, R. Olivares  : DMRG
   Ulf Ekstrom                                   : XCFun DFT Library
   Mihaly Kallay                                 : mrcc  (arbitrary order and MRCC methods)
   Andreas Klamt, Michael Diedenhofen            : otool_cosmo (COSMO solvation model)
   Jiri Pittner, Ondrej Demel                    : Mk-CCSD
   Frank Weinhold                                : gennbo (NPA and NBO analysis)
   Christopher J. Cramer and Donald G. Truhlar   : smd solvation model
   Lars Goerigk                                  : TD-DFT with DH, B97 family of functionals
   V. Asgeirsson, H. Jonsson                     : NEB implementation
   FAccTs GmbH                                   : IRC, NEB, NEB-TS, Multilevel, MM, QM/MM, CI optimization
   S Lehtola, MJT Oliveira, MAL Marques          : LibXC Library


 Your calculation uses the libint2 library for the computation of 2-el integrals
 For citations please refer to: http://libint.valeyev.net

 Your ORCA version has been built with support for libXC version: 4.2.3
 For citations please refer to: https://tddft.org/programs/libxc/

 This ORCA versions uses:
   CBLAS   interface :  Fast vector & matrix operations
   LAPACKE interface :  Fast linear algebra routines
   SCALAPACK package :  Parallel linear algebra routines


Your calculation utilizes the geometrical counterpoise correction gCP
Please cite in your paper:
H.Kruse, S. Grimme J.Chem.Phys., 136, (2012), 154101 
   

Your calculation utilizes the atom-pairwise dispersion correction
based on tight binding partial charges (D4)
Cite in your paper:
E.Caldeweyher, C.Bannwarth, S.Grimme, J.Chem.Phys., (2017), 147, 034112.
E.Caldeweyher, S.Ehlert, A.Hansen, H.Neugebauer, S.Grimme, J.Chem.Phys., (2018), in progress.
   

----- Orbital basis set information -----
Your calculation utilizes the basis: def2-SVP
   F. Weigend and R. Ahlrichs, Phys. Chem. Chem. Phys. 7, 3297 (2005).

----- AuxJ basis set information -----
Your calculation utilizes the auxiliary basis: def2/J
   F. Weigend, Phys. Chem. Chem. Phys. 8, 1057 (2006).

================================================================================
                                        WARNINGS
                       Please study these warnings very carefully!
================================================================================


WARNING: Geometry Optimization
  ===> : Switching off AutoStart
         For restart on a previous wavefunction, please use MOREAD

INFO   : the flag for use of LIBINT has been found!

================================================================================
                                       INPUT FILE
================================================================================
NAME = CH3Cl.inp
|  1> ! revPBE D4 gCP(DFT/SVP) def2-SVP Opt Freq TightOpt TightSCF Grid4 FinalGrid5 LargePrint
|  2> 
|  3> %pal
|  4>  nprocs 6
|  5> end
|  6> 
|  7> *xyz 0 1
|  8>   C      0.083074    0.083074   -0.083074
|  9>   Cl    -0.955989   -0.955989    0.955989
| 10>   H      0.718356   -0.563797   -0.718356
| 11>   H     -0.563797    0.718356   -0.718356
| 12>   H      0.718356    0.718356    0.563797
| 13> *
| 14> 
| 15>                          ****END OF INPUT****
================================================================================

                       *****************************
                       * Geometry Optimization Run *
                       *****************************

Geometry optimization settings:
Update method            Update   .... BFGS
Choice of coordinates    CoordSys .... Z-matrix Internals
Initial Hessian          InHess   .... Almoef's Model

Convergence Tolerances:
Energy Change            TolE     ....  1.0000e-06 Eh
Max. Gradient            TolMAXG  ....  1.0000e-04 Eh/bohr
RMS Gradient             TolRMSG  ....  3.0000e-05 Eh/bohr
Max. Displacement        TolMAXD  ....  1.0000e-03 bohr
RMS Displacement         TolRMSD  ....  6.0000e-04 bohr
Strict Convergence                ....  False
------------------------------------------------------------------------------
                        ORCA OPTIMIZATION COORDINATE SETUP
------------------------------------------------------------------------------

The optimization will be done in new redundant internal coordinates
Making redundant internal coordinates   ...  (new redundants) done
Evaluating the initial hessian          ...  (Almloef) done
Evaluating the coordinates              ...  done
Calculating the B-matrix                .... done
Calculating the G-matrix                .... done
Diagonalizing the G-matrix              .... done
The first mode is                       ....    1
The number of degrees of freedom        ....    9

    -----------------------------------------------------------------
                    Redundant Internal Coordinates


    -----------------------------------------------------------------
         Definition                    Initial Value    Approx d2E/dq
    -----------------------------------------------------------------
      1. B(Cl  1,C   0)                  1.7997         0.311221   
      2. B(H   2,C   0)                  1.1071         0.338209   
      3. B(H   3,C   0)                  1.1071         0.338209   
      4. B(H   4,C   0)                  1.1071         0.338209   
      5. A(Cl  1,C   0,H   3)          108.9815         0.324450   
      6. A(H   2,C   0,H   3)          109.9565         0.285190   
      7. A(Cl  1,C   0,H   4)          108.9815         0.324450   
      8. A(H   2,C   0,H   4)          109.9565         0.285190   
      9. A(H   3,C   0,H   4)          109.9565         0.285190   
     10. A(Cl  1,C   0,H   2)          108.9815         0.324450   
    -----------------------------------------------------------------

Number of atoms                         .... 5
Number of degrees of freedom            .... 10

         *************************************************************
         *                GEOMETRY OPTIMIZATION CYCLE   1            *
         *************************************************************
---------------------------------
CARTESIAN COORDINATES (ANGSTROEM)
---------------------------------
  C      0.083074    0.083074   -0.083074
  Cl    -0.955989   -0.955989    0.955989
  H      0.718356   -0.563797   -0.718356
  H     -0.563797    0.718356   -0.718356
  H      0.718356    0.718356    0.563797

----------------------------
CARTESIAN COORDINATES (A.U.)
----------------------------
  NO LB      ZA    FRAG     MASS         X           Y           Z
   0 C     6.0000    0    12.011    0.156987    0.156987   -0.156987
   1 Cl   17.0000    0    35.453   -1.806557   -1.806557    1.806557
   2 H     1.0000    0     1.008    1.357496   -1.065422   -1.357496
   3 H     1.0000    0     1.008   -1.065422    1.357496   -1.357496
   4 H     1.0000    0     1.008    1.357496    1.357496    1.065422

--------------------------------
INTERNAL COORDINATES (ANGSTROEM)
--------------------------------
 C      0   0   0     0.000000000000     0.00000000     0.00000000
 Cl     1   0   0     1.799709908265     0.00000000     0.00000000
 H      1   2   0     1.107072052619   108.98149553     0.00000000
 H      1   2   3     1.107072052619   108.98149553   120.00000000
 H      1   2   3     1.107072052619   108.98149553   240.00000000

---------------------------
INTERNAL COORDINATES (A.U.)
---------------------------
 C      0   0   0     0.000000000000     0.00000000     0.00000000
 Cl     1   0   0     3.400958847125     0.00000000     0.00000000
 H      1   2   0     2.092062989967   108.98149553     0.00000000
 H      1   2   3     2.092062989967   108.98149553   120.00000000
 H      1   2   3     2.092062989967   108.98149553   240.00000000

---------------------
BASIS SET INFORMATION
---------------------
There are 3 groups of distinct atoms

 Group   1 Type C   : 7s4p1d contracted to 3s2p1d pattern {511/31/1}
 Group   2 Type Cl  : 10s7p1d contracted to 4s3p1d pattern {5311/511/1}
 Group   3 Type H   : 4s1p contracted to 2s1p pattern {31/1}

Atom   0C    basis set group =>   1
Atom   1Cl   basis set group =>   2
Atom   2H    basis set group =>   3
Atom   3H    basis set group =>   3
Atom   4H    basis set group =>   3

-------------------------
BASIS SET IN INPUT FORMAT
-------------------------

 # Basis set for element : H 
 NewGTO H 
 S 3 
   1      13.0107010000      0.0334854848
   2       1.9622572000      0.2347218709
   3       0.4445379600      0.8137702853
 S 1 
   1       0.1219496200      1.0000000000
 P 1 
   1       0.8000000000      1.0000000000
  end;

 # Basis set for element : C 
 NewGTO C 
 S 5 
   1    1238.4016938000      0.0055173650
   2     186.2900499200      0.0410888285
   3      42.2511763460      0.1822538213
   4      11.6765579320      0.4682845944
   5       3.5930506482      0.4457581734
 S 1 
   1       0.4024514736      1.0000000000
 S 1 
   1       0.1309018267      1.0000000000
 P 3 
   1       9.4680970621      0.0568883320
   2       2.0103545142      0.3129405934
   3       0.5477100471      0.7606501651
 P 1 
   1       0.1526861379      1.0000000000
 D 1 
   1       0.8000000000      1.0000000000
  end;

 # Basis set for element : Cl
 NewGTO Cl
 S 5 
   1   10449.8275660000      0.0054265952
   2    1571.7365221000      0.0406263782
   3     357.1206552300      0.1835974786
   4     100.2518593500      0.4743894876
   5      30.8127275540      0.4373518111
 S 3 
   1      51.9237894340     -0.0927541549
   2       5.7045760975      0.5638082555
   3       2.3508376809      0.5036704463
 S 1 
   1       0.4460512467      1.0000000000
 S 1 
   1       0.1684885619      1.0000000000
 P 5 
   1     307.6679056900     -0.0088797025
   2      72.1020155150     -0.0642840717
   3      22.5326802620     -0.2428873974
   4       7.8991765444     -0.4834083637
   5       2.8767268321     -0.3895256388
 P 1 
   1       0.7745936396      1.0000000000
 P 1 
   1       0.2103769970      1.0000000000
 D 1 
   1       0.6500000000      1.0000000000
  end;

---------------------------------
AUXILIARY/J BASIS SET INFORMATION
---------------------------------
There are 3 groups of distinct atoms

 Group   1 Type C   : 12s5p4d2f1g contracted to 6s4p3d1f1g pattern {711111/2111/211/2/1}
 Group   2 Type Cl  : 14s5p5d2f1g contracted to 8s4p3d1f1g pattern {71111111/2111/311/2/1}
 Group   3 Type H   : 5s2p1d contracted to 3s1p1d pattern {311/2/1}

Atom   0C    basis set group =>   1
Atom   1Cl   basis set group =>   2
Atom   2H    basis set group =>   3
Atom   3H    basis set group =>   3
Atom   4H    basis set group =>   3

-------------------------------------
AUXILIARY/J BASIS SET IN INPUT FORMAT
-------------------------------------

 # Auxiliary/J basis set for element : H 
 NewAuxJGTO H 
 S 3 
   1      15.6752927000      0.1007184237
   2       3.6063578000      0.3404257499
   3       1.2080016000      0.6491996172
 S 1 
   1       0.4726794000      1.0000000000
 S 1 
   1       0.2018100000      1.0000000000
 P 2 
   1       2.0281365000      0.5596620919
   2       0.5358730000      0.5596620919
 D 1 
   1       2.2165124000      1.0000000000
  end;

 # Auxiliary/J basis set for element : C 
 NewAuxJGTO C 
 S 7 
   1    1861.0916331000      0.0134602335
   2     642.9939764000      0.0299160374
   3     235.1105725000      0.1008649584
   4      90.7028894000      0.2370970548
   5      36.7794552000      0.3924037254
   6      15.6046273000      0.3195862154
   7       6.8907294000      0.0530104441
 S 1 
   1       3.1478850000     -1.0000000000
 S 1 
   1       1.4777287000      1.0000000000
 S 1 
   1       0.7076466000      1.0000000000
 S 1 
   1       0.3430122000      1.0000000000
 S 1 
   1       0.1669453000      1.0000000000
 P 2 
   1      13.5472892000     -0.6769313712
   2       5.4669419000     -0.3779500978
 P 1 
   1       2.1751721000      1.0000000000
 P 1 
   1       0.8582194000      1.0000000000
 P 1 
   1       0.3376720000      1.0000000000
 D 2 
   1       5.9287253000     -0.3533329857
   2       1.9809209000     -0.7456525731
 D 1 
   1       0.8055417000     -1.0000000000
 D 1 
   1       0.3531244000     -1.0000000000
 F 2 
   1       1.6755626000      0.6311076882
   2       0.5997536000      0.4968166032
 G 1 
   1       1.0024600000     -1.0000000000
  end;

 # Auxiliary/J basis set for element : Cl
 NewAuxJGTO Cl
 S 7 
   1    8044.2766240000      0.0309054740
   2    2924.5123954000      0.0600734063
   3    1110.8168739000      0.1862207460
   4     439.9050761000      0.3715503251
   5     181.1987287000      0.4220785347
   6      77.4148302000      0.0994388367
   7      34.1977273000     -0.0596902748
 S 1 
   1      15.5648397000      1.0000000000
 S 1 
   1       7.2707873000      1.0000000000
 S 1 
   1       3.4711900000     -1.0000000000
 S 1 
   1       1.6860808000     -1.0000000000
 S 1 
   1       0.8293125000      1.0000000000
 S 1 
   1       0.4110124000      1.0000000000
 S 1 
   1       0.2042190000      1.0000000000
 P 2 
   1      12.2564993000      1.4910316311
   2       4.8922575000     -1.4908224419
 P 1 
   1       1.9265460000      1.0000000000
 P 1 
   1       0.7525989000     -1.0000000000
 P 1 
   1       0.2932189000     -1.0000000000
 D 3 
   1      28.4370504000     -1.0829567244
   2       7.2772298000      0.5502349187
   3       2.3111621000     -0.5567798939
 D 1 
   1       0.8580943000     -1.0000000000
 D 1 
   1       0.3376227000     -1.0000000000
 F 2 
   1       1.2035685000      0.5557691438
   2       0.4700000000      0.5557691438
 G 1 
   1       0.7521100000     -1.0000000000
  end;



           ************************************************************
           *        Program running with 6 parallel MPI-processes     *
           *              working on a common directory               *
           ************************************************************
------------------------------------------------------------------------------
                           ORCA GTO INTEGRAL CALCULATION
                           -- RI-GTO INTEGRALS CHOSEN --
------------------------------------------------------------------------------

                         BASIS SET STATISTICS AND STARTUP INFO

Gaussian basis set:
 # of primitive gaussian shells          ...   45
 # of primitive gaussian functions       ...   81
 # of contracted shells                  ...   23
 # of contracted basis functions         ...   47
 Highest angular momentum                ...    2
 Maximum contraction depth               ...    5
Auxiliary gaussian basis set:
 # of primitive gaussian shells          ...   75
 # of primitive gaussian functions       ...  195
 # of contracted shells                  ...   47
 # of contracted aux-basis functions     ...  133
 Highest angular momentum                ...    4
 Maximum contraction depth               ...    7
Ratio of auxiliary to basis functions    ...  2.83
Integral package used                  ... LIBINT
 One Electron integrals                  ... done
 Ordering auxiliary basis shells         ... done
 Integral threshhold             Thresh  ...  2.500e-11
 Primitive cut-off               TCut    ...  2.500e-12
 Pre-screening matrix                    ... done
 Shell pair data                         ... 
 Ordering of the shell pairs             ... done (   0.000 sec) 275 of 276 pairs
 Determination of significant pairs      ... done (   0.000 sec)
 Creation of shell pair data             ... done (   0.000 sec)
 Storage of shell pair data              ... done (   0.047 sec)
 Shell pair data done in (   0.047 sec)
 Computing two index integrals           ... done
 Cholesky decomposition of the V-matrix  ... done


Timings:
 Total evaluation time                   ...   0.201 sec (  0.003 min)
 One electron matrix time                ...   0.010 sec (  0.000 min) =  5.1%
 Schwartz matrix evaluation time         ...   0.114 sec (  0.002 min) = 56.7%
 Two index repulsion integral time       ...   0.001 sec (  0.000 min) =  0.3%
 Cholesky decomposition of V             ...   0.001 sec (  0.000 min) =  0.5%
 Three index repulsion integral time     ...   0.000 sec (  0.000 min) =  0.0%



           ************************************************************
           *        Program running with 6 parallel MPI-processes     *
           *              working on a common directory               *
           ************************************************************
-------------------------------------------------------------------------------
                                 ORCA SCF
-------------------------------------------------------------------------------

------------
SCF SETTINGS
------------
Hamiltonian:
 Density Functional     Method          .... DFT(GTOs)
 Exchange Functional    Exchange        .... PBE
   PBE kappa parameter   XKappa         ....  1.245000
   PBE mue parameter    XMuePBE         ....  0.219520
 Correlation Functional Correlation     .... PBE
   PBE beta parameter  CBetaPBE         ....  0.066725
 LDA part of GGA corr.  LDAOpt          .... PW91-LDA
 Gradients option       PostSCFGGA      .... off
   Density functional embedding theory  .... OFF
   NL short-range parameter             ....  3.700000
 RI-approximation to the Coulomb term is turned on
   Number of auxiliary basis functions  .... 133


General Settings:
 Integral files         IntName         .... CH3Cl
 Hartree-Fock type      HFTyp           .... RHF
 Total Charge           Charge          ....    0
 Multiplicity           Mult            ....    1
 Number of Electrons    NEL             ....   26
 Basis Dimension        Dim             ....   47
 Nuclear Repulsion      ENuc            ....     50.7153673265 Eh

Convergence Acceleration:
 DIIS                   CNVDIIS         .... on
   Start iteration      DIISMaxIt       ....    12
   Startup error        DIISStart       ....  0.200000
   # of expansion vecs  DIISMaxEq       ....     5
   Bias factor          DIISBfac        ....   1.050
   Max. coefficient     DIISMaxC        ....  10.000
 Newton-Raphson         CNVNR           .... off
 SOSCF                  CNVSOSCF        .... on
   Start iteration      SOSCFMaxIt      ....   150
   Startup grad/error   SOSCFStart      ....  0.003300
 Level Shifting         CNVShift        .... on
   Level shift para.    LevelShift      ....    0.2500
   Turn off err/grad.   ShiftErr        ....    0.0010
 Zerner damping         CNVZerner       .... off
 Static damping         CNVDamp         .... on
   Fraction old density DampFac         ....    0.7000
   Max. Damping (<1)    DampMax         ....    0.9800
   Min. Damping (>=0)   DampMin         ....    0.0000
   Turn off err/grad.   DampErr         ....    0.1000
 Fernandez-Rico         CNVRico         .... off

SCF Procedure:
 Maximum # iterations   MaxIter         ....   125
 SCF integral mode      SCFMode         .... Direct
   Integral package                     .... LIBINT
 Reset frequency        DirectResetFreq ....    20
 Integral Threshold     Thresh          ....  2.500e-11 Eh
 Primitive CutOff       TCut            ....  2.500e-12 Eh

Convergence Tolerance:
 Convergence Check Mode ConvCheckMode   .... Total+1el-Energy
 Convergence forced     ConvForced      .... 0
 Energy Change          TolE            ....  1.000e-08 Eh
 1-El. energy change                    ....  1.000e-05 Eh
 Orbital Gradient       TolG            ....  1.000e-05
 Orbital Rotation angle TolX            ....  1.000e-05
 DIIS Error             TolErr          ....  5.000e-07


Diagonalization of the overlap matrix:
Smallest eigenvalue                        ... 1.185e-02
Time for diagonalization                   ...    0.001 sec
Threshold for overlap eigenvalues          ... 1.000e-08
Number of eigenvalues below threshold      ... 0
Time for construction of square roots      ...    0.000 sec
Total time needed                          ...    0.002 sec

-------------------
DFT GRID GENERATION
-------------------

General Integration Accuracy     IntAcc      ...  4.670
Radial Grid Type                 RadialGrid  ... Gauss-Chebyshev
Angular Grid (max. acc.)         AngularGrid ... Lebedev-302
Angular grid pruning method      GridPruning ... 3 (G Style)
Weight generation scheme         WeightScheme... Becke
Basis function cutoff            BFCut       ...    1.0000e-11
Integration weight cutoff        WCut        ...    1.0000e-14
Grids for H and He will be reduced by one unit

# of grid points (after initial pruning)     ...  23132 (   0.0 sec)
# of grid points (after weights+screening)   ...  22601 (   0.0 sec)
nearest neighbour list constructed           ...    0.0 sec
Grid point re-assignment to atoms done       ...    0.0 sec
Grid point division into batches done        ...    0.1 sec
Reduced shell lists constructed in    0.2 sec

Total number of grid points                  ...    22601
Total number of batches                      ...      356
Average number of points per batch           ...       63
Average number of grid points per atom       ...     4520
Average number of shells per batch           ...    16.07 (69.85%)
Average number of basis functions per batch  ...    32.92 (70.04%)
Average number of large shells per batch     ...    15.07 (93.78%)
Average number of large basis fcns per batch ...    31.16 (94.67%)
Maximum spatial batch extension              ...  17.04, 17.04, 16.64 au
Average spatial batch extension              ...   0.68,  0.69,  0.67 au

Time for grid setup =    0.195 sec

------------------------------
INITIAL GUESS: MODEL POTENTIAL
------------------------------
Loading Hartree-Fock densities                     ... done
Calculating cut-offs                               ... done
Setting up the integral package                    ... done
Initializing the effective Hamiltonian             ... done
Starting the Coulomb interaction                   ... done (   0.0 sec)
Reading the grid                                   ... done
Mapping shells                                     ... done
Starting the XC term evaluation                    ... done (   0.1 sec)
  promolecular density results
     # of electrons  =     25.998461830
     EX              =    -33.499325278
     EC              =     -0.939833955
     EX+EC           =    -34.439159233
Transforming the Hamiltonian                       ... done (   0.0 sec)
Diagonalizing the Hamiltonian                      ... done (   0.0 sec)
Back transforming the eigenvectors                 ... done (   0.0 sec)
Now organizing SCF variables                       ... done
                      ------------------
                      INITIAL GUESS DONE (   0.5 sec)
                      ------------------
----------------------
INITIAL GUESS ORBITALS
----------------------
                      0         1         2         3         4         5   
                 -100.68625 -10.07346  -9.23024  -7.04722  -7.04570  -7.04570
                   2.00000   2.00000   2.00000   2.00000   2.00000   2.00000
                  --------  --------  --------  --------  --------  --------
  0C   1s         0.000037  0.987937  0.000228 -0.000095  0.000000 -0.000000
  0C   2s        -0.000438  0.050380 -0.001226  0.000455 -0.000000  0.000000
  0C   3s         0.002874 -0.038009  0.007133 -0.007350  0.000000  0.000000
  0C   1pz       -0.000021 -0.001291 -0.000249  0.000062 -0.000067  0.000109
  0C   1px        0.000021  0.001291  0.000249 -0.000062  0.000061  0.000112
  0C   1py        0.000021  0.001291  0.000249 -0.000062 -0.000128 -0.000004
  0C   2pz        0.000857  0.000395  0.002259 -0.001698  0.000771 -0.001253
  0C   2px       -0.000857 -0.000395 -0.002259  0.001698 -0.000700 -0.001295
  0C   2py       -0.000857 -0.000395 -0.002259  0.001698  0.001471  0.000041
  0C   1dz2       0.000000 -0.000000 -0.000000  0.000000  0.000005 -0.000009
  0C   1dxz       0.000077  0.000923  0.000381 -0.000513 -0.000002 -0.000000
  0C   1dyz       0.000077  0.000923  0.000381 -0.000513  0.000001  0.000002
  0C   1dx2y2     0.000000 -0.000000 -0.000000 -0.000000  0.000009  0.000005
  0C   1dxy      -0.000077 -0.000923 -0.000381  0.000513 -0.000001  0.000002
  1Cl  1s        -0.994039 -0.000025 -0.311438 -0.000594 -0.000000 -0.000000
  1Cl  2s        -0.022294  0.000267  1.019766  0.002329  0.000000  0.000000
  1Cl  3s         0.010227 -0.000870  0.053775 -0.003119 -0.000000  0.000000
  1Cl  4s        -0.007284  0.004625 -0.024315  0.006308  0.000000 -0.000000
  1Cl  1pz       -0.000054  0.000088  0.000750 -0.565802 -0.419504  0.681662
  1Cl  1px        0.000054 -0.000088 -0.000750  0.565802  0.380585  0.704132
  1Cl  1py        0.000054 -0.000088 -0.000750  0.565802 -0.800089 -0.022470
  1Cl  2pz       -0.000280  0.000190 -0.000904  0.030865  0.022357 -0.036328
  1Cl  2px        0.000280 -0.000190  0.000904 -0.030865 -0.020283 -0.037526
  1Cl  2py        0.000280 -0.000190  0.000904 -0.030865  0.042640  0.001198
  1Cl  3pz        0.001035 -0.000656  0.002637 -0.006683 -0.003492  0.005674
  1Cl  3px       -0.001035  0.000656 -0.002637  0.006683  0.003168  0.005861
  1Cl  3py       -0.001035  0.000656 -0.002637  0.006683 -0.006660 -0.000187
  1Cl  1dz2      -0.000000 -0.000000 -0.000000  0.000000  0.000006 -0.000010
  1Cl  1dxz       0.000140  0.000860  0.000191 -0.000050 -0.000004 -0.000000
  1Cl  1dyz       0.000140  0.000860  0.000191 -0.000050  0.000002  0.000003
  1Cl  1dx2y2    -0.000000 -0.000000  0.000000  0.000000  0.000010  0.000006
  1Cl  1dxy      -0.000140 -0.000860 -0.000191  0.000050 -0.000002  0.000003
  2H   1s        -0.000244 -0.003593 -0.000600  0.000626  0.000482  0.000014
  2H   2s        -0.000066  0.008011  0.000031  0.000522  0.000185  0.000005
  2H   1pz       -0.000019 -0.001565 -0.000007  0.000077 -0.000132  0.000152
  2H   1px        0.000019  0.001565  0.000007 -0.000077  0.000123  0.000159
  2H   1py        0.000052 -0.001704  0.000087  0.000020  0.000072  0.000002
  3H   1s        -0.000244 -0.003593 -0.000600  0.000626 -0.000229 -0.000424
  3H   2s        -0.000066  0.008011  0.000031  0.000522 -0.000088 -0.000163
  3H   1pz       -0.000019 -0.001565 -0.000007  0.000077 -0.000076  0.000186
  3H   1px        0.000052 -0.001704  0.000087  0.000020 -0.000034 -0.000063
  3H   1py        0.000019  0.001565  0.000007 -0.000077 -0.000197 -0.000038
  4H   1s        -0.000244 -0.003593 -0.000600  0.000626 -0.000253  0.000411
  4H   2s        -0.000066  0.008011  0.000031  0.000522 -0.000097  0.000158
  4H   1pz       -0.000052  0.001704 -0.000087 -0.000020  0.000037 -0.000061
  4H   1px        0.000019  0.001565  0.000007 -0.000077  0.000065  0.000190
  4H   1py        0.000019  0.001565  0.000007 -0.000077 -0.000199  0.000027
                      6         7         8         9        10        11   
                  -0.83256  -0.69019  -0.47969  -0.47969  -0.43455  -0.31432
                   2.00000   2.00000   2.00000   2.00000   2.00000   2.00000
                  --------  --------  --------  --------  --------  --------
  0C   1s        -0.155772  0.210279  0.000000  0.000000 -0.014700 -0.000000
  0C   2s         0.324427 -0.451004 -0.000000 -0.000000  0.037733  0.000000
  0C   3s         0.044125 -0.105763  0.000000  0.000000  0.022148 -0.000000
  0C   1pz        0.044073  0.073993 -0.348008  0.167852  0.232735 -0.087481
  0C   1px       -0.044073 -0.073993 -0.319368 -0.217458 -0.232735 -0.098425
  0C   1py       -0.044073 -0.073993 -0.028640  0.385310 -0.232735  0.010943
  0C   2pz        0.006631  0.020966 -0.137574  0.066355  0.094438 -0.018001
  0C   2px       -0.006631 -0.020966 -0.126252 -0.085965 -0.094438 -0.020253
  0C   2py       -0.006631 -0.020966 -0.011322  0.152320 -0.094438  0.002252
  0C   1dz2       0.000000  0.000000 -0.002359  0.001138 -0.000000  0.011102
  0C   1dxz      -0.006655 -0.003228 -0.000863  0.011612 -0.011407  0.001465
  0C   1dyz      -0.006655 -0.003228 -0.009625 -0.006553 -0.011407 -0.013175
  0C   1dx2y2     0.000000 -0.000000  0.001138  0.002359  0.000000 -0.008013
  0C   1dxy       0.006655  0.003228 -0.010488  0.005058  0.011407 -0.011711
  1Cl  1s         0.070453  0.051000  0.000000  0.000000 -0.019349  0.000000
  1Cl  2s        -0.439152 -0.321904 -0.000000 -0.000000  0.123793 -0.000000
  1Cl  3s         0.594088  0.455489  0.000000  0.000000 -0.163552  0.000000
  1Cl  4s         0.293933  0.221556 -0.000000 -0.000000 -0.186024 -0.000000
  1Cl  1pz       -0.026313  0.018936 -0.050235  0.024229 -0.126080  0.185079
  1Cl  1px        0.026313 -0.018936 -0.046101 -0.031390  0.126080  0.208231
  1Cl  1py        0.026313 -0.018936 -0.004134  0.055619  0.126080 -0.023152
  1Cl  2pz       -0.042672  0.029279 -0.085162  0.041075 -0.219949  0.322600
  1Cl  2px        0.042672 -0.029279 -0.078153 -0.053214  0.219949  0.362954
  1Cl  2py        0.042672 -0.029279 -0.007009  0.094290  0.219949 -0.040355
  1Cl  3pz       -0.040617  0.035383 -0.094544  0.045600 -0.226136  0.418539
  1Cl  3px        0.040617 -0.035383 -0.086763 -0.059077  0.226136  0.470895
  1Cl  3py        0.040617 -0.035383 -0.007781  0.104678  0.226136 -0.052356
  1Cl  1dz2       0.000000  0.000000  0.021104 -0.010179 -0.000000 -0.003481
  1Cl  1dxz      -0.014936  0.007226 -0.001154  0.015531 -0.024952 -0.000131
  1Cl  1dyz      -0.014936  0.007226 -0.012873 -0.008765 -0.024952  0.001175
  1Cl  1dx2y2    -0.000000  0.000000 -0.010179 -0.021104  0.000000  0.002513
  1Cl  1dxy       0.014936 -0.007226 -0.014027  0.006766  0.024952  0.001044
  2H   1s         0.081473 -0.175940  0.025660 -0.345212 -0.090640 -0.015723
  2H   2s         0.009713 -0.021976  0.005121 -0.068890 -0.026704 -0.006235
  2H   1pz        0.007132 -0.010120 -0.008552 -0.011803  0.001502 -0.003746
  2H   1px       -0.007132  0.010120 -0.010203  0.010409 -0.001502 -0.003523
  2H   1py        0.006132 -0.014081  0.000400 -0.005383 -0.010722 -0.000561
  3H   1s         0.081473 -0.175940  0.286132  0.194828 -0.090640  0.141415
  3H   2s         0.009713 -0.021976  0.057100  0.038880 -0.026704  0.056081
  3H   1pz        0.007132 -0.010120  0.003913  0.014041  0.001502 -0.000490
  3H   1px        0.006132 -0.014081  0.004461  0.003038 -0.010722  0.005047
  3H   1py       -0.007132  0.010120 -0.014498  0.001504 -0.001502 -0.002503
  4H   1s         0.081473 -0.175940 -0.311792  0.150384 -0.090640 -0.125692
  4H   2s         0.009713 -0.021976 -0.062221  0.030011 -0.026704 -0.049846
  4H   1pz       -0.006132  0.014081  0.004862 -0.002345  0.010722  0.004486
  4H   1px       -0.007132  0.010120  0.005946 -0.013308 -0.001502 -0.001244
  4H   1py       -0.007132  0.010120  0.014116  0.003631 -0.001502  0.003033
                     12        13        14        15        16        17   
                  -0.31432  -0.05837   0.01318   0.05106   0.05106   0.31881
                   2.00000   0.00000   0.00000   0.00000   0.00000   0.00000
                  --------  --------  --------  --------  --------  --------
  0C   1s         0.000000 -0.130056  0.140604  0.000000  0.000000  0.079129
  0C   2s        -0.000000  0.335668 -0.338161 -0.000000  0.000000 -0.540917
  0C   3s         0.000000  0.857418 -2.001577  0.000000 -0.000000  1.114460
  0C   1pz        0.063144  0.284617  0.143185 -0.318313 -0.174176 -0.376457
  0C   1px       -0.044189 -0.284617 -0.143185 -0.008315 -0.362755  0.376457
  0C   1py        0.107333 -0.284617 -0.143185 -0.309998  0.188579  0.376457
  0C   2pz        0.012993  0.368087  0.329659 -0.801209 -0.438411  0.797358
  0C   2px       -0.009093 -0.368087 -0.329659 -0.020930 -0.913073 -0.797358
  0C   2py        0.022086 -0.368087 -0.329659 -0.780279  0.474662 -0.797358
  0C   1dz2      -0.008013 -0.000000  0.000000  0.002058  0.001126 -0.000000
  0C   1dxz       0.014368  0.017318  0.014941  0.026208 -0.015943  0.047510
  0C   1dyz      -0.005915  0.017318  0.014941  0.000703  0.030668  0.047510
  0C   1dx2y2    -0.011102  0.000000 -0.000000  0.001126 -0.002058  0.000000
  0C   1dxy       0.008453 -0.017318 -0.014941  0.026911  0.014725 -0.047510
  1Cl  1s         0.000000 -0.023645 -0.010181  0.000000 -0.000000 -0.015141
  1Cl  2s        -0.000000  0.156901  0.070519 -0.000000  0.000000  0.112556
  1Cl  3s         0.000000 -0.211008 -0.172371  0.000000 -0.000000 -0.339586
  1Cl  4s        -0.000000 -0.558761 -0.001065 -0.000000  0.000000 -0.490394
  1Cl  1pz       -0.133589  0.113328  0.015205  0.011798  0.006456 -0.014080
  1Cl  1px        0.093489 -0.113328 -0.015205  0.000308  0.013445  0.014080
  1Cl  1py       -0.227077 -0.113328 -0.015205  0.011489 -0.006989  0.014080
  1Cl  2pz       -0.232851  0.194016  0.030358  0.015888  0.008694 -0.024671
  1Cl  2px        0.162954 -0.194016 -0.030358  0.000415  0.018106  0.024671
  1Cl  2py       -0.395805 -0.194016 -0.030358  0.015473 -0.009413  0.024671
  1Cl  3pz       -0.302099  0.482794  0.054117  0.091057  0.049825  0.234288
  1Cl  3px        0.211416 -0.482794 -0.054117  0.002379  0.103771 -0.234288
  1Cl  3py       -0.513515 -0.482794 -0.054117  0.088679 -0.053945 -0.234288
  1Cl  1dz2       0.002513  0.000000 -0.000000  0.057593  0.031514  0.000000
  1Cl  1dxz      -0.001281 -0.065235  0.009868 -0.009114  0.005544  0.183266
  1Cl  1dyz       0.000527 -0.065235  0.009868 -0.000244 -0.010665  0.183266
  1Cl  1dx2y2     0.003481  0.000000  0.000000  0.031514 -0.057593 -0.000000
  1Cl  1dxy      -0.000754  0.065235 -0.009868 -0.009359 -0.005121 -0.183266
  2H   1s        -0.154214 -0.007146  0.112364 -0.219765  0.133688  0.243162
  2H   2s        -0.061157 -0.191695  1.070132 -1.413258  0.859718 -0.241119
  2H   1pz       -0.000727  0.008880 -0.004600  0.003913 -0.017756  0.007385
  2H   1px        0.001468 -0.008880  0.004600 -0.017567 -0.004689 -0.007385
  2H   1py       -0.005504 -0.014099 -0.017099  0.007549 -0.004592 -0.012874
  3H   1s         0.063490 -0.007146  0.112364 -0.005895 -0.257167  0.243162
  3H   2s         0.025178 -0.191695  1.070132 -0.037908 -1.653776 -0.241119
  3H   1pz        0.003785  0.008880 -0.004600 -0.012844  0.012869  0.007385
  3H   1px        0.002266 -0.014099 -0.017099  0.000203  0.008834 -0.012874
  3H   1py        0.002881 -0.008880  0.004600 -0.013420 -0.012267 -0.007385
  4H   1s         0.090723 -0.007146  0.112364  0.225660  0.123478  0.243162
  4H   2s         0.035978 -0.191695  1.070132  1.451166  0.794058 -0.241119
  4H   1pz       -0.003238  0.014099  0.017099  0.007752  0.004242  0.012874
  4H   1px       -0.003608 -0.008880  0.004600  0.017333 -0.005489 -0.007385
  4H   1py        0.002317 -0.008880  0.004600  0.004723  0.017558 -0.007385
                     18        19        20        21        22        23   
                   0.32389   0.32389   0.42862   0.52296   0.52798   0.52798
                   0.00000   0.00000   0.00000   0.00000   0.00000   0.00000
                  --------  --------  --------  --------  --------  --------
  0C   1s         0.000000  0.000000  0.076273  0.228978 -0.000000  0.000000
  0C   2s        -0.000000 -0.000000 -0.279660 -1.527330  0.000000 -0.000000
  0C   3s         0.000000  0.000000  0.573887  3.962667 -0.000000  0.000000
  0C   1pz       -0.143117  0.179831  0.059440  0.297070 -0.629131 -0.371862
  0C   1px       -0.227297 -0.034027 -0.059440 -0.297070  0.007476 -0.730775
  0C   1py        0.084180  0.213858 -0.059440 -0.297070 -0.636608  0.358913
  0C   2pz        0.533025 -0.669764  0.276899 -0.662950  1.205824  0.712729
  0C   2px        0.846546  0.126731 -0.276899  0.662950 -0.014330  1.400639
  0C   2py       -0.313520 -0.796496 -0.276899  0.662950  1.220154 -0.687910
  0C   1dz2       0.001426 -0.001792  0.000000 -0.000000  0.006256  0.003698
  0C   1dxz       0.032378  0.082256  0.018654  0.029595  0.084410 -0.047590
  0C   1dyz      -0.087425 -0.013088  0.018654  0.029595 -0.000991  0.096896
  0C   1dx2y2    -0.001792 -0.001426 -0.000000 -0.000000  0.003698 -0.006256
  0C   1dxy      -0.055047  0.069169 -0.018654 -0.029595  0.083419  0.049307
  1Cl  1s        -0.000000 -0.000000  0.064273 -0.024457  0.000000 -0.000000
  1Cl  2s         0.000000  0.000000 -0.477686  0.183805 -0.000000  0.000000
  1Cl  3s        -0.000000 -0.000000  1.844440 -0.734291  0.000000 -0.000000
  1Cl  4s        -0.000000 -0.000000 -2.069547  0.793297 -0.000000  0.000000
  1Cl  1pz       -0.032257  0.040532  0.024633 -0.022593  0.014758  0.008723
  1Cl  1px       -0.051230 -0.007669 -0.024633  0.022593 -0.000175  0.017142
  1Cl  1py        0.018973  0.048201 -0.024633  0.022593  0.014933 -0.008419
  1Cl  2pz       -0.070260  0.088284  0.060557 -0.060991  0.053009  0.031332
  1Cl  2px       -0.111586 -0.016705 -0.060557  0.060991 -0.000630  0.061573
  1Cl  2py        0.041326  0.104989 -0.060557  0.060991  0.053639 -0.030241
  1Cl  3pz       -0.103487  0.130035  0.107871 -0.001987 -0.144270 -0.085274
  1Cl  3px       -0.164357 -0.024605 -0.107871  0.001987  0.001714 -0.167579
  1Cl  3py        0.060870  0.154640 -0.107871  0.001987 -0.145985  0.082305
  1Cl  1dz2      -0.127449  0.160144 -0.000000  0.000000 -0.157455 -0.093067
  1Cl  1dxz      -0.037025 -0.094062 -0.047425  0.029411 -0.047116  0.026564
  1Cl  1dyz       0.099973  0.014966 -0.047425  0.029411  0.000553 -0.054086
  1Cl  1dx2y2     0.160144  0.127449  0.000000 -0.000000 -0.093067  0.157455
  1Cl  1dxy       0.062948 -0.079096  0.047425 -0.029411 -0.046563 -0.027522
  2H   1s        -0.285727 -0.725887  0.415375  0.293636 -0.468936  0.264381
  2H   2s         0.111407  0.283028 -0.210888 -1.418909  1.632360 -0.920307
  2H   1pz        0.037176 -0.015909 -0.024076 -0.041568  0.058064 -0.073331
  2H   1px        0.038046 -0.013700  0.024076  0.041568 -0.092798  0.011724
  2H   1py       -0.006214 -0.015787 -0.036683 -0.063900  0.054209 -0.030562
  3H   1s         0.771500  0.115497  0.415375  0.293637  0.005507 -0.538301
  3H   2s        -0.300813 -0.045033 -0.210888 -1.418909 -0.019171  1.873818
  3H   1pz        0.007158 -0.039799 -0.024076 -0.041568 -0.036246  0.086227
  3H   1px        0.016779  0.002512 -0.036683 -0.063900 -0.000637  0.062227
  3H   1py        0.004810 -0.040150  0.024076  0.041568 -0.034474 -0.086951
  4H   1s        -0.485773  0.610390  0.415375  0.293636  0.463429  0.273920
  4H   2s         0.189406 -0.237995 -0.210888 -1.418909 -1.613189 -0.953512
  4H   1pz        0.010565 -0.013275  0.036683  0.063900  0.053572  0.031665
  4H   1px        0.032366  0.024241  0.024076  0.041568  0.092539  0.013620
  4H   1py       -0.030888 -0.026099  0.024076  0.041568  0.056552  0.074503
                     24        25        26        27        28        29   
                   0.65336   0.65336   0.67216   0.68123   0.68123   0.68707
                   0.00000   0.00000   0.00000   0.00000   0.00000   0.00000
                  --------  --------  --------  --------  --------  --------
  0C   1s        -0.000000 -0.000000  0.162522 -0.000000 -0.000000  0.002660
  0C   2s         0.000000  0.000000 -1.615392  0.000000  0.000000 -0.506506
  0C   3s        -0.000000 -0.000000  4.866533 -0.000000 -0.000000  1.848266
  0C   1pz        0.000189 -0.000012 -0.221875  0.176403 -0.097679  0.114002
  0C   1px        0.000084 -0.000169  0.221875  0.003609 -0.201609 -0.114002
  0C   1py        0.000104  0.000158  0.221875  0.172794  0.103930 -0.114002
  0C   2pz       -0.147989  0.009139  0.406479 -0.575629  0.318740 -0.263504
  0C   2px       -0.066080  0.132731 -0.406479 -0.011777  0.657880  0.263504
  0C   2py       -0.081909 -0.123592 -0.406479 -0.563852 -0.339139  0.263504
  0C   1dz2       0.136547 -0.008433  0.000000  0.109058 -0.060388  0.000000
  0C   1dxz       0.006378  0.009623 -0.058540 -0.025486 -0.015329  0.074310
  0C   1dyz       0.005145 -0.010335 -0.058540 -0.000532  0.029736  0.074310
  0C   1dx2y2     0.008433  0.136547  0.000000  0.060388  0.109058 -0.000000
  0C   1dxy       0.011523 -0.000712  0.058540 -0.026019  0.014407 -0.074310
  1Cl  1s         0.000000 -0.000000  0.012353 -0.000000 -0.000000  0.011338
  1Cl  2s        -0.000000  0.000000 -0.100029  0.000000  0.000000 -0.085758
  1Cl  3s         0.000000 -0.000000  0.691652 -0.000000 -0.000000  0.365283
  1Cl  4s        -0.000000  0.000000 -1.986543  0.000000  0.000000 -0.454092
  1Cl  1pz        0.035343 -0.002183 -0.002033  0.051626 -0.028587  0.154729
  1Cl  1px        0.015781 -0.031699  0.002033  0.001056 -0.059003 -0.154729
  1Cl  1py        0.019562  0.029516  0.002033  0.050570  0.030416 -0.154729
  1Cl  2pz        0.111802 -0.006904 -0.039885  0.160597 -0.088927  0.491764
  1Cl  2px        0.049921 -0.100275  0.039885  0.003286 -0.183545 -0.491764
  1Cl  2py        0.061880  0.093371  0.039885  0.157312  0.094618 -0.491764
  1Cl  3pz       -0.068963  0.004259  0.552566 -0.069794  0.038647 -0.359668
  1Cl  3px       -0.030793  0.061853 -0.552566 -0.001428  0.079767  0.359668
  1Cl  3py       -0.038170 -0.057594 -0.552566 -0.068366 -0.041120  0.359668
  1Cl  1dz2      -0.055101  0.003403 -0.000000 -0.793652  0.439465  0.000000
  1Cl  1dxz       0.428518  0.646590 -0.237963 -0.104235 -0.062694  0.315861
  1Cl  1dyz       0.345704 -0.694402 -0.237963 -0.002177  0.121617  0.315861
  1Cl  1dx2y2    -0.003403 -0.055101 -0.000000 -0.439465 -0.793652  0.000000
  1Cl  1dxy       0.774222 -0.047813  0.237963 -0.106412  0.058923 -0.315861
  2H   1s        -0.079882 -0.120534 -0.494996 -0.050966 -0.030654 -0.353657
  2H   2s         0.027079  0.040860 -0.744232 -0.516165 -0.310457 -0.378234
  2H   1pz       -0.069459  0.021397 -0.010038 -0.060357  0.054078  0.032734
  2H   1px       -0.046770  0.055632  0.010038 -0.019482  0.078662 -0.032734
  2H   1py        0.021584  0.032568  0.030259  0.005536  0.003330 -0.010603
  3H   1s        -0.064444  0.129447 -0.494996 -0.001065  0.059465 -0.353657
  3H   2s         0.021846 -0.043881 -0.744232 -0.010781  0.602240 -0.378234
  3H   1pz       -0.071564 -0.012688 -0.010038 -0.077865  0.022459  0.032734
  3H   1px        0.017413 -0.034976  0.030259  0.000116 -0.006459 -0.010603
  3H   1py       -0.053259 -0.049455  0.010038 -0.077011 -0.025232 -0.032734
  4H   1s         0.144327 -0.008913 -0.494996  0.052030 -0.028810 -0.353657
  4H   2s        -0.048925  0.003021 -0.744232  0.526946 -0.291783 -0.378234
  4H   1pz        0.038996 -0.002408 -0.030259  0.005652 -0.003129  0.010603
  4H   1px       -0.016199  0.070851  0.010038  0.016654  0.079309 -0.032734
  4H   1py       -0.024794 -0.068320  0.010038 -0.058382 -0.056203 -0.032734
                     30        31        32        33        34        35   
                   0.79563   0.79563   1.10899   1.10899   1.17485   1.35819
                   0.00000   0.00000   0.00000   0.00000   0.00000   0.00000
                  --------  --------  --------  --------  --------  --------
  0C   1s        -0.000000  0.000000 -0.000000  0.000000 -0.030827  0.000000
  0C   2s         0.000000 -0.000000  0.000000 -0.000000 -0.319497 -0.000000
  0C   3s        -0.000000  0.000000  0.000000  0.000000  2.800417  0.000000
  0C   1pz       -0.001474  0.005561  0.034728 -0.016083  0.179063 -0.000000
  0C   1px       -0.005553  0.001504  0.003436 -0.038117 -0.179063  0.000000
  0C   1py        0.004079  0.004057  0.031292  0.022034 -0.179063 -0.000000
  0C   2pz       -0.050575  0.190763 -0.408667  0.189260  0.346420 -0.000000
  0C   2px       -0.190493  0.051582 -0.040429  0.448546 -0.346420  0.000000
  0C   2py        0.139918  0.139180 -0.368238 -0.259286 -0.346420  0.000000
  0C   1dz2       0.038881 -0.146655 -0.329809  0.152740  0.000000 -0.000000
  0C   1dxz      -0.011080 -0.011021  0.023625  0.016635  0.043541  0.000000
  0C   1dyz       0.015084 -0.004085  0.002594 -0.028777  0.043541  0.000000
  0C   1dx2y2    -0.146655 -0.038881 -0.152740 -0.329809  0.000000  0.000000
  0C   1dxy       0.004005 -0.015106  0.026219 -0.012142 -0.043541 -0.000000
  1Cl  1s        -0.000000  0.000000  0.000000  0.000000  0.024728  0.000000
  1Cl  2s         0.000000 -0.000000 -0.000000 -0.000000 -0.199422 -0.000000
  1Cl  3s        -0.000000  0.000000  0.000000  0.000000  1.158517  0.000000
  1Cl  4s         0.000000 -0.000000 -0.000000 -0.000000 -2.210839 -0.000000
  1Cl  1pz       -0.074679  0.281683 -0.093131  0.043131 -0.163948 -0.000000
  1Cl  1px       -0.281284  0.076167 -0.009213  0.102219  0.163948 -0.000000
  1Cl  1py        0.206605  0.205515 -0.083918 -0.059089  0.163948  0.000000
  1Cl  2pz       -0.244608  0.922636 -0.338352  0.156696 -0.628273 -0.000000
  1Cl  2px       -0.921330  0.249482 -0.033473  0.371370  0.628273 -0.000000
  1Cl  2py        0.676723  0.673155 -0.304879 -0.214673  0.628273  0.000000
  1Cl  3pz        0.222444 -0.839038  0.430003 -0.199141  1.130710  0.000000
  1Cl  3px        0.837850 -0.226877  0.042540 -0.471964 -1.130710  0.000000
  1Cl  3py       -0.615406 -0.612161  0.387463  0.272823 -1.130710 -0.000000
  1Cl  1dz2      -0.021074  0.079490 -0.256299  0.118696  0.000000 -0.000000
  1Cl  1dxz       0.004784  0.004759  0.152330  0.107259  0.344896 -0.000000
  1Cl  1dyz      -0.006513  0.001764  0.016724 -0.185551  0.344896 -0.000000
  1Cl  1dx2y2     0.079490  0.021074 -0.118696 -0.256299  0.000000 -0.000000
  1Cl  1dxy      -0.001729  0.006522  0.169054 -0.078292 -0.344896  0.000000
  2H   1s         0.088040  0.087576 -0.134446 -0.094667 -0.353423 -0.000000
  2H   2s        -0.042268 -0.042045 -0.154636 -0.108883 -0.277436 -0.000000
  2H   1pz       -0.019435  0.129385  0.254657  0.005501  0.050255  0.419295
  2H   1px       -0.129280  0.020119 -0.091020 -0.237899 -0.050255  0.419295
  2H   1py       -0.086209 -0.085754 -0.353566 -0.248955 -0.013047 -0.000000
  3H   1s        -0.119863  0.032457 -0.014761  0.163767 -0.353423 -0.000000
  3H   2s         0.057546 -0.015582 -0.016978  0.188360 -0.277436 -0.000000
  3H   1pz       -0.047217  0.122019  0.160517 -0.197775  0.050255 -0.419295
  3H   1px        0.117369 -0.031782 -0.038818  0.430674 -0.013047  0.000000
  3H   1py        0.102333  0.081524  0.122564  0.223290 -0.050255 -0.419295
  4H   1s         0.031823 -0.120032  0.149207 -0.069100 -0.353423  0.000000
  4H   2s        -0.015278  0.057627  0.171613 -0.079477 -0.277436 -0.000000
  4H   1pz        0.031161 -0.117536 -0.392384  0.181719  0.013047  0.000000
  4H   1px       -0.121768  0.047861  0.132093 -0.217789 -0.050255 -0.419295
  4H   1py        0.082064  0.101901  0.251537  0.040124 -0.050255  0.419295
                     36        37        38        39        40        41   
                   1.56205   1.56205   1.71300   1.77455   1.77455   2.00615
                   0.00000   0.00000   0.00000   0.00000   0.00000   0.00000
                  --------  --------  --------  --------  --------  --------
  0C   1s         0.000000 -0.000000 -0.047512  0.000000 -0.000000  0.096592
  0C   2s        -0.000000  0.000000  0.009947  0.000000 -0.000000 -0.503629
  0C   3s         0.000000 -0.000000  1.487764 -0.000000  0.000000 -0.697909
  0C   1pz       -0.157665  0.093001  0.068106 -0.293381 -0.173318  0.132791
  0C   1px        0.001708  0.183042 -0.068106  0.003407 -0.340735 -0.132791
  0C   1py       -0.159374 -0.090042 -0.068106 -0.296789  0.167417 -0.132791
  0C   2pz        0.797249 -0.470267  0.895318 -0.326183 -0.192696  0.195936
  0C   2px       -0.008639 -0.925571 -0.895318  0.003788 -0.378831 -0.195936
  0C   2py        0.805888  0.455304 -0.895318 -0.329971  0.186135 -0.195936
  0C   1dz2       0.119919 -0.070736 -0.000000 -0.231931 -0.137016 -0.000000
  0C   1dxz       0.193931  0.109566 -0.270731  0.355145 -0.200335  0.419115
  0C   1dyz      -0.002079 -0.222732 -0.270731 -0.004077  0.407732  0.419115
  0C   1dx2y2     0.070736  0.119919 -0.000000 -0.137016  0.231931  0.000000
  0C   1dxy       0.191852 -0.113166  0.270731  0.351067  0.207397 -0.419115
  1Cl  1s         0.000000 -0.000000  0.000732 -0.000000  0.000000  0.003394
  1Cl  2s        -0.000000  0.000000 -0.018973  0.000000 -0.000000 -0.020542
  1Cl  3s         0.000000 -0.000000  0.508309 -0.000000  0.000000 -0.039090
  1Cl  4s        -0.000000  0.000000 -1.839754  0.000000 -0.000000  0.094985
  1Cl  1pz        0.020281 -0.011963  0.004278  0.001588  0.000938 -0.014271
  1Cl  1px       -0.000220 -0.023546 -0.004278 -0.000018  0.001844  0.014271
  1Cl  1py        0.020501  0.011583 -0.004278  0.001606 -0.000906  0.014271
  1Cl  2pz        0.090754 -0.053533 -0.060272 -0.011255 -0.006649 -0.014865
  1Cl  2px       -0.000983 -0.105362  0.060272  0.000131 -0.013072  0.014865
  1Cl  2py        0.091738  0.051829  0.060272 -0.011386  0.006423  0.014865
  1Cl  3pz       -0.234266  0.138184  0.686884  0.083318  0.049221 -0.090499
  1Cl  3px        0.002538  0.271972 -0.686884 -0.000968  0.096766  0.090499
  1Cl  3py       -0.236804 -0.133788 -0.686884  0.084286 -0.047545  0.090499
  1Cl  1dz2       0.136720 -0.080646 -0.000000 -0.155204 -0.091688 -0.000000
  1Cl  1dxz      -0.078970 -0.044616  0.290178  0.060388 -0.034065 -0.147724
  1Cl  1dyz       0.000847  0.090698  0.290178 -0.000693  0.069330 -0.147724
  1Cl  1dx2y2     0.080646  0.136720 -0.000000 -0.091688  0.155204  0.000000
  1Cl  1dxy      -0.078124  0.046082 -0.290178  0.059695  0.035265  0.147724
  2H   1s         0.411449  0.232457  0.005149  0.008480 -0.004783  0.132768
  2H   2s         0.226193  0.127793 -0.075775 -0.458327  0.258539  0.255962
  2H   1pz       -0.231649  0.316458 -0.314542 -0.275389  0.461127 -0.007663
  2H   1px       -0.151511  0.361734  0.314542  0.537093  0.002810  0.007663
  2H   1py       -0.469546 -0.265280  0.338271  0.027279 -0.015388  0.578151
  3H   1s        -0.004411 -0.472554  0.005149 -0.000097  0.009735  0.132768
  3H   2s        -0.002425 -0.259786 -0.075775  0.005262 -0.526192  0.255962
  3H   1pz       -0.389026  0.049655 -0.314542  0.270981 -0.463731 -0.007663
  3H   1px        0.005033  0.539279  0.338271 -0.000313  0.031318  0.578151
  3H   1py       -0.389885 -0.042385  0.314542  0.261653  0.469057  0.007663
  4H   1s        -0.407038  0.240097  0.005149 -0.008382 -0.004952  0.132768
  4H   2s        -0.223769  0.131993 -0.075775  0.453065  0.267653  0.255962
  4H   1pz       -0.464513  0.273999 -0.338271  0.026966  0.015930 -0.578151
  4H   1px        0.158236  0.358843  0.314542 -0.537042 -0.007931  0.007663
  4H   1py       -0.237516 -0.312079  0.314542 -0.266113 -0.466542  0.007663
                     42        43        44        45        46   
                   2.21521   2.21521   2.48155   2.67995   2.67995
                   0.00000   0.00000   0.00000   0.00000   0.00000
                  --------  --------  --------  --------  --------
  0C   1s         0.000000  0.000000 -0.233140 -0.000000 -0.000000
  0C   2s        -0.000000 -0.000000  1.393536  0.000000  0.000000
  0C   3s         0.000000  0.000000  0.829223  0.000000 -0.000000
  0C   1pz        0.130932 -0.066349 -0.305668  0.812477 -0.258114
  0C   1px        0.008006 -0.146565  0.305668  0.182705 -0.832682
  0C   1py        0.122926  0.080216  0.305668  0.629771  0.574568
  0C   2pz        0.353297 -0.179032 -0.213909  0.593592 -0.188577
  0C   2px        0.021602 -0.395480  0.213909  0.133484 -0.608355
  0C   2py        0.331695  0.216448  0.213909  0.460109  0.419778
  0C   1dz2      -0.893727  0.452893 -0.000000  0.070213 -0.022306
  0C   1dxz      -0.048286 -0.031509  0.499920  0.803855  0.733393
  0C   1dyz      -0.003145  0.057571  0.499920  0.233209 -1.062855
  0C   1dx2y2    -0.452893 -0.893727 -0.000000  0.022306  0.070213
  0C   1dxy      -0.051431  0.026062 -0.499920  1.037064 -0.329463
  1Cl  1s         0.000000  0.000000  0.001659  0.000000 -0.000000
  1Cl  2s        -0.000000 -0.000000 -0.008186 -0.000000  0.000000
  1Cl  3s         0.000000  0.000000 -0.073181  0.000000 -0.000000
  1Cl  4s        -0.000000 -0.000000  0.228201 -0.000000  0.000000
  1Cl  1pz        0.007012 -0.003553 -0.012544 -0.001451  0.000461
  1Cl  1px        0.000429 -0.007849  0.012544 -0.000326  0.001487
  1Cl  1py        0.006583  0.004296  0.012544 -0.001124 -0.001026
  1Cl  2pz        0.019479 -0.009871 -0.017053 -0.003510  0.001115
  1Cl  2px        0.001191 -0.021805  0.017053 -0.000789  0.003597
  1Cl  2py        0.018288  0.011934  0.017053 -0.002721 -0.002482
  1Cl  3pz       -0.036858  0.018677 -0.087954 -0.057065  0.018129
  1Cl  3px       -0.002254  0.041258  0.087954 -0.012833  0.058484
  1Cl  3py       -0.034604 -0.022581  0.087954 -0.044233 -0.040356
  1Cl  1dz2      -0.032703  0.016572  0.000000  0.013363 -0.004245
  1Cl  1dxz       0.037660  0.024575 -0.090975 -0.010343 -0.009437
  1Cl  1dyz       0.002453 -0.044902 -0.090975 -0.003001  0.013676
  1Cl  1dx2y2    -0.016572 -0.032703 -0.000000  0.004245  0.013363
  1Cl  1dxy       0.040113 -0.020327  0.090975 -0.013344  0.004239
  2H   1s         0.124936  0.081527 -0.623034  0.786140  0.717230
  2H   2s         0.256294  0.167245 -0.328570  0.390993  0.356720
  2H   1pz       -0.310493  0.352776 -0.509486  0.517424  0.431409
  2H   1px       -0.197873  0.426267  0.509486 -0.476935 -0.475788
  2H   1py        0.339382  0.221465 -0.427805  0.499826  0.456013
  3H   1s         0.008137 -0.148961 -0.623034  0.228070 -1.039432
  3H   2s         0.016692 -0.305580 -0.328570  0.113432 -0.516970
  3H   1pz       -0.468094  0.041770 -0.509486  0.173577 -0.650932
  3H   1px        0.022103 -0.404646 -0.427805  0.145006 -0.660868
  3H   1py       -0.460760 -0.092507  0.509486 -0.114899  0.663807
  4H   1s        -0.133072  0.067434 -0.623034 -1.014210  0.322202
  4H   2s        -0.272986  0.138334 -0.328570 -0.504425  0.160250
  4H   1pz        0.361485 -0.183181  0.427805  0.644832 -0.204855
  4H   1px        0.150266  0.445283  0.509486  0.632323 -0.232398
  4H   1py       -0.270221 -0.384496  0.509486  0.650512 -0.175143
--------------
SCF ITERATIONS
--------------
               ***  Starting incremental Fock matrix formation  ***

                         ----------------------------
                         !        ITERATION     0   !
                         ----------------------------
   Total Energy        :    -499.812251028802 Eh
   Energy Change       :    -499.812251028802 Eh
   MAX-DP              :       0.045903131185
   RMS-DP              :       0.002288904795
   Actual Damping      :       0.7000
   Actual Level Shift  :       0.2500 Eh
   Int. Num. El.       :    25.99994684 (UP=   12.99997342 DN=   12.99997342)
   Exchange            :   -33.83608749
   Correlation         :    -0.95258222


                         ----------------------------
                         !        ITERATION     1   !
                         ----------------------------
   Total Energy        :    -499.822578258665 Eh
   Energy Change       :      -0.010327229863 Eh
   MAX-DP              :       0.025227036139
   RMS-DP              :       0.001667792577
   Actual Damping      :       0.7000
   Actual Level Shift  :       0.2500 Eh
   Int. Num. El.       :    25.99994367 (UP=   12.99997184 DN=   12.99997184)
   Exchange            :   -33.78102048
   Correlation         :    -0.95042104

                               ***Turning on DIIS***

                         ----------------------------
                         !        ITERATION     2   !
                         ----------------------------
   Total Energy        :    -499.826556807346 Eh
   Energy Change       :      -0.003978548681 Eh
   MAX-DP              :       0.041864044419
   RMS-DP              :       0.003027118287
   Actual Damping      :       0.0000
   Actual Level Shift  :       0.2500 Eh
   Int. Num. El.       :    25.99994137 (UP=   12.99997069 DN=   12.99997069)
   Exchange            :   -33.74209898
   Correlation         :    -0.94892461
   DIIS-Error          :       0.011557608649


                         ----------------------------
                         !        ITERATION     3   !
                         ----------------------------
   Total Energy        :    -499.832548775670 Eh
   Energy Change       :      -0.005991968324 Eh
   MAX-DP              :       0.023890044330
   RMS-DP              :       0.001172477657
   Actual Damping      :       0.0000
   Actual Level Shift  :       0.2500 Eh
   Int. Num. El.       :    25.99993777 (UP=   12.99996889 DN=   12.99996889)
   Exchange            :   -33.67882114
   Correlation         :    -0.94687602
   DIIS-Error          :       0.024991355643
   DIIS coefficients:
      0.56476   0.43524


                         ----------------------------
                         !        ITERATION     4   !
                         ----------------------------
   Total Energy        :    -499.834114578232 Eh
   Energy Change       :      -0.001565802562 Eh
   MAX-DP              :       0.008848966842
   RMS-DP              :       0.000448870489
   Actual Damping      :       0.0000
   Actual Level Shift  :       0.2500 Eh
   Int. Num. El.       :    25.99993931 (UP=   12.99996965 DN=   12.99996965)
   Exchange            :   -33.70278587
   Correlation         :    -0.94794671
   DIIS-Error          :       0.003831368299
   DIIS coefficients:
      0.19486   0.08181   0.72333

                      *** Initiating the SOSCF procedure ***
                           *** Shutting down DIIS ***
                      *** Re-Reading the Fockian *** 
                      *** Removing any level shift *** 

                         ----------------------------
                         !        ITERATION     5   !
                         ----------------------------
   Total Energy        :    -499.834206479952 Eh
   Energy Change       :      -0.000091901720 Eh
   MAX-DP              :       0.001472271739
   RMS-DP              :       0.000142297237
   Orbital gradient    :       0.000351887968
   Orbital Rotation    :       0.000351887968
   Actual Damping      :       0.0000
   Int. Num. El.       :    25.99993954 (UP=   12.99996977 DN=   12.99996977)
   Exchange            :   -33.70982293
   Correlation         :    -0.94810075

               *** Restarting incremental Fock matrix formation ***

                         ----------------------------
                         !        ITERATION     6   !
                         ----------------------------
   Total Energy        :    -499.834209136566 Eh
   Energy Change       :      -0.000002656613 Eh
   MAX-DP              :       0.000684941352
   RMS-DP              :       0.000040954009
   Orbital gradient    :       0.000179160129
   Orbital Rotation    :       0.000481039020
   Actual Damping      :       0.0000
   Int. Num. El.       :    25.99993964 (UP=   12.99996982 DN=   12.99996982)
   Exchange            :   -33.71005067
   Correlation         :    -0.94814792


                         ----------------------------
                         !        ITERATION     7   !
                         ----------------------------
   Total Energy        :    -499.834208866534 Eh
   Energy Change       :       0.000000270032 Eh
   MAX-DP              :       0.000301541885
   RMS-DP              :       0.000023393816
   Orbital gradient    :       0.000300132790
   Orbital Rotation    :       0.000300026204
   Actual Damping      :       0.0000
   Int. Num. El.       :    25.99993963 (UP=   12.99996982 DN=   12.99996982)
   Exchange            :   -33.71036380
   Correlation         :    -0.94814579


                         ----------------------------
                         !        ITERATION     8   !
                         ----------------------------
   Total Energy        :    -499.834209324697 Eh
   Energy Change       :      -0.000000458164 Eh
   MAX-DP              :       0.000129216823
   RMS-DP              :       0.000006983125
   Orbital gradient    :       0.000021884998
   Orbital Rotation    :       0.000033179375
   Actual Damping      :       0.0000
   Int. Num. El.       :    25.99993964 (UP=   12.99996982 DN=   12.99996982)
   Exchange            :   -33.71029353
   Correlation         :    -0.94815163


                         ----------------------------
                         !        ITERATION     9   !
                         ----------------------------
   Total Energy        :    -499.834209321107 Eh
   Energy Change       :       0.000000003591 Eh
   MAX-DP              :       0.000075520596
   RMS-DP              :       0.000003882231
   Orbital gradient    :       0.000025815299
   Orbital Rotation    :       0.000016543477
   Actual Damping      :       0.0000
   Int. Num. El.       :    25.99993964 (UP=   12.99996982 DN=   12.99996982)
   Exchange            :   -33.71014206
   Correlation         :    -0.94814606

                  ***Gradient check signals convergence***
              ***Rediagonalizing the Fockian in SOSCF/NRSCF***

               *****************************************************
               *                     SUCCESS                       *
               *           SCF CONVERGED AFTER  10 CYCLES          *
               *****************************************************

Setting up the final grid:

General Integration Accuracy     IntAcc      ...  5.010
Radial Grid Type                 RadialGrid  ... Gauss-Chebyshev
Angular Grid (max. acc.)         AngularGrid ... Lebedev-434
Angular grid pruning method      GridPruning ... 3 (G Style)
Weight generation scheme         WeightScheme... Becke
Basis function cutoff            BFCut       ...    1.0000e-11
Integration weight cutoff        WCut        ...    1.0000e-14
Grids for H and He will be reduced by one unit

# of grid points (after initial pruning)     ...  42658 (   0.0 sec)
# of grid points (after weights+screening)   ...  41692 (   0.1 sec)
nearest neighbour list constructed           ...    0.0 sec
Grid point re-assignment to atoms done       ...    0.0 sec
Grid point division into batches done        ...    0.4 sec
Reduced shell lists constructed in    0.5 sec

Total number of grid points                  ...    41692
Total number of batches                      ...      654
Average number of points per batch           ...       63
Average number of grid points per atom       ...     8338
Average number of shells per batch           ...    16.04 (69.72%)
Average number of basis functions per batch  ...    32.95 (70.10%)
Average number of large shells per batch     ...    14.83 (92.46%)
Average number of large basis fcns per batch ...    30.65 (93.02%)
Maximum spatial batch extension              ...  17.06, 17.06, 15.36 au
Average spatial batch extension              ...   0.56,  0.56,  0.55 au

Final grid set up in    0.7 sec
Final integration                            ... done (   0.1 sec)
Change in XC energy                          ...     0.000060677
Integrated number of electrons               ...    25.999997744
Previous integrated no of electrons          ...    25.999939640

----------------
TOTAL SCF ENERGY
----------------

Total Energy       :         -499.83414865 Eh          -13601.17866 eV

Components:
Nuclear Repulsion  :           50.71536733 Eh            1380.03530 eV
Electronic Energy  :         -550.54951598 Eh          -14981.21396 eV
One Electron Energy:         -788.99008251 Eh          -21469.51163 eV
Two Electron Energy:          238.44056653 Eh            6488.29767 eV

Virial components:
Potential Energy   :         -998.14106460 Eh          -27160.79920 eV
Kinetic Energy     :          498.30691595 Eh           13559.62054 eV
Virial Ratio       :            2.00306484


DFT components:
N(Alpha)           :       12.999998872232 electrons
N(Beta)            :       12.999998872232 electrons
N(Total)           :       25.999997744463 electrons
E(X)               :      -33.710156617288 Eh       
E(C)               :       -0.948158699062 Eh       
E(XC)              :      -34.658315316349 Eh       
DFET-embed. en.    :        0.000000000000 Eh       

---------------
SCF CONVERGENCE
---------------

  Last Energy change         ...   -8.7687e-09  Tolerance :   1.0000e-08
  Last MAX-Density change    ...    2.3845e-06  Tolerance :   1.0000e-07
  Last RMS-Density change    ...    1.2579e-07  Tolerance :   5.0000e-09
  Last Orbital Gradient      ...    7.3961e-07  Tolerance :   1.0000e-05
  Last Orbital Rotation      ...    9.3970e-07  Tolerance :   1.0000e-05

             **** THE GBW FILE WAS UPDATED (CH3Cl.gbw) ****
             **** DENSITY FILE WAS UPDATED (CH3Cl.scfp) ****
             **** ENERGY FILE WAS UPDATED (CH3Cl.en.tmp) ****
             **** THE GBW FILE WAS UPDATED (CH3Cl.gbw) ****
             **** DENSITY FILE WAS UPDATED (CH3Cl.scfp) ****
----------------
ORBITAL ENERGIES
----------------

  NO   OCC          E(Eh)            E(eV) 
   0   2.0000    -100.635897     -2738.4420 
   1   2.0000      -9.963594      -271.1232 
   2   2.0000      -9.159084      -249.2313 
   3   2.0000      -6.985501      -190.0852 
   4   2.0000      -6.972751      -189.7382 
   5   2.0000      -6.972751      -189.7382 
   6   2.0000      -0.764124       -20.7929 
   7   2.0000      -0.599641       -16.3171 
   8   2.0000      -0.392840       -10.6897 
   9   2.0000      -0.392840       -10.6897 
  10   2.0000      -0.367970       -10.0130 
  11   2.0000      -0.245357        -6.6765 
  12   2.0000      -0.245357        -6.6765 
  13   0.0000       0.004496         0.1223 
  14   0.0000       0.054049         1.4708 
  15   0.0000       0.092888         2.5276 
  16   0.0000       0.092888         2.5276 
  17   0.0000       0.370425        10.0798 
  18   0.0000       0.383955        10.4480 
  19   0.0000       0.383955        10.4480 
  20   0.0000       0.482693        13.1348 
  21   0.0000       0.585878        15.9425 
  22   0.0000       0.594236        16.1700 
  23   0.0000       0.594236        16.1700 
  24   0.0000       0.722687        19.6653 
  25   0.0000       0.722687        19.6653 
  26   0.0000       0.734743        19.9934 
  27   0.0000       0.744824        20.2677 
  28   0.0000       0.749787        20.4027 
  29   0.0000       0.749787        20.4027 
  30   0.0000       0.858052        23.3488 
  31   0.0000       0.858052        23.3488 
  32   0.0000       1.182280        32.1715 
  33   0.0000       1.182280        32.1715 
  34   0.0000       1.231844        33.5202 
  35   0.0000       1.426590        38.8195 
  36   0.0000       1.634011        44.4637 
  37   0.0000       1.634011        44.4637 
  38   0.0000       1.778144        48.3858 
  39   0.0000       1.852414        50.4067 
  40   0.0000       1.852414        50.4067 
  41   0.0000       2.089017        56.8450 
  42   0.0000       2.297993        62.5316 
  43   0.0000       2.297993        62.5316 
  44   0.0000       2.565750        69.8176 
  45   0.0000       2.770299        75.3837 
  46   0.0000       2.770299        75.3837 
------------------
MOLECULAR ORBITALS
------------------
                      0         1         2         3         4         5   
                 -100.63590  -9.96359  -9.15908  -6.98550  -6.97275  -6.97275
                   2.00000   2.00000   2.00000   2.00000   2.00000   2.00000
                  --------  --------  --------  --------  --------  --------
  0C   1s        -0.000037  0.988144  0.000241 -0.000094 -0.000000 -0.000000
  0C   2s         0.000438  0.049322 -0.001184  0.000414  0.000000  0.000000
  0C   3s        -0.002882 -0.037217  0.006712 -0.006958 -0.000000 -0.000000
  0C   1pz        0.000021 -0.000685 -0.000278  0.000071 -0.000010  0.000121
  0C   1px       -0.000021  0.000685  0.000278 -0.000071  0.000100  0.000070
  0C   1py       -0.000021  0.000685  0.000278 -0.000071 -0.000110  0.000051
  0C   2pz       -0.000859  0.000266  0.002140 -0.001597  0.000116 -0.001340
  0C   2px        0.000859 -0.000266 -0.002140  0.001597 -0.001103 -0.000771
  0C   2py        0.000859 -0.000266 -0.002140  0.001597  0.001219 -0.000570
  0C   1dz2       0.000000  0.000000 -0.000000 -0.000000 -0.000000  0.000005
  0C   1dxz      -0.000077  0.000792  0.000416 -0.000514 -0.000000  0.000000
  0C   1dyz      -0.000077  0.000792  0.000416 -0.000514  0.000000  0.000000
  0C   1dx2y2     0.000000  0.000000  0.000000 -0.000000 -0.000005 -0.000000
  0C   1dxy       0.000077 -0.000792 -0.000416  0.000514 -0.000000  0.000000
  1Cl  1s         0.994047 -0.000024 -0.311451 -0.002234  0.000000  0.000000
  1Cl  2s         0.022266  0.000263  1.020036  0.007782 -0.000000 -0.000000
  1Cl  3s        -0.010216 -0.000788  0.052959 -0.002463 -0.000000  0.000000
  1Cl  4s         0.007283  0.004434 -0.023614  0.005774  0.000000 -0.000000
  1Cl  1pz        0.000084  0.000088  0.003854 -0.565864 -0.069084  0.797678
  1Cl  1px       -0.000084 -0.000088 -0.003854  0.565864  0.656267  0.458668
  1Cl  1py       -0.000084 -0.000088 -0.003854  0.565864 -0.725351  0.339010
  1Cl  2pz        0.000292  0.000171 -0.001020  0.030643  0.003620 -0.041801
  1Cl  2px       -0.000292 -0.000171  0.001020 -0.030643 -0.034391 -0.024036
  1Cl  2py       -0.000292 -0.000171  0.001020 -0.030643  0.038011 -0.017765
  1Cl  3pz       -0.001042 -0.000543  0.002509 -0.006486 -0.000553  0.006381
  1Cl  3px        0.001042  0.000543 -0.002509  0.006486  0.005250  0.003669
  1Cl  3py        0.001042  0.000543 -0.002509  0.006486 -0.005803  0.002712
  1Cl  1dz2      -0.000000 -0.000000 -0.000000  0.000000 -0.000015  0.000177
  1Cl  1dxz      -0.000141  0.000924 -0.000007  0.000055  0.000100 -0.000047
  1Cl  1dyz      -0.000141  0.000924 -0.000007  0.000055 -0.000090 -0.000063
  1Cl  1dx2y2     0.000000  0.000000  0.000000  0.000000 -0.000177 -0.000015
  1Cl  1dxy       0.000141 -0.000924  0.000007 -0.000055  0.000010 -0.000110
  2H   1s         0.000245 -0.003362 -0.000578  0.000598  0.000401 -0.000187
  2H   2s         0.000066  0.007836  0.000063  0.000492  0.000121 -0.000057
  2H   1pz        0.000019 -0.001442 -0.000004  0.000073 -0.000056  0.000183
  2H   1px       -0.000019  0.001442  0.000004 -0.000073  0.000176  0.000075
  2H   1py       -0.000052 -0.001529  0.000075  0.000026  0.000065 -0.000030
  3H   1s         0.000245 -0.003362 -0.000578  0.000598 -0.000363 -0.000253
  3H   2s         0.000066  0.007836  0.000063  0.000492 -0.000109 -0.000076
  3H   1pz        0.000019 -0.001442 -0.000004  0.000073  0.000023  0.000190
  3H   1px       -0.000052 -0.001529  0.000075  0.000026 -0.000059 -0.000041
  3H   1py       -0.000019  0.001442  0.000004 -0.000073 -0.000186  0.000043
  4H   1s         0.000245 -0.003362 -0.000578  0.000598 -0.000038  0.000441
  4H   2s         0.000066  0.007836  0.000063  0.000492 -0.000012  0.000133
  4H   1pz        0.000052  0.001529 -0.000075 -0.000026  0.000006 -0.000071
  4H   1px       -0.000019  0.001442  0.000004 -0.000073  0.000131  0.000140
  4H   1py       -0.000019  0.001442  0.000004 -0.000073 -0.000153  0.000115
                      6         7         8         9        10        11   
                  -0.76412  -0.59964  -0.39284  -0.39284  -0.36797  -0.24536
                   2.00000   2.00000   2.00000   2.00000   2.00000   2.00000
                  --------  --------  --------  --------  --------  --------
  0C   1s         0.139153 -0.213102  0.000000 -0.000000 -0.004906 -0.000000
  0C   2s        -0.281369  0.440865 -0.000000  0.000000  0.020529  0.000000
  0C   3s        -0.040319  0.119888  0.000000 -0.000000  0.028501 -0.000000
  0C   1pz       -0.054116 -0.053785  0.141044  0.326171  0.215478  0.117659
  0C   1px        0.054116  0.053785 -0.211951  0.285233 -0.215478  0.069071
  0C   1py        0.054116  0.053785  0.352994  0.040938 -0.215478  0.048588
  0C   2pz       -0.008443 -0.019083  0.060968  0.140991  0.092564  0.023184
  0C   2px        0.008443  0.019083 -0.091618  0.123295 -0.092564  0.013610
  0C   2py        0.008443  0.019083  0.152586  0.017696 -0.092564  0.009574
  0C   1dz2       0.000000 -0.000000  0.002955  0.006834  0.000000 -0.011899
  0C   1dxz       0.008579  0.001536  0.007608  0.000882 -0.014304  0.005612
  0C   1dyz       0.008579  0.001536 -0.004568  0.006147 -0.014304  0.007977
  0C   1dx2y2     0.000000  0.000000  0.006834 -0.002955 -0.000000  0.001196
  0C   1dxy      -0.008579 -0.001536  0.003040  0.007030  0.014304  0.013589
  1Cl  1s        -0.072430 -0.046905  0.000000  0.000000 -0.018071 -0.000000
  1Cl  2s         0.451199  0.296213 -0.000000 -0.000000  0.114969  0.000000
  1Cl  3s        -0.601816 -0.412838  0.000000 -0.000000 -0.141885 -0.000000
  1Cl  4s        -0.318579 -0.224952 -0.000000  0.000000 -0.191432  0.000000
  1Cl  1pz        0.028571 -0.024697  0.026132  0.060432 -0.126349 -0.219090
  1Cl  1px       -0.028571  0.024697 -0.039270  0.052847  0.126349 -0.128615
  1Cl  1py       -0.028571  0.024697  0.065402  0.007585  0.126349 -0.090475
  1Cl  2pz        0.047247 -0.038186  0.043801  0.101292 -0.218796 -0.375774
  1Cl  2px       -0.047247  0.038186 -0.065821  0.088579  0.218796 -0.220595
  1Cl  2py       -0.047247  0.038186  0.109622  0.012713  0.218796 -0.155179
  1Cl  3pz        0.044380 -0.046640  0.052488  0.121381 -0.236975 -0.520500
  1Cl  3px       -0.044380  0.046640 -0.078875  0.106146  0.236975 -0.305555
  1Cl  3py       -0.044380  0.046640  0.131363  0.015235  0.236975 -0.214945
  1Cl  1dz2      -0.000000 -0.000000 -0.010391 -0.024029 -0.000000  0.006632
  1Cl  1dxz       0.019465 -0.007080  0.017091  0.001982 -0.023427 -0.001034
  1Cl  1dyz       0.019465 -0.007080 -0.010262  0.013810 -0.023427 -0.001470
  1Cl  1dx2y2     0.000000 -0.000000 -0.024029  0.010391  0.000000 -0.000667
  1Cl  1dxy      -0.019465  0.007080  0.006829  0.015793  0.023427 -0.002503
  2H   1s        -0.068237  0.177598 -0.330495 -0.038329 -0.099028 -0.071160
  2H   2s        -0.011145  0.032679 -0.111927 -0.012981 -0.044709 -0.039505
  2H   1pz       -0.005990  0.009325 -0.009562  0.007968  0.001484  0.003709
  2H   1px        0.005990 -0.009325  0.007485  0.009945 -0.001484  0.004116
  2H   1py       -0.004720  0.012766 -0.003055 -0.000354 -0.009905 -0.001962
  3H   1s        -0.068237  0.177598  0.198441 -0.267052 -0.099028 -0.101157
  3H   2s        -0.011145  0.032679  0.067205 -0.090441 -0.044709 -0.056158
  3H   1pz       -0.005990  0.009325  0.012355 -0.001509  0.001484  0.003194
  3H   1px       -0.004720  0.012766  0.001834 -0.002469 -0.009905 -0.002790
  3H   1py        0.005990 -0.009325  0.002120  0.012265 -0.001484  0.003772
  4H   1s        -0.068237  0.177598  0.132054  0.305381 -0.099028  0.172317
  4H   2s        -0.011145  0.032679  0.044722  0.103422 -0.044709  0.095663
  4H   1pz        0.004720 -0.012766 -0.001221 -0.002823  0.009905 -0.004752
  4H   1px        0.005990 -0.009325 -0.011682 -0.004297 -0.001484 -0.000064
  4H   1py        0.005990 -0.009325  0.004871 -0.011455 -0.001484 -0.000922
                     12        13        14        15        16        17   
                  -0.24536   0.00450   0.05405   0.09289   0.09289   0.37043
                   2.00000   0.00000   0.00000   0.00000   0.00000   0.00000
                  --------  --------  --------  --------  --------  --------
  0C   1s        -0.000000 -0.155811  0.092590 -0.000000 -0.000000 -0.090186
  0C   2s         0.000000  0.360488 -0.143777  0.000000  0.000000  0.602886
  0C   3s        -0.000000  1.453972 -2.018973  0.000000  0.000000 -1.206505
  0C   1pz        0.011826  0.232755  0.197898  0.331116 -0.033984  0.376725
  0C   1px       -0.095983 -0.232755 -0.197898  0.194989  0.269763 -0.376725
  0C   1py        0.107808 -0.232755 -0.197898  0.136127 -0.303747 -0.376725
  0C   2pz        0.002330  0.310021  0.440981  0.978042 -0.100380 -0.779429
  0C   2px       -0.018912 -0.310021 -0.440981  0.575953  0.796819  0.779429
  0C   2py        0.021243 -0.310021 -0.440981  0.402089 -0.897199  0.779429
  0C   1dz2      -0.001196  0.000000  0.000000  0.002190 -0.000225 -0.000000
  0C   1dxz       0.012451  0.009050  0.013203 -0.008718  0.019452 -0.047179
[...]



------------------- 
Dispersion Gradient 
------------------- 
   1  :    0.000176279    0.000175724   -0.000175950
   2  :   -0.000400430   -0.000399909    0.000400212
   3  :    0.000131006   -0.000030436   -0.000130828
   4  :   -0.000030092    0.000129786   -0.000129851
   5  :    0.000129762    0.000129851    0.000030009

  |G| =    0.002600126


The revPBE functional is recognized
Active option DFTDOPT                   ...         5   



------------------- 
Dispersion Gradient 
------------------- 
   1  :    0.000175517    0.000176054   -0.000175845
   2  :   -0.000399191   -0.000399712    0.000399408
   3  :    0.000128566   -0.000029486   -0.000128736
   4  :   -0.000029819    0.000129770   -0.000129704
   5  :    0.000129793    0.000129704    0.000029901

  |G| =    0.002591207


The revPBE functional is recognized
Active option DFTDOPT                   ...         5   



------------------- 
Dispersion Gradient 
------------------- 
   1  :    0.000176279    0.000175950   -0.000175724
   2  :   -0.000400430   -0.000400212    0.000399909
   3  :    0.000129762   -0.000030009   -0.000129851
   4  :   -0.000030092    0.000129851   -0.000129786
   5  :    0.000131006    0.000130828    0.000030436

  |G| =    0.002600126


The revPBE functional is recognized
Active option DFTDOPT                   ...         5   



------------------- 
Dispersion Gradient 
------------------- 
   1  :    0.000175517    0.000175845   -0.000176054
   2  :   -0.000399191   -0.000399408    0.000399712
   3  :    0.000129793   -0.000029901   -0.000129704
   4  :   -0.000029819    0.000129704   -0.000129770
   5  :    0.000128566    0.000128736    0.000029486

  |G| =    0.002591207


Dispersion correction Hessian from Numerical Differentiation: 
                  0          1          2          3          4          5    
      0      -0.000218   0.000000   0.000000   0.000000   0.000000   0.000000
      1       0.000000   0.000000   0.000000   0.000000   0.000000   0.000000
      2       0.000000   0.000000   0.000000   0.000000   0.000000   0.000000
      3       0.000000   0.000000   0.000000   0.000000   0.000000   0.000000
      4       0.000000   0.000000   0.000000   0.000000   0.000000   0.000000
      5       0.000000   0.000000   0.000000   0.000000   0.000000   0.000000
      6       0.000076  -0.000033  -0.000011  -0.000124  -0.000020   0.000080
      7       0.000000   0.000000   0.000000   0.000000   0.000000   0.000000
      8       0.000000   0.000000   0.000000   0.000000   0.000000   0.000000
      9       0.000000   0.000000   0.000000   0.000000   0.000000   0.000000
     10       0.000000   0.000000   0.000000   0.000000   0.000000   0.000000
     11       0.000000   0.000000   0.000000   0.000000   0.000000   0.000000
     12       0.000076   0.000011   0.000033  -0.000124  -0.000080   0.000020
     13       0.000000   0.000000   0.000000   0.000000   0.000000   0.000000
     14       0.000000   0.000000   0.000000   0.000000   0.000000   0.000000
                  6          7          8          9         10         11    
      0       0.000076   0.000000   0.000000   0.000000   0.000000   0.000000
      1      -0.000033   0.000000   0.000000   0.000000   0.000000   0.000000
      2      -0.000011   0.000000   0.000000   0.000000   0.000000   0.000000
      3      -0.000124   0.000000   0.000000   0.000000   0.000000   0.000000
      4      -0.000020   0.000000   0.000000   0.000000   0.000000   0.000000
      5       0.000080   0.000000   0.000000   0.000000   0.000000   0.000000
      6       0.000244   0.000000   0.000000   0.000000   0.000000   0.000000
      7       0.000000   0.000000   0.000000   0.000000   0.000000   0.000000
      8       0.000000   0.000000   0.000000   0.000000   0.000000   0.000000
      9       0.000000   0.000000   0.000000   0.000000   0.000000   0.000000
     10       0.000000   0.000000   0.000000   0.000000   0.000000   0.000000
     11       0.000000   0.000000   0.000000   0.000000   0.000000   0.000000
     12      -0.000003  -0.000011  -0.000015  -0.000027   0.000015  -0.000002
     13       0.000000   0.000000   0.000000   0.000000   0.000000   0.000000
     14       0.000000   0.000000   0.000000   0.000000   0.000000   0.000000
                  12         13         14    
      0       0.000076   0.000000   0.000000
      1       0.000011   0.000000   0.000000
      2       0.000033   0.000000   0.000000
      3      -0.000124   0.000000   0.000000
      4      -0.000080   0.000000   0.000000
      5       0.000020   0.000000   0.000000
      6      -0.000003   0.000000   0.000000
      7      -0.000011   0.000000   0.000000
      8      -0.000015   0.000000   0.000000
      9      -0.000027   0.000000   0.000000
     10       0.000015   0.000000   0.000000
     11      -0.000002   0.000000   0.000000
     12       0.000244   0.000000   0.000000
     13       0.000000   0.000000   0.000000
     14       0.000000   0.000000   0.000000

done   (      0.3 sec)
gCP correction in the Hessian                    ...  
-----------------
gCP hessian 
from Numerical Differentiation: 
-----------------
                  0          1          2          3          4          5    
      0      -0.000515  -0.000087   0.000087  -0.000074  -0.000567   0.000567
      1      -0.000087  -0.000515   0.000087  -0.000567  -0.000074   0.000567
      2       0.000087   0.000087  -0.000515   0.000567   0.000567  -0.000074
      3      -0.000074  -0.000567   0.000567   0.000409   0.001256  -0.001256
      4      -0.000567  -0.000074   0.000567   0.001256   0.000409  -0.001256
      5       0.000567   0.000567  -0.000074  -0.001256  -0.001256   0.000409
      6       0.000202   0.000645   0.000637  -0.000259  -0.000110   0.000468
      7       0.000645   0.000185  -0.000645  -0.000110   0.000183   0.000110
      8       0.000637  -0.000645   0.000202   0.000468   0.000110  -0.000259
      9       0.000185   0.000645  -0.000645   0.000183  -0.000110   0.000110
     10       0.000645   0.000202   0.000637  -0.000110  -0.000259   0.000468
     11      -0.000645   0.000637   0.000202   0.000110   0.000468  -0.000259
     12       0.000202  -0.000637  -0.000645  -0.000259  -0.000468   0.000110
     13      -0.000637   0.000202  -0.000645  -0.000468  -0.000259   0.000110
     14      -0.000645  -0.000645   0.000185   0.000110   0.000110   0.000183
                  6          7          8          9         10         11    
      0       0.000202   0.000645   0.000637   0.000185   0.000645  -0.000645
      1       0.000645   0.000185  -0.000645   0.000645   0.000202   0.000637
      2       0.000637  -0.000645   0.000202  -0.000645   0.000637   0.000202
      3      -0.000259  -0.000110   0.000468   0.000183  -0.000110   0.000110
      4      -0.000110   0.000183   0.000110  -0.000110  -0.000259   0.000468
      5       0.000468   0.000110  -0.000259   0.000110   0.000468  -0.000259
      6       0.000043  -0.000641  -0.001105  -0.000046   0.000106  -0.000000
      7      -0.000641  -0.000276   0.000641   0.000106  -0.000046   0.000000
      8      -0.001105   0.000641   0.000043  -0.000000   0.000000   0.000060
      9      -0.000046   0.000106  -0.000000  -0.000276  -0.000641   0.000641
     10       0.000106  -0.000046   0.000000  -0.000641   0.000043  -0.001105
     11      -0.000000   0.000000   0.000060   0.000641  -0.001105   0.000043
     12       0.000060   0.000000   0.000000  -0.000046   0.000000  -0.000106
     13       0.000000  -0.000046  -0.000106   0.000000   0.000060   0.000000
     14       0.000000  -0.000106  -0.000046  -0.000106   0.000000  -0.000046
                  12         13         14    
      0       0.000202  -0.000637  -0.000645
      1      -0.000637   0.000202  -0.000645
      2      -0.000645  -0.000645   0.000185
      3      -0.000259  -0.000468   0.000110
      4      -0.000468  -0.000259   0.000110
      5       0.000110   0.000110   0.000183
      6       0.000060   0.000000   0.000000
      7       0.000000  -0.000046  -0.000106
      8       0.000000  -0.000106  -0.000046
      9      -0.000046   0.000000  -0.000106
     10       0.000000   0.000060   0.000000
     11      -0.000106   0.000000  -0.000046
     12       0.000043   0.001105   0.000641
     13       0.001105   0.000043   0.000641
     14       0.000641   0.000641  -0.000276

done   (      0.1 sec)
Dipol derivatives                                ... done   (      0.1 sec)

-------
TIMINGS
-------

Total SCF Hessian time: 0 days 0 hours 0 min 7 sec 
                   F(y)            G[Q(x)]           CPSCF         Total
Table01         0.4  0.05         0.3  0.03         2.6  0.33         7.9 
Table01a        0.4  0.05,        0.3, 0.03,        2.6  0.33         7.9 
Table01b        0.4   5.1,        0.3,  3.4,        2.6  33.4         7.9 

Writing the Hessian file to the disk             ... done


Maximum memory used throughout the entire calculation: 131.8 MB

-----------------------
VIBRATIONAL FREQUENCIES
-----------------------

Scaling factor for frequencies =  1.000000000  (already applied!)

   0:         0.00 cm**-1
   1:         0.00 cm**-1
   2:         0.00 cm**-1
   3:         0.00 cm**-1
   4:         0.00 cm**-1
   5:         0.00 cm**-1
   6:       701.84 cm**-1
   7:       982.88 cm**-1
   8:       982.88 cm**-1
   9:      1318.58 cm**-1
  10:      1406.68 cm**-1
  11:      1406.68 cm**-1
  12:      2965.90 cm**-1
  13:      3076.77 cm**-1
  14:      3076.77 cm**-1


------------
NORMAL MODES
------------

These modes are the Cartesian displacements weighted by the diagonal matrix
M(i,i)=1/sqrt(m[i]) where m[i] is the mass of the displaced atom
Thus, these vectors are normalized but *not* orthogonal

                  0          1          2          3          4          5    
      0       0.000000   0.000000   0.000000   0.000000   0.000000   0.000000
      1       0.000000   0.000000   0.000000   0.000000   0.000000   0.000000
      2       0.000000   0.000000   0.000000   0.000000   0.000000   0.000000
      3       0.000000   0.000000   0.000000   0.000000   0.000000   0.000000
      4       0.000000   0.000000   0.000000   0.000000   0.000000   0.000000
      5       0.000000   0.000000   0.000000   0.000000   0.000000   0.000000
      6       0.000000   0.000000   0.000000   0.000000   0.000000   0.000000
      7       0.000000   0.000000   0.000000   0.000000   0.000000   0.000000
      8       0.000000   0.000000   0.000000   0.000000   0.000000   0.000000
      9       0.000000   0.000000   0.000000   0.000000   0.000000   0.000000
     10       0.000000   0.000000   0.000000   0.000000   0.000000   0.000000
     11       0.000000   0.000000   0.000000   0.000000   0.000000   0.000000
     12       0.000000   0.000000   0.000000   0.000000   0.000000   0.000000
     13       0.000000   0.000000   0.000000   0.000000   0.000000   0.000000
     14       0.000000   0.000000   0.000000   0.000000   0.000000   0.000000
                  6          7          8          9         10         11    
      0      -0.357793  -0.092146  -0.024476   0.058893   0.013825  -0.051003
      1      -0.357793   0.067269  -0.067563   0.058894   0.037257   0.037474
      2       0.357793  -0.024876  -0.092038  -0.058894   0.051082  -0.013528
      3       0.142216   0.017431   0.004630   0.006564   0.000631  -0.002327
      4       0.142216  -0.012725   0.012781   0.006564   0.001700   0.001710
      5      -0.142216   0.004706   0.017411  -0.006564   0.002331  -0.000617
      6      -0.269446  -0.128759   0.406466  -0.229339  -0.280037   0.453889
      7      -0.199727  -0.382352   0.384019  -0.473950   0.217308   0.218577
      8       0.269446   0.405902  -0.130526   0.229342  -0.455508   0.277392
      9      -0.199727   0.523747   0.139117  -0.473950   0.080637  -0.297483
     10      -0.269446   0.315990   0.286259  -0.229339  -0.467984  -0.255785
     11       0.269446  -0.416390   0.091725   0.229341  -0.533096  -0.015575
     12      -0.269445   0.089913  -0.416785  -0.229339   0.012474   0.533179
     13      -0.269445  -0.287631  -0.314741  -0.229341  -0.253061  -0.469462
     14       0.199725   0.141394   0.523136   0.473948   0.297949  -0.078908
                  12         13         14    
      0      -0.024683   0.021084  -0.075464
      1      -0.024683   0.054812   0.055991
      2       0.024683   0.075896  -0.019473
      3      -0.000108  -0.000068   0.000245
      4      -0.000108  -0.000178  -0.000182
      5       0.000108  -0.000246   0.000063
      6       0.324080   0.330794   0.319378
      7      -0.350240  -0.341039  -0.348375
      8      -0.324080  -0.312267  -0.337515
      9      -0.350239  -0.131183   0.469536
     10       0.324080   0.136164  -0.439189
     11      -0.324080  -0.111194   0.446165
     12       0.324081  -0.448430   0.101673
     13       0.324081  -0.441987   0.126786
     14       0.350240  -0.472221   0.121160


-----------
IR SPECTRUM
-----------

 Mode    freq (cm**-1)   T**2         TX         TY         TZ
-------------------------------------------------------------------
   6:       701.84   22.824895  ( -2.758315  -2.758315   2.758314)
   7:       982.88    3.515452  (  1.479586  -1.080150   0.399442)
   8:       982.88    3.515453  (  0.393004   1.084855   1.477867)
   9:      1318.58   14.271649  (  2.181111   2.181105  -2.181098)
  10:      1406.68    5.988669  ( -0.522753  -1.408760  -1.931526)
  11:      1406.68    5.988669  (  1.928511  -1.416983   0.511541)
  12:      2965.90   22.395430  ( -2.732244  -2.732242   2.732239)
  13:      3076.77    6.876971  (  0.576152   1.497843   2.074003)
  14:      3076.77    6.876972  ( -2.062204   1.530070  -0.532141)

The first frequency considered to be a vibration is 6
The total number of vibrations considered is 9


--------------------------
THERMOCHEMISTRY AT 298.15K
--------------------------

Temperature         ... 298.15 K
Pressure            ... 1.00 atm
Total Mass          ... 50.49 AMU

Throughout the following assumptions are being made:
  (1) The electronic state is orbitally nondegenerate
  (2) There are no thermally accessible electronically excited states
  (3) Hindered rotations indicated by low frequency modes are not
      treated as such but are treated as vibrations and this may
      cause some error
  (4) All equations used are the standard statistical mechanics
      equations for an ideal gas
  (5) All vibrations are strictly harmonic

freq.     701.84  E(vib)   ...       0.07 
freq.     982.88  E(vib)   ...       0.02 
freq.     982.88  E(vib)   ...       0.02 
freq.    1318.58  E(vib)   ...       0.01 
freq.    1406.68  E(vib)   ...       0.00 
freq.    1406.68  E(vib)   ...       0.00 
freq.    2965.90  E(vib)   ...       0.00 
freq.    3076.77  E(vib)   ...       0.00 
freq.    3076.77  E(vib)   ...       0.00 

------------
INNER ENERGY
------------

The inner energy is: U= E(el) + E(ZPE) + E(vib) + E(rot) + E(trans)
    E(el)   - is the total energy from the electronic structure calculation
              = E(kin-el) + E(nuc-el) + E(el-el) + E(nuc-nuc)
    E(ZPE)  - the the zero temperature vibrational energy from the frequency calculation
    E(vib)  - the the finite temperature correction to E(ZPE) due to population
              of excited vibrational states
    E(rot)  - is the rotational thermal energy
    E(trans)- is the translational thermal energy

Summary of contributions to the inner energy U:
Electronic energy                ...   -499.82756646 Eh
Zero point energy                ...      0.03626612 Eh      22.76 kcal/mol
Thermal vibrational correction   ...      0.00021551 Eh       0.14 kcal/mol
Thermal rotational correction    ...      0.00141627 Eh       0.89 kcal/mol
Thermal translational correction ...      0.00141627 Eh       0.89 kcal/mol
-----------------------------------------------------------------------
Total thermal energy                   -499.78825228 Eh


Summary of corrections to the electronic energy:
(perhaps to be used in another calculation)
Total thermal correction                  0.00304805 Eh       1.91 kcal/mol
Non-thermal (ZPE) correction              0.03626612 Eh      22.76 kcal/mol
-----------------------------------------------------------------------
Total correction                          0.03931418 Eh      24.67 kcal/mol


--------
ENTHALPY
--------

The enthalpy is H = U + kB*T
                kB is Boltzmann's constant
Total free energy                 ...   -499.78825228 Eh 
Thermal Enthalpy correction       ...      0.00094421 Eh       0.59 kcal/mol
-----------------------------------------------------------------------
Total Enthalpy                    ...   -499.78730807 Eh


Note: Rotational entropy computed according to Herzberg 
Infrared and Raman Spectra, Chapter V,1, Van Nostrand Reinhold, 1945 
Point Group:  C3v, Symmetry Number:   3  
Rotational constants in cm-1:     5.066370     0.428694     0.428694 

Vibrational entropy computed according to the QRRHO of S. Grimme
Chem.Eur.J. 2012 18 9955


-------
ENTROPY
-------

The entropy contributions are T*S = T*(S(el)+S(vib)+S(rot)+S(trans))
     S(el)   - electronic entropy
     S(vib)  - vibrational entropy
     S(rot)  - rotational entropy
     S(trans)- translational entropy
The entropies will be listed as mutliplied by the temperature to get
units of energy

Electronic entropy                ...      0.00000000 Eh      0.00 kcal/mol
Vibrational entropy               ...      0.00026845 Eh      0.17 kcal/mol
Rotational entropy                ...      0.00850723 Eh      5.34 kcal/mol
Translational entropy             ...      0.01790331 Eh     11.23 kcal/mol
-----------------------------------------------------------------------
Final entropy term                ...      0.02667899 Eh     16.74 kcal/mol

In case the symmetry of your molecule has not been determined correctly
or in case you have a reason to use a different symmetry number we print 
out the resulting rotational entropy values for sn=1,12 :
 --------------------------------------------------------
|  sn= 1 | S(rot)=       0.00954452 Eh      5.99 kcal/mol|
|  sn= 2 | S(rot)=       0.00889006 Eh      5.58 kcal/mol|
|  sn= 3 | S(rot)=       0.00850723 Eh      5.34 kcal/mol|
|  sn= 4 | S(rot)=       0.00823561 Eh      5.17 kcal/mol|
|  sn= 5 | S(rot)=       0.00802492 Eh      5.04 kcal/mol|
|  sn= 6 | S(rot)=       0.00785277 Eh      4.93 kcal/mol|
|  sn= 7 | S(rot)=       0.00770723 Eh      4.84 kcal/mol|
|  sn= 8 | S(rot)=       0.00758115 Eh      4.76 kcal/mol|
|  sn= 9 | S(rot)=       0.00746994 Eh      4.69 kcal/mol|
|  sn=10 | S(rot)=       0.00737046 Eh      4.63 kcal/mol|
|  sn=11 | S(rot)=       0.00728047 Eh      4.57 kcal/mol|
|  sn=12 | S(rot)=       0.00719832 Eh      4.52 kcal/mol|
 --------------------------------------------------------


-------------------
GIBBS FREE ENERGY
-------------------

The Gibbs free energy is G = H - T*S

Total enthalpy                    ...   -499.78730807 Eh 
Total entropy correction          ...     -0.02667899 Eh    -16.74 kcal/mol
-----------------------------------------------------------------------
Final Gibbs free energy         ...   -499.81398707 Eh

For completeness - the Gibbs free energy minus the electronic energy
G-E(el)                           ...      0.01357939 Eh      8.52 kcal/mol


Timings for individual modules:

Sum of individual times         ...       37.826 sec (=   0.630 min)
GTO integral calculation        ...        4.732 sec (=   0.079 min)  12.5 %
SCF iterations                  ...       19.203 sec (=   0.320 min)  50.8 %
SCF Gradient evaluation         ...        4.864 sec (=   0.081 min)  12.9 %
Geometry relaxation             ...        0.131 sec (=   0.002 min)   0.3 %
Analytical frequency calculation...        8.896 sec (=   0.148 min)  23.5 %
                             ****ORCA TERMINATED NORMALLY****
TOTAL RUN TIME: 0 days 0 hours 0 minutes 39 seconds 126 msec
