
                                 *****************
                                 * O   R   C   A *
                                 *****************

           --- An Ab Initio, DFT and Semiempirical electronic structure package ---

                  #######################################################
                  #                        -***-                        #
                  #          Department of theory and spectroscopy      #
                  #               Directorship: Frank Neese             #
                  #        Max Planck Institute fuer Kohlenforschung    #
                  #                Kaiser Wilhelm Platz 1               #
                  #                 D-45470 Muelheim/Ruhr               #
                  #                      Germany                        #
                  #                                                     #
                  #                  All rights reserved                #
                  #                        -***-                        #
                  #######################################################


                         Program Version 4.2.1 -  RELEASE  -


 With contributions from (in alphabetic order):
   Daniel Aravena         : Magnetic Suceptibility
   Michael Atanasov       : Ab Initio Ligand Field Theory (pilot matlab implementation)
   Alexander A. Auer      : GIAO ZORA, VPT2
   Ute Becker             : Parallelization
   Giovanni Bistoni       : ED, misc. LED, open-shell LED, HFLD
   Martin Brehm           : Molecular dynamics
   Dmytro Bykov           : SCF Hessian
   Vijay G. Chilkuri      : MRCI spin determinant printing, contributions to CSF-ICE
   Dipayan Datta          : RHF DLPNO-CCSD density
   Achintya Kumar Dutta   : EOM-CC, STEOM-CC
   Dmitry Ganyushin       : Spin-Orbit,Spin-Spin,Magnetic field MRCI
   Miquel Garcia          : C-PCM Hessian, Gaussian charge scheme
   Yang Guo               : DLPNO-NEVPT2, CIM, IAO-localization
   Andreas Hansen         : Spin unrestricted coupled pair/coupled cluster methods
   Benjamin Helmich-Paris : CASSCF linear response (MC-RPA)
   Lee Huntington         : MR-EOM, pCC
   Robert Izsak           : Overlap fitted RIJCOSX, COSX-SCS-MP3, EOM
   Christian Kollmar      : KDIIS, OOCD, Brueckner-CCSD(T), CCSD density
   Simone Kossmann        : Meta GGA functionals, TD-DFT gradient, OOMP2, MP2 Hessian
   Martin Krupicka        : AUTO-CI
   Lucas Lang             : DCDCAS
   Dagmar Lenk            : GEPOL surface, SMD
   Dimitrios Liakos       : Extrapolation schemes; Compound Job, initial MDCI parallelization
   Dimitrios Manganas     : Further ROCIS development; embedding schemes
   Dimitrios Pantazis     : SARC Basis sets
   Taras Petrenko         : DFT Hessian,TD-DFT gradient, ASA, ECA, R-Raman, ABS, FL, XAS/XES, NRVS
   Peter Pinski           : DLPNO-MP2, DLPNO-MP2 Gradient
   Christoph Reimann      : Effective Core Potentials
   Marius Retegan         : Local ZFS, SOC
   Christoph Riplinger    : Optimizer, TS searches, QM/MM, DLPNO-CCSD(T), (RO)-DLPNO pert. Triples
   Tobias Risthaus        : Range-separated hybrids, TD-DFT gradient, RPA, STAB
   Michael Roemelt        : Original ROCIS implementation
   Masaaki Saitow         : Open-shell DLPNO-CCSD energy and density
   Barbara Sandhoefer     : DKH picture change effects
   Avijit Sen             : IP-ROCIS
   Kantharuban Sivalingam : CASSCF convergence, NEVPT2, FIC-MRCI
   Bernardo de Souza      : ESD, SOC TD-DFT
   Georgi Stoychev        : AutoAux, RI-MP2 NMR
   Willem Van den Heuvel  : Paramagnetic NMR
   Boris Wezisla          : Elementary symmetry handling
   Frank Wennmohs         : Technical directorship


 We gratefully acknowledge several colleagues who have allowed us to
 interface, adapt or use parts of their codes:
   Stefan Grimme, W. Hujo, H. Kruse,             : VdW corrections, initial TS optimization,
                  C. Bannwarth                     DFT functionals, gCP, sTDA/sTD-DF
   Ed Valeev, F. Pavosevic, A. Kumar             : LibInt (2-el integral package), F12 methods
   Garnet Chan, S. Sharma, J. Yang, R. Olivares  : DMRG
   Ulf Ekstrom                                   : XCFun DFT Library
   Mihaly Kallay                                 : mrcc  (arbitrary order and MRCC methods)
   Andreas Klamt, Michael Diedenhofen            : otool_cosmo (COSMO solvation model)
   Jiri Pittner, Ondrej Demel                    : Mk-CCSD
   Frank Weinhold                                : gennbo (NPA and NBO analysis)
   Christopher J. Cramer and Donald G. Truhlar   : smd solvation model
   Lars Goerigk                                  : TD-DFT with DH, B97 family of functionals
   V. Asgeirsson, H. Jonsson                     : NEB implementation
   FAccTs GmbH                                   : IRC, NEB, NEB-TS, Multilevel, MM, QM/MM, CI optimization
   S Lehtola, MJT Oliveira, MAL Marques          : LibXC Library


 Your calculation uses the libint2 library for the computation of 2-el integrals
 For citations please refer to: http://libint.valeyev.net

 Your ORCA version has been built with support for libXC version: 4.2.3
 For citations please refer to: https://tddft.org/programs/libxc/

 This ORCA versions uses:
   CBLAS   interface :  Fast vector & matrix operations
   LAPACKE interface :  Fast linear algebra routines
   SCALAPACK package :  Parallel linear algebra routines


Your calculation utilizes the geometrical counterpoise correction gCP
Please cite in your paper:
H.Kruse, S. Grimme J.Chem.Phys., 136, (2012), 154101 
   

Your calculation utilizes the atom-pairwise dispersion correction
based on tight binding partial charges (D4)
Cite in your paper:
E.Caldeweyher, C.Bannwarth, S.Grimme, J.Chem.Phys., (2017), 147, 034112.
E.Caldeweyher, S.Ehlert, A.Hansen, H.Neugebauer, S.Grimme, J.Chem.Phys., (2018), in progress.
   

----- Orbital basis set information -----
Your calculation utilizes the basis: def2-SVP
   F. Weigend and R. Ahlrichs, Phys. Chem. Chem. Phys. 7, 3297 (2005).

----- AuxJ basis set information -----
Your calculation utilizes the auxiliary basis: def2/J
   F. Weigend, Phys. Chem. Chem. Phys. 8, 1057 (2006).

================================================================================
                                        WARNINGS
                       Please study these warnings very carefully!
================================================================================


WARNING: Geometry Optimization
  ===> : Switching off AutoStart
         For restart on a previous wavefunction, please use MOREAD

INFO   : the flag for use of LIBINT has been found!

================================================================================
                                       INPUT FILE
================================================================================
NAME = CHBrClF.inp
|  1> ! revPBE D4 gCP(DFT/SVP) def2-SVP Opt Freq TightOpt TightSCF Grid4 FinalGrid5 LargePrint
|  2> 
|  3> %pal
|  4>  nprocs 6
|  5> end
|  6> 
|  7> *xyz 0 1
|  8>   C     -0.000367    0.143055    0.000367
|  9>   Br    -1.056917   -0.846399    1.056917
| 10>   Cl     1.062165   -0.833000   -1.062165
| 11>   F     -0.647167    0.768172   -0.642286
| 12>   H      0.642286    0.768172    0.647167
| 13> *
| 14> 
| 15>                          ****END OF INPUT****
================================================================================

                       *****************************
                       * Geometry Optimization Run *
                       *****************************

Geometry optimization settings:
Update method            Update   .... BFGS
Choice of coordinates    CoordSys .... Z-matrix Internals
Initial Hessian          InHess   .... Almoef's Model

Convergence Tolerances:
Energy Change            TolE     ....  1.0000e-06 Eh
Max. Gradient            TolMAXG  ....  1.0000e-04 Eh/bohr
RMS Gradient             TolRMSG  ....  3.0000e-05 Eh/bohr
Max. Displacement        TolMAXD  ....  1.0000e-03 bohr
RMS Displacement         TolRMSD  ....  6.0000e-04 bohr
Strict Convergence                ....  False
------------------------------------------------------------------------------
                        ORCA OPTIMIZATION COORDINATE SETUP
------------------------------------------------------------------------------

The optimization will be done in new redundant internal coordinates
Making redundant internal coordinates   ...  (new redundants) done
Evaluating the initial hessian          ...  (Almloef) done
Evaluating the coordinates              ...  done
Calculating the B-matrix                .... done
Calculating the G-matrix                .... done
Diagonalizing the G-matrix              .... done
The first mode is                       ....    1
The number of degrees of freedom        ....    9

    -----------------------------------------------------------------
                    Redundant Internal Coordinates


    -----------------------------------------------------------------
         Definition                    Initial Value    Approx d2E/dq
    -----------------------------------------------------------------
      1. B(Br  1,C   0)                  1.7921         0.479414   
      2. B(Cl  2,C   0)                  1.7918         0.320369   
      3. B(F   3,C   0)                  1.1055         1.478674   
      4. B(H   4,C   0)                  1.1055         0.340172   
      5. A(Br  1,C   0,F   3)          108.0587         0.513089   
      6. A(Cl  2,C   0,F   3)          108.0741         0.466378   
      7. A(Br  1,C   0,H   4)          108.0587         0.355683   
      8. A(Cl  2,C   0,H   4)          108.0741         0.326309   
      9. A(F   3,C   0,H   4)          111.1303         0.401806   
     10. A(Br  1,C   0,Cl  2)          113.4814         0.410733   
    -----------------------------------------------------------------

Number of atoms                         .... 5
Number of degrees of freedom            .... 10

         *************************************************************
         *                GEOMETRY OPTIMIZATION CYCLE   1            *
         *************************************************************
---------------------------------
CARTESIAN COORDINATES (ANGSTROEM)
---------------------------------
  C     -0.000367    0.143055    0.000367
  Br    -1.056917   -0.846399    1.056917
  Cl     1.062165   -0.833000   -1.062165
  F     -0.647167    0.768172   -0.642286
  H      0.642286    0.768172    0.647167

----------------------------
CARTESIAN COORDINATES (A.U.)
----------------------------
  NO LB      ZA    FRAG     MASS         X           Y           Z
   0 C     6.0000    0    12.011   -0.000694    0.270335    0.000694
   1 Br   35.0000    0    79.900   -1.997284   -1.599462    1.997284
   2 Cl   17.0000    0    35.453    2.007201   -1.574142   -2.007201
   3 F     9.0000    0    18.998   -1.222968    1.451635   -1.213745
   4 H     1.0000    0     1.008    1.213745    1.451635    1.222968

--------------------------------
INTERNAL COORDINATES (ANGSTROEM)
--------------------------------
 C      0   0   0     0.000000000000     0.00000000     0.00000000
 Br     1   0   0     1.792097939041     0.00000000     0.00000000
 Cl     1   2   0     1.791823614386   113.48136918     0.00000000
 F      1   2   3     1.105497346038   108.05873021   119.83015214
 H      1   2   3     1.105497346038   108.05873021   240.16984786

---------------------------
INTERNAL COORDINATES (A.U.)
---------------------------
 C      0   0   0     0.000000000000     0.00000000     0.00000000
 Br     1   0   0     3.386574309953     0.00000000     0.00000000
 Cl     1   2   0     3.386055911483   113.48136918     0.00000000
 F      1   2   3     2.089087225789   108.05873021   119.83015214
 H      1   2   3     2.089087225789   108.05873021   240.16984786

---------------------
BASIS SET INFORMATION
---------------------
There are 5 groups of distinct atoms

 Group   1 Type C   : 7s4p1d contracted to 3s2p1d pattern {511/31/1}
 Group   2 Type Br  : 14s10p6d contracted to 5s4p3d pattern {63311/5311/411}
 Group   3 Type Cl  : 10s7p1d contracted to 4s3p1d pattern {5311/511/1}
 Group   4 Type F   : 7s4p1d contracted to 3s2p1d pattern {511/31/1}
 Group   5 Type H   : 4s1p contracted to 2s1p pattern {31/1}

Atom   0C    basis set group =>   1
Atom   1Br   basis set group =>   2
Atom   2Cl   basis set group =>   3
Atom   3F    basis set group =>   4
Atom   4H    basis set group =>   5

-------------------------
BASIS SET IN INPUT FORMAT
-------------------------

 # Basis set for element : H 
 NewGTO H 
 S 3 
   1      13.0107010000      0.0334854848
   2       1.9622572000      0.2347218709
   3       0.4445379600      0.8137702853
 S 1 
   1       0.1219496200      1.0000000000
 P 1 
   1       0.8000000000      1.0000000000
  end;

 # Basis set for element : C 
 NewGTO C 
 S 5 
   1    1238.4016938000      0.0055173650
   2     186.2900499200      0.0410888285
   3      42.2511763460      0.1822538213
   4      11.6765579320      0.4682845944
   5       3.5930506482      0.4457581734
 S 1 
   1       0.4024514736      1.0000000000
 S 1 
   1       0.1309018267      1.0000000000
 P 3 
   1       9.4680970621      0.0568883320
   2       2.0103545142      0.3129405934
   3       0.5477100471      0.7606501651
 P 1 
   1       0.1526861379      1.0000000000
 D 1 
   1       0.8000000000      1.0000000000
  end;

 # Basis set for element : F 
 NewGTO F 
 S 5 
   1    2894.8325990000     -0.0053493212
   2     435.4193912000     -0.0399677344
   3      98.8433288660     -0.1794126179
   4      27.4851980010     -0.4683246868
   5       8.5405498171     -0.4472416053
 S 1 
   1       1.0654578038      1.0000000000
 S 1 
   1       0.3324734675      1.0000000000
 P 3 
   1      22.6966339240     -0.0647821482
   2       4.9872339257     -0.3403578536
   3       1.3491613954     -0.7348581537
 P 1 
   1       0.3482988198      1.0000000000
 D 1 
   1       1.4000000000      1.0000000000
  end;

 # Basis set for element : Cl
 NewGTO Cl
 S 5 
   1   10449.8275660000      0.0054265952
   2    1571.7365221000      0.0406263782
   3     357.1206552300      0.1835974786
   4     100.2518593500      0.4743894876
   5      30.8127275540      0.4373518111
 S 3 
   1      51.9237894340     -0.0927541549
   2       5.7045760975      0.5638082555
   3       2.3508376809      0.5036704463
 S 1 
   1       0.4460512467      1.0000000000
 S 1 
   1       0.1684885619      1.0000000000
 P 5 
   1     307.6679056900     -0.0088797025
   2      72.1020155150     -0.0642840717
   3      22.5326802620     -0.2428873974
   4       7.8991765444     -0.4834083637
   5       2.8767268321     -0.3895256388
 P 1 
   1       0.7745936396      1.0000000000
 P 1 
   1       0.2103769970      1.0000000000
 D 1 
   1       0.6500000000      1.0000000000
  end;

 # Basis set for element : Br
 NewGTO Br
 S 6 
   1  113286.3877600000      0.0017059196
   2   17009.6263030000      0.0130788223
   3    3870.1842567000      0.0649986793
   4    1093.0357227000      0.2275020107
   5     356.3972179700      0.4660976331
   6     123.1253964300      0.3680375540
 S 3 
   1     236.7408400700     -0.1107326939
   2      28.4686610700      0.6388292533
   3      11.8834437220      0.4362572006
 S 3 
   1      21.2696333120     -0.2185898777
   2       3.6129226841      0.7126890487
   3       1.6626648969      0.4120671387
 S 1 
   1       0.3482379323      1.0000000000
 S 1 
   1       0.1301903139      1.0000000000
 P 5 
   1    1560.2801881000      0.0082285346
   2     368.4785920500      0.0625340018
   3     117.2297884900      0.2501185945
   4      42.6489092480      0.5082417418
   5      16.0872250960      0.3453094664
 P 3 
   1       8.6352810058      0.3243461531
   2       3.5613665502      0.5445484413
   3       1.5292626609      0.2304160339
 P 1 
   1       0.5306429485      1.0000000000
 P 1 
   1       0.1570275896      1.0000000000
 D 4 
   1     104.8551864200      0.0266922510
   2      30.2811436880      0.1585672386
   3      10.6513942670      0.4298361819
   4       3.8699456233      0.5779699329
 D 1 
   1       1.3240876762      1.0000000000
 D 1 
   1       0.3890000000      1.0000000000
  end;

---------------------------------
AUXILIARY/J BASIS SET INFORMATION
---------------------------------
There are 5 groups of distinct atoms

 Group   1 Type C   : 12s5p4d2f1g contracted to 6s4p3d1f1g pattern {711111/2111/211/2/1}
 Group   2 Type Br  : 19s5p5d3f1g contracted to 8s4p3d2f1g pattern {121111111/2111/311/21/1}
 Group   3 Type Cl  : 14s5p5d2f1g contracted to 8s4p3d1f1g pattern {71111111/2111/311/2/1}
 Group   4 Type F   : 12s5p4d2f1g contracted to 6s4p3d1f1g pattern {711111/2111/211/2/1}
 Group   5 Type H   : 5s2p1d contracted to 3s1p1d pattern {311/2/1}

Atom   0C    basis set group =>   1
Atom   1Br   basis set group =>   2
Atom   2Cl   basis set group =>   3
Atom   3F    basis set group =>   4
Atom   4H    basis set group =>   5

-------------------------------------
AUXILIARY/J BASIS SET IN INPUT FORMAT
-------------------------------------

 # Auxiliary/J basis set for element : H 
 NewAuxJGTO H 
 S 3 
   1      15.6752927000      0.1007184237
   2       3.6063578000      0.3404257499
   3       1.2080016000      0.6491996172
 S 1 
   1       0.4726794000      1.0000000000
 S 1 
   1       0.2018100000      1.0000000000
 P 2 
   1       2.0281365000      0.5596620919
   2       0.5358730000      0.5596620919
 D 1 
   1       2.2165124000      1.0000000000
  end;

 # Auxiliary/J basis set for element : C 
 NewAuxJGTO C 
 S 7 
   1    1861.0916331000      0.0134602335
   2     642.9939764000      0.0299160374
   3     235.1105725000      0.1008649584
   4      90.7028894000      0.2370970548
   5      36.7794552000      0.3924037254
   6      15.6046273000      0.3195862154
   7       6.8907294000      0.0530104441
 S 1 
   1       3.1478850000     -1.0000000000
 S 1 
   1       1.4777287000      1.0000000000
 S 1 
   1       0.7076466000      1.0000000000
 S 1 
   1       0.3430122000      1.0000000000
 S 1 
   1       0.1669453000      1.0000000000
 P 2 
   1      13.5472892000     -0.6769313712
   2       5.4669419000     -0.3779500978
 P 1 
   1       2.1751721000      1.0000000000
 P 1 
   1       0.8582194000      1.0000000000
 P 1 
   1       0.3376720000      1.0000000000
 D 2 
   1       5.9287253000     -0.3533329857
   2       1.9809209000     -0.7456525731
 D 1 
   1       0.8055417000     -1.0000000000
 D 1 
   1       0.3531244000     -1.0000000000
 F 2 
   1       1.6755626000      0.6311076882
   2       0.5997536000      0.4968166032
 G 1 
   1       1.0024600000     -1.0000000000
  end;

 # Auxiliary/J basis set for element : F 
 NewAuxJGTO F 
 S 7 
   1    3514.9201549000      0.0176189594
   2    1231.2458815000      0.0358663858
   3     454.1367336000      0.1239867649
   4     175.8376258000      0.2758620517
   5      71.2081775000      0.4252764982
   6      30.0316883000      0.2651963387
   7      13.1259023000     -0.0078514564
 S 1 
   1       5.9126861000     -1.0000000000
 S 1 
   1       2.7284431000      1.0000000000
 S 1 
   1       1.2813993000      1.0000000000
 S 1 
   1       0.6082793000      1.0000000000
 S 1 
   1       0.2897894000      1.0000000000
 P 2 
   1      49.3740409000     -0.8404235528
   2      13.4874956000     -0.2331250081
 P 1 
   1       3.9664900000      1.0000000000
 P 1 
   1       1.2226629000     -1.0000000000
 P 1 
   1       0.3830317000      1.0000000000
 D 2 
   1      29.9719140000     -0.2160273306
   2       6.7860915000     -0.8915140390
 D 1 
   1       1.8137313000     -1.0000000000
 D 1 
   1       0.5157840000     -1.0000000000
 F 2 
   1       2.8301877000      0.5762078303
   2       0.9155962000      0.5762078303
 G 1 
   1       1.6097500000     -1.0000000000
  end;

 # Auxiliary/J basis set for element : Cl
 NewAuxJGTO Cl
 S 7 
   1    8044.2766240000      0.0309054740
   2    2924.5123954000      0.0600734063
   3    1110.8168739000      0.1862207460
   4     439.9050761000      0.3715503251
   5     181.1987287000      0.4220785347
   6      77.4148302000      0.0994388367
   7      34.1977273000     -0.0596902748
 S 1 
   1      15.5648397000      1.0000000000
 S 1 
   1       7.2707873000      1.0000000000
 S 1 
   1       3.4711900000     -1.0000000000
 S 1 
   1       1.6860808000     -1.0000000000
 S 1 
   1       0.8293125000      1.0000000000
 S 1 
   1       0.4110124000      1.0000000000
 S 1 
   1       0.2042190000      1.0000000000
 P 2 
   1      12.2564993000      1.4910316311
   2       4.8922575000     -1.4908224419
 P 1 
   1       1.9265460000      1.0000000000
 P 1 
   1       0.7525989000     -1.0000000000
 P 1 
   1       0.2932189000     -1.0000000000
 D 3 
   1      28.4370504000     -1.0829567244
   2       7.2772298000      0.5502349187
   3       2.3111621000     -0.5567798939
 D 1 
   1       0.8580943000     -1.0000000000
 D 1 
   1       0.3376227000     -1.0000000000
 F 2 
   1       1.2035685000      0.5557691438
   2       0.4700000000      0.5557691438
 G 1 
   1       0.7521100000     -1.0000000000
  end;

 # Auxiliary/J basis set for element : Br
 NewAuxJGTO Br
 S 12 
   1  181929.6907400000      0.0098592173
   2   21782.5062350000      0.0318437281
   3    7843.2391724000      0.1122124522
   4    2608.0271777000      0.2508709127
   5    1564.9696465000      0.1250956596
   6     920.5703545000      0.2502284057
   7     552.3963380000      0.1652736279
   8     191.1405907000     -0.0323762454
   9     108.0484426000      0.0526271009
  10      64.8354183000      0.2625580338
  11      38.1384803000      0.1582655532
  12      22.4343995000     -0.0934263273
 S 1 
   1      13.1967052000     -1.0000000000
 S 1 
   1       7.9187991000      1.0000000000
 S 1 
   1       4.6581170000      1.0000000000
 S 1 
   1       2.6331523000      1.0000000000
 S 1 
   1       0.5577180000      1.0000000000
 S 1 
   1       0.3152683000      1.0000000000
 S 1 
   1       0.1854519000      1.0000000000
 P 2 
   1       8.4481854000      0.4423986813
   2       3.0812881000     -1.2802496903
 P 1 
   1       1.1536778000      1.0000000000
 P 1 
   1       0.4389478000     -1.0000000000
 P 1 
   1       0.1679158000      1.0000000000
 D 3 
   1       8.7933629000     -1.3793406808
   2       3.5598266000      1.4275368284
   3       1.4866514000     -1.1228999981
 D 1 
   1       0.6328484000     -1.0000000000
 D 1 
   1       0.2711415000     -1.0000000000
 F 2 
   1       3.4681858000     -0.2539003863
   2       0.8708007000      1.0653068211
 F 1 
   1       0.2186427000      1.0000000000
 G 1 
   1       1.1078575000     -1.0000000000
  end;



           ************************************************************
           *        Program running with 6 parallel MPI-processes     *
           *              working on a common directory               *
           ************************************************************
------------------------------------------------------------------------------
                           ORCA GTO INTEGRAL CALCULATION
                           -- RI-GTO INTEGRALS CHOSEN --
------------------------------------------------------------------------------

                         BASIS SET STATISTICS AND STARTUP INFO

Gaussian basis set:
 # of primitive gaussian shells          ...   77
 # of primitive gaussian functions       ...  165
 # of contracted shells                  ...   35
 # of contracted basis functions         ...   83
 Highest angular momentum                ...    2
 Maximum contraction depth               ...    6
Auxiliary gaussian basis set:
 # of primitive gaussian shells          ...  116
 # of primitive gaussian functions       ...  322
 # of contracted shells                  ...   70
 # of contracted aux-basis functions     ...  218
 Highest angular momentum                ...    4
 Maximum contraction depth               ...   12
Ratio of auxiliary to basis functions    ...  2.63
Integral package used                  ... LIBINT
 One Electron integrals                  ... done
 Ordering auxiliary basis shells         ... done
 Integral threshhold             Thresh  ...  2.500e-11
 Primitive cut-off               TCut    ...  2.500e-12
 Pre-screening matrix                    ... done
 Shell pair data                         ... 
 Ordering of the shell pairs             ... done (   0.000 sec) 599 of 630 pairs
 Determination of significant pairs      ... done (   0.000 sec)
 Creation of shell pair data             ... done (   0.000 sec)
 Storage of shell pair data              ... done (   0.070 sec)
 Shell pair data done in (   0.071 sec)
 Computing two index integrals           ... done
 Cholesky decomposition of the V-matrix  ... done


Timings:
 Total evaluation time                   ...   0.384 sec (  0.006 min)
 One electron matrix time                ...   0.051 sec (  0.001 min) = 13.2%
 Schwartz matrix evaluation time         ...   0.145 sec (  0.002 min) = 37.8%
 Two index repulsion integral time       ...   0.040 sec (  0.001 min) = 10.5%
 Cholesky decomposition of V             ...   0.052 sec (  0.001 min) = 13.5%
 Three index repulsion integral time     ...   0.000 sec (  0.000 min) =  0.0%



           ************************************************************
           *        Program running with 6 parallel MPI-processes     *
           *              working on a common directory               *
           ************************************************************
-------------------------------------------------------------------------------
                                 ORCA SCF
-------------------------------------------------------------------------------

------------
SCF SETTINGS
------------
Hamiltonian:
 Density Functional     Method          .... DFT(GTOs)
 Exchange Functional    Exchange        .... PBE
   PBE kappa parameter   XKappa         ....  1.245000
   PBE mue parameter    XMuePBE         ....  0.219520
 Correlation Functional Correlation     .... PBE
   PBE beta parameter  CBetaPBE         ....  0.066725
 LDA part of GGA corr.  LDAOpt          .... PW91-LDA
 Gradients option       PostSCFGGA      .... off
   Density functional embedding theory  .... OFF
   NL short-range parameter             ....  3.700000
 RI-approximation to the Coulomb term is turned on
   Number of auxiliary basis functions  .... 218


General Settings:
 Integral files         IntName         .... CHBrClF
 Hartree-Fock type      HFTyp           .... RHF
 Total Charge           Charge          ....    0
 Multiplicity           Mult            ....    1
 Number of Electrons    NEL             ....   68
 Basis Dimension        Dim             ....   83
 Nuclear Repulsion      ENuc            ....    344.1720976862 Eh

Convergence Acceleration:
 DIIS                   CNVDIIS         .... on
   Start iteration      DIISMaxIt       ....    12
   Startup error        DIISStart       ....  0.200000
   # of expansion vecs  DIISMaxEq       ....     5
   Bias factor          DIISBfac        ....   1.050
   Max. coefficient     DIISMaxC        ....  10.000
 Newton-Raphson         CNVNR           .... off
 SOSCF                  CNVSOSCF        .... on
   Start iteration      SOSCFMaxIt      ....   150
   Startup grad/error   SOSCFStart      ....  0.003300
 Level Shifting         CNVShift        .... on
   Level shift para.    LevelShift      ....    0.2500
   Turn off err/grad.   ShiftErr        ....    0.0010
 Zerner damping         CNVZerner       .... off
 Static damping         CNVDamp         .... on
   Fraction old density DampFac         ....    0.7000
   Max. Damping (<1)    DampMax         ....    0.9800
   Min. Damping (>=0)   DampMin         ....    0.0000
   Turn off err/grad.   DampErr         ....    0.1000
 Fernandez-Rico         CNVRico         .... off

SCF Procedure:
 Maximum # iterations   MaxIter         ....   125
 SCF integral mode      SCFMode         .... Direct
   Integral package                     .... LIBINT
 Reset frequency        DirectResetFreq ....    20
 Integral Threshold     Thresh          ....  2.500e-11 Eh
 Primitive CutOff       TCut            ....  2.500e-12 Eh

Convergence Tolerance:
 Convergence Check Mode ConvCheckMode   .... Total+1el-Energy
 Convergence forced     ConvForced      .... 0
 Energy Change          TolE            ....  1.000e-08 Eh
 1-El. energy change                    ....  1.000e-05 Eh
 Orbital Gradient       TolG            ....  1.000e-05
 Orbital Rotation angle TolX            ....  1.000e-05
 DIIS Error             TolErr          ....  5.000e-07


Diagonalization of the overlap matrix:
Smallest eigenvalue                        ... 6.144e-03
Time for diagonalization                   ...    0.004 sec
Threshold for overlap eigenvalues          ... 1.000e-08
Number of eigenvalues below threshold      ... 0
Time for construction of square roots      ...    0.005 sec
Total time needed                          ...    0.012 sec

-------------------
DFT GRID GENERATION
-------------------

General Integration Accuracy     IntAcc      ...  4.670
Radial Grid Type                 RadialGrid  ... Gauss-Chebyshev
Angular Grid (max. acc.)         AngularGrid ... Lebedev-302
Angular grid pruning method      GridPruning ... 3 (G Style)
Weight generation scheme         WeightScheme... Becke
Basis function cutoff            BFCut       ...    1.0000e-11
Integration weight cutoff        WCut        ...    1.0000e-14
Grids for H and He will be reduced by one unit

# of grid points (after initial pruning)     ...  32232 (   0.0 sec)
# of grid points (after weights+screening)   ...  31561 (   0.1 sec)
nearest neighbour list constructed           ...    0.0 sec
Grid point re-assignment to atoms done       ...    0.0 sec
Grid point division into batches done        ...    0.3 sec
Reduced shell lists constructed in    0.3 sec

Total number of grid points                  ...    31561
Total number of batches                      ...      496
Average number of points per batch           ...       63
Average number of grid points per atom       ...     6312
Average number of shells per batch           ...    21.01 (60.03%)
Average number of basis functions per batch  ...    51.15 (61.63%)
Average number of large shells per batch     ...    18.38 (87.48%)
Average number of large basis fcns per batch ...    45.14 (88.25%)
Maximum spatial batch extension              ...  17.30, 16.19, 16.21 au
Average spatial batch extension              ...   0.64,  0.64,  0.63 au

Time for grid setup =    0.449 sec

------------------------------
INITIAL GUESS: MODEL POTENTIAL
------------------------------
Loading Hartree-Fock densities                     ... done
Calculating cut-offs                               ... done
Setting up the integral package                    ... done
Initializing the effective Hamiltonian             ... done
Starting the Coulomb interaction                   ... done (   0.0 sec)
Reading the grid                                   ... done
Mapping shells                                     ... done
Starting the XC term evaluation                    ... done (   0.1 sec)
  promolecular density results
     # of electrons  =     67.999480135
     EX              =   -132.572074092
     EC              =     -2.954181262
     EX+EC           =   -135.526255354
Transforming the Hamiltonian                       ... done (   0.0 sec)
Diagonalizing the Hamiltonian                      ... done (   0.0 sec)
Back transforming the eigenvectors                 ... done (   0.0 sec)
Now organizing SCF variables                       ... done
                      ------------------
                      INITIAL GUESS DONE (   0.8 sec)
                      ------------------
----------------------
INITIAL GUESS ORBITALS
----------------------
                      0         1         2         3         4         5   
                 -480.93305 -100.68633 -61.76207 -55.67989 -55.67963 -55.67963
                   2.00000   2.00000   2.00000   2.00000   2.00000   2.00000
                  --------  --------  --------  --------  --------  --------
  0C   1s        -0.000016 -0.000047  0.000045 -0.000084 -0.000002 -0.000003
  0C   2s         0.000053  0.000549 -0.000143  0.000076 -0.000008  0.000008
  0C   3s        -0.000213 -0.003037  0.000500 -0.000157  0.000224  0.000439
  0C   1pz        0.000013 -0.000012 -0.000047  0.000123 -0.000057  0.000033
  0C   1px       -0.000030 -0.000006  0.000092 -0.000208  0.000046  0.000029
  0C   1py       -0.000018 -0.000053  0.000058 -0.000135 -0.000032  0.000032
  0C   2pz       -0.000052  0.001006  0.000127 -0.000082  0.000123 -0.000506
  0C   2px        0.000055 -0.000843 -0.000137 -0.000179 -0.000239 -0.000129
  0C   2py        0.000018  0.000792 -0.000026 -0.000186  0.000252  0.000155
  0C   1dz2      -0.000000  0.000010  0.000000  0.000010 -0.000024  0.000091
  0C   1dxz      -0.000061 -0.000099  0.000173 -0.000409  0.000006  0.000017
  0C   1dyz      -0.000040  0.000063  0.000116 -0.000322 -0.000034 -0.000043
  0C   1dx2y2     0.000016 -0.000013 -0.000043  0.000073 -0.000075 -0.000066
  0C   1dxy       0.000050 -0.000050 -0.000143  0.000339  0.000005 -0.000030
  1Br  1s        -0.995017 -0.000004  0.347051  0.000091  0.000000  0.000000
  1Br  2s        -0.015584  0.000008 -1.046813 -0.000269 -0.000001 -0.000001
  1Br  3s         0.003899 -0.000064 -0.018997  0.000188  0.000003 -0.000005
  1Br  4s        -0.002242  0.000274  0.006595 -0.000711  0.000011  0.000026
  1Br  5s         0.001362 -0.000019 -0.003768  0.000667 -0.000123  0.000052
  1Br  1pz        0.000006 -0.000009  0.000114 -0.587279 -0.341836  0.720982
  1Br  1px       -0.000006  0.000009 -0.000116  0.586763  0.421605  0.677882
  1Br  1py       -0.000005 -0.000002 -0.000106  0.540674 -0.828847  0.047465
  1Br  2pz       -0.000020  0.000032  0.000066 -0.014149 -0.008190  0.017274
  1Br  2px        0.000019 -0.000032 -0.000063  0.014132  0.010102  0.016238
  1Br  2py        0.000017  0.000008 -0.000058  0.013022 -0.019856  0.001135
  1Br  3pz        0.000080 -0.000140 -0.000218  0.003827  0.002072 -0.004384
  1Br  3px       -0.000074  0.000145  0.000204 -0.003803 -0.002563 -0.004104
  1Br  3py       -0.000069 -0.000027  0.000189 -0.003508  0.005028 -0.000275
  1Br  4pz       -0.000163  0.000011  0.000415 -0.001615 -0.000769  0.001758
  1Br  4px        0.000154 -0.000059 -0.000392  0.001621  0.000989  0.001681
  1Br  4py        0.000151  0.000018 -0.000386  0.001506 -0.002064  0.000125
  1Br  1dz2       0.000001  0.000005 -0.000001  0.000001  0.000010 -0.000024
  1Br  1dxz      -0.000005  0.000019  0.000014 -0.000020 -0.000015  0.000001
  1Br  1dyz      -0.000005 -0.000005  0.000015 -0.000022  0.000012  0.000014
  1Br  1dx2y2    -0.000000  0.000004  0.000001 -0.000000  0.000022  0.000012
  1Br  1dxy       0.000004  0.000003 -0.000011  0.000017 -0.000010  0.000014
  1Br  2dz2      -0.000002 -0.000020  0.000005  0.000001 -0.000016  0.000047
  1Br  2dxz       0.000016 -0.000067 -0.000036  0.000019  0.000029 -0.000002
  1Br  2dyz       0.000018  0.000018 -0.000042  0.000031 -0.000030 -0.000033
  1Br  2dx2y2     0.000001 -0.000019 -0.000004  0.000005 -0.000043 -0.000025
  1Br  2dxy      -0.000013 -0.000012  0.000029 -0.000013  0.000021 -0.000029
  1Br  3dz2       0.000003  0.000068 -0.000007 -0.000013  0.000032 -0.000101
  1Br  3dxz      -0.000025  0.000089  0.000053  0.000046 -0.000054  0.000003
  1Br  3dyz      -0.000031 -0.000042  0.000067  0.000018  0.000067  0.000067
  1Br  3dx2y2    -0.000004  0.000076  0.000012 -0.000014  0.000089  0.000054
  1Br  3dxy       0.000021  0.000026 -0.000042 -0.000046 -0.000048  0.000065
  2Cl  1s         0.000001  0.994038 -0.000004  0.000005  0.000005 -0.000000
  2Cl  2s        -0.000013  0.022305  0.000035 -0.000039 -0.000038  0.000002
  2Cl  3s         0.000080 -0.010296 -0.000222  0.000259  0.000236  0.000015
  2Cl  4s        -0.000107  0.007448  0.000309 -0.000401 -0.000237 -0.000157
  2Cl  1pz        0.000005 -0.000058 -0.000014  0.000016  0.000014  0.000001
  2Cl  1px       -0.000006  0.000060  0.000016 -0.000020 -0.000014  0.000003
  2Cl  1py       -0.000002 -0.000052  0.000006 -0.000004 -0.000008  0.000001
  2Cl  2pz        0.000028 -0.000300 -0.000077  0.000088  0.000080  0.000002
  2Cl  2px       -0.000033  0.000313  0.000088 -0.000111 -0.000078  0.000011
  2Cl  2py       -0.000012 -0.000272  0.000033 -0.000025 -0.000041  0.000011
  2Cl  3pz       -0.000063  0.001099  0.000178 -0.000223 -0.000151 -0.000001
  2Cl  3px        0.000073 -0.001147 -0.000207  0.000305  0.000160  0.000063
  2Cl  3py        0.000029  0.001019 -0.000077  0.000091  0.000112 -0.000099
  2Cl  1dz2      -0.000004 -0.000001  0.000011 -0.000014 -0.000012  0.000018
  2Cl  1dxz       0.000020 -0.000155 -0.000055  0.000077  0.000054 -0.000000
  2Cl  1dyz       0.000007  0.000136 -0.000018  0.000032  0.000023  0.000008
  2Cl  1dx2y2    -0.000008  0.000016  0.000023 -0.000052 -0.000027  0.000008
  2Cl  1dxy      -0.000005 -0.000143  0.000013 -0.000018 -0.000021  0.000036
  3F   1s         0.000006  0.000002 -0.000016  0.000030 -0.000000  0.000004
  3F   2s         0.000055 -0.000001 -0.000148  0.000295 -0.000003  0.000039
  3F   3s        -0.000073  0.000408  0.000205 -0.000522 -0.000098 -0.000311
  3F   1pz       -0.000016 -0.000003  0.000041 -0.000070  0.000007  0.000015
  3F   1px        0.000009 -0.000039 -0.000023  0.000008 -0.000014 -0.000033
  3F   1py        0.000017  0.000038 -0.000044  0.000078 -0.000001 -0.000014
  3F   2pz       -0.000052 -0.000055  0.000136 -0.000223  0.000022  0.000100
  3F   2px        0.000047 -0.000041 -0.000131  0.000159 -0.000097 -0.000243
  3F   2py        0.000061  0.000026 -0.000162  0.000284 -0.000054 -0.000045
  3F   1dz2       0.000001 -0.000026 -0.000003  0.000011  0.000018  0.000013
  3F   1dxz       0.000009  0.000017 -0.000024  0.000043 -0.000033 -0.000019
  3F   1dyz       0.000013 -0.000018 -0.000033  0.000042 -0.000021 -0.000033
  3F   1dx2y2    -0.000002 -0.000009  0.000005 -0.000015 -0.000010 -0.000029
  3F   1dxy      -0.000007  0.000068  0.000020 -0.000036 -0.000002  0.000040
  4H   1s         0.000029  0.000244 -0.000074  0.000090 -0.000043  0.000050
  4H   2s        -0.000081  0.000070  0.000231 -0.000136  0.000077 -0.000274
  4H   1pz       -0.000019 -0.000019  0.000052 -0.000116  0.000019 -0.000017
  4H   1px        0.000021  0.000040 -0.000057  0.000067 -0.000021  0.000081
  4H   1py        0.000023 -0.000002 -0.000064  0.000063 -0.000060  0.000053
                      6         7         8         9        10        11   
                 -24.44514 -10.08387  -9.23034  -8.42669  -7.04735  -7.04580
                   2.00000   2.00000   2.00000   2.00000   2.00000   2.00000
                  --------  --------  --------  --------  --------  --------
  0C   1s        -0.000386 -0.987844 -0.000257  0.000152 -0.000124  0.000007
  0C   2s         0.000379 -0.051244  0.001413 -0.000421  0.000735 -0.000008
  0C   3s        -0.021114  0.024879 -0.007005  0.000478 -0.006932 -0.000442
  0C   1pz       -0.000287  0.000728 -0.000213 -0.000297 -0.000051 -0.000127
  0C   1px       -0.000257  0.001720  0.000177  0.000393 -0.000036  0.000170
  0C   1py       -0.000262 -0.003445 -0.000303  0.000284 -0.000114  0.000119
  0C   2pz        0.003759  0.003959  0.002551  0.000208  0.001531  0.000862
  0C   2px        0.004757  0.002806 -0.002181 -0.000356 -0.001802 -0.001600
  0C   2py       -0.001353 -0.003602  0.001666  0.000170  0.001663 -0.001351
  0C   1dz2      -0.000018 -0.000040  0.000044 -0.000010  0.000044  0.000028
  0C   1dxz       0.001146 -0.002103 -0.000477  0.000478 -0.000598  0.000025
  0C   1dyz      -0.001153  0.000537  0.000353  0.000324  0.000456  0.000018
  0C   1dx2y2    -0.000050 -0.000097 -0.000000 -0.000119  0.000014  0.000076
  0C   1dxy      -0.001257  0.000231 -0.000285 -0.000418 -0.000461 -0.000000
  1Br  1s        -0.000009 -0.000038 -0.000009  0.136596 -0.000008  0.000010
  1Br  2s         0.000020  0.000088  0.000015 -0.516752  0.000018 -0.000024
  1Br  3s        -0.000140 -0.000592 -0.000158  1.091613 -0.000124  0.000159
  1Br  4s        -0.000357  0.001240  0.000885  0.035905  0.000472 -0.000801
  1Br  5s         0.005652 -0.005337 -0.000659 -0.013415  0.000376 -0.000031
  1Br  1pz       -0.000018 -0.000093 -0.000023  0.000561 -0.000015  0.000017
  1Br  1px        0.000026  0.000089  0.000022 -0.000569  0.000016 -0.000016
  1Br  1py        0.000021  0.000081 -0.000007 -0.000523  0.000001  0.000005
  1Br  2pz        0.000063  0.000314  0.000079 -0.001300  0.000055 -0.000063
  1Br  2px       -0.000088 -0.000299 -0.000078  0.001321 -0.000056  0.000057
  1Br  2py       -0.000072 -0.000272  0.000023  0.001214 -0.000004 -0.000017
  1Br  3pz       -0.000191 -0.000804 -0.000390 -0.000813 -0.000275  0.000354
  1Br  3px        0.000284  0.000740  0.000395  0.000782  0.000278 -0.000330
  1Br  3py        0.000272  0.000621 -0.000083  0.000716  0.000012  0.000072
  1Br  4pz       -0.002901  0.001285  0.000364  0.000952 -0.000075 -0.000227
  1Br  4px        0.001329 -0.001859 -0.000448 -0.000894  0.000084  0.000304
  1Br  4py        0.002058 -0.000569  0.000003 -0.000909  0.000137 -0.000550
  1Br  1dz2       0.000035  0.000010  0.000005  0.000002  0.000002  0.000006
  1Br  1dxz      -0.000046 -0.000025  0.000041 -0.000108  0.000026 -0.000029
  1Br  1dyz       0.000017 -0.000026 -0.000007 -0.000096 -0.000008  0.000010
  1Br  1dx2y2    -0.000014 -0.000028  0.000003  0.000012  0.000005  0.000014
  1Br  1dxy       0.000028  0.000040  0.000005  0.000103  0.000007 -0.000008
  1Br  2dz2      -0.000151 -0.000053 -0.000026  0.000012 -0.000013 -0.000030
  1Br  2dxz       0.000215  0.000230 -0.000183 -0.000177 -0.000116  0.000141
  1Br  2dyz      -0.000035  0.000234  0.000031 -0.000180  0.000040 -0.000048
  1Br  2dx2y2     0.000063  0.000125 -0.000017 -0.000008 -0.000026 -0.000068
  1Br  2dxy      -0.000138 -0.000298 -0.000024  0.000155 -0.000038  0.000039
  1Br  3dz2       0.000506  0.000190  0.000112 -0.000005  0.000068  0.000054
  1Br  3dxz      -0.000823 -0.001266  0.000348 -0.000052  0.000161 -0.000295
  1Br  3dyz      -0.000431 -0.001375 -0.000083 -0.000001 -0.000140  0.000158
  1Br  3dx2y2    -0.000264 -0.000394  0.000110  0.000059  0.000137  0.000169
  1Br  3dxy       0.000569  0.001448  0.000056  0.000059  0.000137 -0.000120
  2Cl  1s         0.000001  0.000029  0.311434 -0.000016 -0.000615  0.000002
  2Cl  2s         0.000002 -0.000315 -1.019738  0.000115  0.002414 -0.000010
  2Cl  3s        -0.000947  0.001010 -0.053893 -0.000721 -0.003215 -0.000054
  2Cl  4s         0.004837 -0.004081  0.024376  0.001258  0.006377  0.000489
  2Cl  1pz        0.000028  0.000111  0.000807 -0.000030  0.586340 -0.274449
  2Cl  1px        0.000004 -0.000107 -0.000792  0.000035 -0.582132  0.464473
  2Cl  1py        0.000011  0.000085  0.000719  0.000014  0.526971  0.818463
  2Cl  2pz        0.000072  0.000318 -0.000962 -0.000216 -0.032006  0.014644
  2Cl  2px        0.000142 -0.000275  0.000992  0.000247  0.031800 -0.024788
  2Cl  2py       -0.000031  0.000157 -0.000862  0.000091 -0.028770 -0.043698
  2Cl  3pz        0.000890 -0.000978  0.002675  0.000672  0.006925 -0.002155
  2Cl  3px       -0.002369  0.000385 -0.002783 -0.000748 -0.006917  0.003811
  2Cl  3py        0.001641  0.000153  0.002495 -0.000181  0.006228  0.007151
  2Cl  1dz2      -0.000260 -0.000212 -0.000017  0.000051  0.000006 -0.000004
  2Cl  1dxz      -0.000379 -0.000928 -0.000190 -0.000192 -0.000036  0.000004
  2Cl  1dyz       0.000270  0.000965  0.000163 -0.000039  0.000025  0.000049
  2Cl  1dx2y2     0.000164 -0.000007  0.000010  0.000093  0.000006 -0.000040
  2Cl  1dxy      -0.000324 -0.000970 -0.000181  0.000024 -0.000033 -0.000035
  3F   1s         0.988539 -0.000289  0.000013 -0.000035  0.000031  0.000002
  3F   2s        -0.041790  0.000255  0.000097 -0.000358  0.000255  0.000018
  3F   3s         0.028400  0.007648  0.000816  0.000677  0.000435  0.000140
  3F   1pz        0.001318 -0.000242 -0.000012  0.000066 -0.000038  0.000018
  3F   1px        0.001348 -0.000209 -0.000097 -0.000056 -0.000141  0.000030
  3F   1py       -0.001343  0.000346  0.000106 -0.000081  0.000137  0.000056
  3F   2pz        0.002481  0.004088 -0.000023  0.000323 -0.000067  0.000014
  3F   2px        0.002589  0.004237 -0.000129 -0.000416 -0.000248  0.000294
  3F   2py       -0.002902 -0.003519  0.000166 -0.000432  0.000217  0.000403
  3F   1dz2      -0.000026 -0.000043 -0.000057 -0.000005 -0.000068  0.000005
  3F   1dxz      -0.000192 -0.000189  0.000066 -0.000063  0.000068  0.000049
  3F   1dyz       0.000231  0.000213 -0.000065 -0.000054 -0.000063  0.000028
  3F   1dx2y2    -0.000057 -0.000064 -0.000015 -0.000001 -0.000017  0.000016
  3F   1dxy       0.000214  0.000231  0.000142  0.000052  0.000123  0.000035
  4H   1s         0.001491  0.004270  0.000601 -0.000072  0.000620  0.000348
  4H   2s         0.002398 -0.007303 -0.000020  0.000915  0.000558  0.000254
  4H   1pz       -0.000472 -0.001893  0.000002  0.000146 -0.000044 -0.000076
  4H   1px       -0.000478 -0.001852  0.000036 -0.000192 -0.000050  0.000023
  4H   1py       -0.000005 -0.001286  0.000058 -0.000228 -0.000063  0.000179
                     12        13        14        15        16        17   
                  -7.04579  -6.29861  -6.29573  -6.29572  -2.50048  -2.49877
                   2.00000   2.00000   2.00000   2.00000   2.00000   2.00000
                  --------  --------  --------  --------  --------  --------
  0C   1s        -0.000010 -0.000004  0.000003  0.000005  0.002389  0.000010
  0C   2s        -0.000007 -0.000041  0.000008 -0.000002 -0.003716  0.000215
  0C   3s         0.001176  0.000140 -0.000085 -0.000780  0.009776 -0.001253
  0C   1pz        0.000120 -0.000145  0.000088 -0.000008 -0.002156 -0.000620
  0C   1px        0.000076  0.000249 -0.000044 -0.000052  0.002197  0.000152
  0C   1py        0.000064  0.000122  0.000054 -0.000026  0.002280 -0.000731
  0C   2pz       -0.001438  0.000159 -0.000426  0.000616  0.001912  0.002524
  0C   2px       -0.002296  0.000122  0.000283  0.000326 -0.001639 -0.000220
  0C   2py        0.000207  0.000228 -0.000231 -0.000347 -0.002193  0.002687
  0C   1dz2      -0.000091 -0.000012  0.000062 -0.000087 -0.000016 -0.000476
  0C   1dxz       0.000020  0.000387  0.000007 -0.000025  0.001643  0.000280
  0C   1dyz      -0.000069  0.000309  0.000021  0.000060  0.001369 -0.000071
  0C   1dx2y2     0.000038 -0.000093  0.000048  0.000100 -0.000100 -0.000369
  0C   1dxy      -0.000085 -0.000336 -0.000017  0.000033 -0.001347  0.000298
  1Br  1s        -0.000000 -0.000379 -0.000002 -0.000001  0.000172  0.000001
  1Br  2s         0.000001  0.001376  0.000006  0.000003 -0.000543 -0.000002
  1Br  3s        -0.000008 -0.003365 -0.000018 -0.000003  0.001988  0.000012
  1Br  4s         0.000151  0.001826  0.000002 -0.000037 -0.001147 -0.000111
  1Br  5s        -0.000749 -0.001320  0.000214  0.000013 -0.006132  0.000443
  1Br  1pz        0.000001  0.258551  0.259723 -0.242919  0.000659 -0.000381
  1Br  1px        0.000003 -0.260650 -0.065780 -0.347923 -0.000660  0.000057
  1Br  1py       -0.000002 -0.241769  0.348673  0.115309 -0.000617 -0.000472
  1Br  2pz       -0.000005 -0.632074 -0.635008  0.593923 -0.001807  0.001033
  1Br  2px       -0.000010  0.637206  0.160827  0.850652  0.001811 -0.000155
  1Br  2py        0.000008  0.591048 -0.852486 -0.281923  0.001694  0.001278
  1Br  3pz       -0.000014 -0.014575 -0.013946  0.013050  0.001305 -0.000633
  1Br  3px        0.000032  0.014665  0.003543  0.018666 -0.001328  0.000086
  1Br  3py       -0.000031  0.013604 -0.018707 -0.006204 -0.001228 -0.000804
  1Br  4pz        0.000628  0.002812  0.002362 -0.002341  0.002803 -0.000947
  1Br  4px        0.000064 -0.002840 -0.000547 -0.003308 -0.002753  0.000261
  1Br  4py       -0.000267 -0.002658  0.003371  0.001108 -0.002509 -0.000780
  1Br  1dz2      -0.000011  0.000019  0.000401 -0.000376 -0.018169  0.537803
  1Br  1dxz       0.000006 -0.000557 -0.000294 -0.000091  0.508358 -0.360450
  1Br  1dyz       0.000013 -0.000511  0.000095  0.000301  0.474148  0.092970
  1Br  1dx2y2     0.000007  0.000044  0.000348  0.000409 -0.034706  0.406667
  1Br  1dxy       0.000010  0.000520 -0.000259  0.000183 -0.474761 -0.343395
  1Br  2dz2       0.000058  0.000013  0.000304 -0.000295 -0.005800  0.171597
  1Br  2dxz      -0.000032 -0.000475 -0.000226 -0.000070  0.162467 -0.115008
  1Br  2dyz      -0.000068 -0.000452  0.000082  0.000249  0.151539  0.029677
  1Br  2dx2y2    -0.000037  0.000026  0.000267  0.000318 -0.011074  0.129759
  1Br  2dxy      -0.000050  0.000440 -0.000210  0.000144 -0.151737 -0.109585
  1Br  3dz2      -0.000220  0.000021 -0.000062  0.000089 -0.000628  0.017665
  1Br  3dxz       0.000096 -0.000154  0.000045  0.000016  0.017089 -0.011841
  1Br  3dyz       0.000243 -0.000114 -0.000046 -0.000096  0.015926  0.003004
  1Br  3dx2y2     0.000155  0.000029 -0.000062 -0.000087 -0.001215  0.013336
  1Br  3dxy       0.000129  0.000146  0.000077 -0.000044 -0.015939 -0.011217
  2Cl  1s         0.000000 -0.000006 -0.000006 -0.000002 -0.000007  0.000010
  2Cl  2s        -0.000005  0.000053  0.000051  0.000018  0.000038 -0.000065
  2Cl  3s         0.000054 -0.000405 -0.000313 -0.000147  0.000309 -0.000097
  2Cl  4s        -0.000012  0.000725  0.000273  0.000351 -0.001839  0.001997
  2Cl  1pz        0.735953 -0.000023 -0.000019 -0.000010 -0.000021  0.000039
  2Cl  1px        0.637276  0.000029  0.000021  0.000003  0.000018 -0.000034
  2Cl  1py       -0.114869  0.000007  0.000013  0.000003 -0.000010 -0.000014
  2Cl  2pz       -0.039270 -0.000121 -0.000097 -0.000042  0.000004  0.000129
  2Cl  2px       -0.034032  0.000151  0.000103  0.000024 -0.000020 -0.000077
  2Cl  2py        0.006142  0.000035  0.000060  0.000006 -0.000003 -0.000104
  2Cl  3pz        0.006301  0.000389  0.000212  0.000092 -0.000777  0.000407
  2Cl  3px        0.005520 -0.000496 -0.000200 -0.000171  0.000823 -0.000789
  2Cl  3py       -0.000953 -0.000100 -0.000212  0.000073 -0.000330  0.000762
  2Cl  1dz2       0.000053  0.000030  0.000023 -0.000013 -0.000082 -0.000062
  2Cl  1dxz       0.000004 -0.000128 -0.000074 -0.000028  0.000191 -0.000085
  2Cl  1dyz       0.000035 -0.000033 -0.000027 -0.000021 -0.000137  0.000077
  2Cl  1dx2y2    -0.000048  0.000082  0.000043  0.000002 -0.000137  0.000062
  2Cl  1dxy       0.000039  0.000015  0.000044 -0.000034  0.000143 -0.000144
  3F   1s         0.000019 -0.000029  0.000001 -0.000007 -0.000201 -0.000032
  3F   2s         0.000228 -0.000323  0.000014 -0.000068 -0.000443 -0.000165
  3F   3s        -0.001615  0.000752 -0.000009  0.000491 -0.001442  0.000438
  3F   1pz       -0.000066  0.000052 -0.000000 -0.000015  0.000369 -0.000007
  3F   1px        0.000100 -0.000021  0.000000  0.000046  0.000161 -0.000006
  3F   1py       -0.000051 -0.000063 -0.000008  0.000011 -0.000343 -0.000059
  3F   2pz       -0.000455  0.000298  0.000020 -0.000120 -0.000063 -0.000525
  3F   2px        0.000407 -0.000242 -0.000001  0.000372  0.000095  0.000008
  3F   2py       -0.000004 -0.000384  0.000024  0.000068  0.000187 -0.000704
  3F   1dz2      -0.000044 -0.000003 -0.000014 -0.000017 -0.000045 -0.000027
  3F   1dxz      -0.000033 -0.000043  0.000024  0.000035 -0.000136 -0.000056
  3F   1dyz       0.000052 -0.000046  0.000006  0.000035  0.000024 -0.000021
  3F   1dx2y2     0.000016 -0.000003 -0.000005  0.000029  0.000110 -0.000040
  3F   1dxy      -0.000086  0.000036  0.000017 -0.000041  0.000128 -0.000040
  4H   1s         0.000462 -0.000017  0.000075 -0.000037 -0.000939 -0.000522
  4H   2s         0.000129  0.000321 -0.000287  0.000361 -0.001280 -0.000875
  4H   1pz        0.000172  0.000137 -0.000029  0.000011  0.000188  0.000105
  4H   1px        0.000022 -0.000130  0.000066 -0.000086  0.000257  0.000048
  4H   1py       -0.000038 -0.000132  0.000091 -0.000040  0.000304 -0.000237
                     18        19        20        21        22        23   
                  -2.49877  -2.49652  -2.49652  -1.33138  -0.83208  -0.78179
                   2.00000   2.00000   2.00000   2.00000   2.00000   2.00000
                  --------  --------  --------  --------  --------  --------
  0C   1s        -0.000030 -0.000014  0.000017 -0.126316 -0.123010  0.042513
  0C   2s        -0.000115  0.000265 -0.000187  0.239510  0.259850 -0.091060
  0C   3s         0.000554 -0.000695  0.000161 -0.005592  0.028221 -0.008943
  0C   1pz       -0.000456 -0.000029  0.000059 -0.114333  0.020958 -0.146628
  0C   1px       -0.000832 -0.000035  0.000064 -0.119036  0.046882  0.127272
  0C   1py        0.000240  0.000004 -0.000065  0.110180 -0.109937  0.025420
  0C   2pz        0.001659  0.000509  0.000244 -0.010385  0.007031 -0.030488
  0C   2px        0.001569 -0.000426  0.000723 -0.008371  0.011208  0.021324
  0C   2py       -0.000849  0.000757  0.000246  0.003592 -0.028910  0.008368
  0C   1dz2      -0.000430 -0.000008  0.000043 -0.000473  0.002370  0.006047
  0C   1dxz      -0.000111  0.000091  0.000004  0.018910 -0.013088  0.002833
  0C   1dyz       0.000399 -0.000017  0.000051 -0.020993  0.005492  0.005399
  0C   1dx2y2     0.000543  0.000024 -0.000047  0.001330  0.002188 -0.004908
  0C   1dxy       0.000189  0.000031  0.000066 -0.021304  0.003042 -0.007451
  1Br  1s         0.000001  0.000000 -0.000000 -0.001637 -0.021015  0.034534
  1Br  2s        -0.000003 -0.000001  0.000001  0.004772  0.059098 -0.096794
  1Br  3s         0.000020  0.000001 -0.000007 -0.020835 -0.276972  0.456581
  1Br  4s        -0.000084 -0.000026 -0.000013  0.023678  0.376140 -0.627058
  1Br  5s        -0.000263  0.000147  0.000287  0.011759  0.104197 -0.178293
  1Br  1pz       -0.000307  0.000002 -0.000004 -0.002669 -0.009643  0.009442
  1Br  1px       -0.000489 -0.000000 -0.000002  0.001222  0.011146 -0.009328
  1Br  1py        0.000188  0.000001  0.000002  0.002524  0.007033 -0.011469
  1Br  2pz        0.000831 -0.000004  0.000013  0.007906  0.029170 -0.028628
  1Br  2px        0.001324  0.000000  0.000006 -0.003627 -0.033712  0.028278
  1Br  2py       -0.000507 -0.000002 -0.000006 -0.007475 -0.021269  0.034768
  1Br  3pz       -0.000481  0.000004 -0.000026 -0.009257 -0.041674  0.042222
  1Br  3px       -0.000841  0.000007 -0.000002  0.004008  0.047705 -0.041465
  1Br  3py        0.000282 -0.000009  0.000015  0.008606  0.030248 -0.050714
  1Br  4pz       -0.000457 -0.000128 -0.000145 -0.005336 -0.019731  0.019357
  1Br  4px       -0.000930  0.000103  0.000052  0.004349  0.024252 -0.018768
  1Br  4py        0.000226 -0.000059  0.000097  0.006479  0.016574 -0.025061
  1Br  1dz2       0.438048  0.253404  0.407001 -0.001742 -0.000516 -0.000811
  1Br  1dxz       0.142973  0.549768  0.003159  0.002859  0.012120 -0.009034
  1Br  1dyz      -0.393038 -0.278934  0.495334  0.006008  0.007486 -0.011399
  1Br  1dx2y2    -0.545412  0.442309 -0.227226  0.002346 -0.003497 -0.001492
  1Br  1dxy      -0.216350  0.268070  0.499113 -0.002702 -0.009163  0.011071
  1Br  2dz2       0.139788  0.080757  0.129722  0.000145  0.000129 -0.000164
  1Br  2dxz       0.045624  0.175250  0.001012  0.000487  0.000178  0.000411
  1Br  2dyz      -0.125421 -0.088907  0.157891  0.000761 -0.000174  0.000221
  1Br  2dx2y2    -0.174057  0.140967 -0.072425 -0.000098 -0.000042 -0.000074
  1Br  2dxy      -0.069036  0.085450  0.159093 -0.000569 -0.000219 -0.000089
  1Br  3dz2       0.014308  0.007978  0.012764 -0.000116 -0.000102  0.001453
  1Br  3dxz       0.004682  0.017127  0.000072 -0.001993 -0.013166  0.009097
  1Br  3dyz      -0.012831 -0.008722  0.015450 -0.004101 -0.007109  0.012691
  1Br  3dx2y2    -0.017786  0.013898 -0.007121 -0.000437  0.003624  0.002158
  1Br  3dxy      -0.007091  0.008364  0.015601  0.002390  0.010517 -0.012625
  2Cl  1s        -0.000004 -0.000008 -0.000000  0.002653  0.061679  0.050903
  2Cl  2s         0.000031  0.000068  0.000002 -0.015806 -0.384557 -0.318721
  2Cl  3s        -0.000070 -0.000496 -0.000007  0.018483  0.522958  0.438587
  2Cl  4s        -0.000202  0.001264 -0.000048  0.010853  0.249458  0.212555
  2Cl  1pz       -0.000009 -0.000025 -0.000005  0.002105  0.026316  0.004803
  2Cl  1px        0.000019  0.000023 -0.000005 -0.004798 -0.023579 -0.007295
  2Cl  1py        0.000004  0.000002  0.000001  0.004404  0.018496  0.013349
  2Cl  2pz        0.000011 -0.000137 -0.000021  0.002582  0.042982  0.008876
  2Cl  2px        0.000101  0.000129 -0.000015 -0.006870 -0.038805 -0.012874
  2Cl  2py        0.000025 -0.000010  0.000006  0.006100  0.030311  0.022739
  2Cl  3pz       -0.000409  0.000541 -0.000022  0.003715  0.036648  0.006138
  2Cl  3px       -0.000264 -0.000523 -0.000024 -0.004602 -0.032258 -0.010296
  2Cl  3py       -0.000069  0.000252 -0.000060  0.005475  0.027597  0.017423
  2Cl  1dz2      -0.000134  0.000014 -0.000019 -0.001002  0.002777 -0.002450
  2Cl  1dxz       0.000018 -0.000079 -0.000006 -0.001695 -0.014700 -0.002398
  2Cl  1dyz      -0.000083  0.000050 -0.000018  0.001768  0.012038  0.005739
  2Cl  1dx2y2     0.000052  0.000025  0.000030  0.000071  0.001917 -0.002315
  2Cl  1dxy      -0.000049 -0.000047 -0.000007 -0.003367 -0.009958 -0.007526
  3F   1s         0.000156  0.000022 -0.000040  0.280401 -0.073991  0.025432
  3F   2s         0.000249  0.000111 -0.000230  0.564693 -0.159220  0.055191
  3F   3s         0.001113 -0.000242  0.000619  0.262384 -0.112504  0.041495
  3F   1pz       -0.000231 -0.000005  0.000049 -0.099279 -0.022803  0.102043
  3F   1px        0.000040  0.000036 -0.000065 -0.098267 -0.036940 -0.063816
  3F   1py        0.000216  0.000037 -0.000019  0.096793  0.068846 -0.029297
  3F   2pz       -0.000425 -0.000169  0.000213  0.010072  0.014165 -0.049367
  3F   2px        0.000452  0.000069 -0.000134  0.008731  0.020722  0.029421
  3F   2py        0.000256  0.000059 -0.000196 -0.008817 -0.031653  0.014131
  3F   1dz2      -0.000080 -0.000004  0.000016  0.000140 -0.001269 -0.005185
  3F   1dxz       0.000071 -0.000005  0.000005  0.008873  0.001054 -0.000769
  3F   1dyz       0.000131  0.000022 -0.000036 -0.008873 -0.002800  0.005335
  3F   1dx2y2     0.000117  0.000011 -0.000014  0.000166 -0.001191  0.003439
  3F   1dxy      -0.000081  0.000006 -0.000003 -0.008668 -0.003375 -0.002648
  4H   1s        -0.000399 -0.000022 -0.000105  0.019072  0.066191 -0.026485
  4H   2s        -0.000498 -0.000288 -0.000684  0.006462  0.006788 -0.001491
  4H   1pz        0.000065 -0.000004  0.000031 -0.003127 -0.004546 -0.000869
  4H   1px       -0.000198  0.000100  0.000061 -0.003261 -0.004367  0.004338
  4H   1py        0.000079  0.000020  0.000086 -0.004244 -0.006089  0.002391
                     24        25        26        27        28        29   
                  -0.67094  -0.60846  -0.56697  -0.53370  -0.38419  -0.37042
                   2.00000   2.00000   2.00000   2.00000   2.00000   2.00000
                  --------  --------  --------  --------  --------  --------
  0C   1s        -0.143062 -0.028198  0.013415  0.107981  0.001398  0.007723
  0C   2s         0.332847  0.052051 -0.028737 -0.233229 -0.011391 -0.021344
  0C   3s        -0.015659  0.046535 -0.015123 -0.157575 -0.014445 -0.033586
  0C   1pz       -0.054345  0.250003  0.174800 -0.140020  0.132458 -0.162736
  0C   1px       -0.024154  0.249502 -0.203520 -0.106187  0.049689  0.193225
  0C   1py        0.192092  0.132056  0.038321  0.239485  0.190480  0.055288
  0C   2pz        0.016114  0.051188  0.070374 -0.031737  0.037041 -0.052809
  0C   2px        0.025443  0.054521 -0.068998 -0.011702  0.032501  0.080370
  0C   2py        0.023040  0.068739  0.011499  0.093556  0.062441  0.028477
  0C   1dz2      -0.002042 -0.009531 -0.027985 -0.005594  0.020538 -0.016478
  0C   1dxz       0.008239 -0.018043 -0.000206  0.004995  0.017678  0.000656
  0C   1dyz      -0.009605  0.004818  0.010984 -0.017368  0.003818  0.023813
  0C   1dx2y2    -0.005948 -0.021035  0.015084 -0.014961  0.022530  0.018220
  0C   1dxy      -0.010717  0.003685 -0.014680 -0.014583  0.016754 -0.019852
  1Br  1s         0.015236 -0.000509  0.012520 -0.018855 -0.001431 -0.003969
  1Br  2s        -0.042412  0.001425 -0.034555  0.051988  0.003940  0.010929
  1Br  3s         0.202757 -0.006743  0.167931 -0.253135 -0.019263 -0.053393
  1Br  4s        -0.283089  0.004315 -0.241487  0.358209  0.023182  0.060812
  1Br  5s        -0.082871  0.023085 -0.108384  0.194287  0.032876  0.112461
  1Br  1pz       -0.001435  0.010232 -0.012242  0.025570  0.033070  0.029769
  1Br  1px        0.003948  0.006119  0.004657 -0.030142 -0.014899 -0.052314
  1Br  1py        0.005519  0.002699  0.018474 -0.019882  0.021408 -0.033794
  1Br  2pz        0.004345 -0.031157  0.037218 -0.077973 -0.101451 -0.091358
  1Br  2px       -0.011965 -0.018657 -0.014098  0.091956  0.045698  0.160492
  1Br  2py       -0.016752 -0.008226 -0.056263  0.060579 -0.065648  0.103763
  1Br  3pz       -0.006234  0.045887 -0.053061  0.114973  0.154092  0.141402
  1Br  3px        0.016022  0.026605  0.019694 -0.136386 -0.069629 -0.243827
  1Br  3py        0.023677  0.010946  0.082044 -0.087946  0.097285 -0.161756
  1Br  4pz       -0.008849  0.024738 -0.037360  0.065212  0.134278  0.098017
  1Br  4px        0.018269  0.029896  0.002201 -0.075497 -0.062269 -0.219504
  1Br  4py        0.021238  0.014696  0.051358 -0.057157  0.108714 -0.110895
  1Br  1dz2       0.002226  0.011187  0.000501  0.000372  0.007585 -0.002039
  1Br  1dxz       0.001754 -0.002136  0.003107 -0.016197 -0.011029 -0.012251
  1Br  1dyz       0.002962 -0.005142  0.012090 -0.011079 -0.000406 -0.007774
  1Br  1dx2y2     0.001774 -0.002058  0.007267  0.006367  0.005588  0.001748
  1Br  1dxy      -0.004849 -0.005447 -0.006130  0.013720 -0.004650  0.013867
  1Br  2dz2       0.000211  0.000550  0.000059 -0.000283  0.000264 -0.000269
  1Br  2dxz       0.000466  0.000637 -0.000597  0.002015 -0.000674  0.001000
  1Br  2dyz      -0.000092  0.000401 -0.000525  0.000888  0.000820  0.002378
  1Br  2dx2y2    -0.000009 -0.000051  0.000056 -0.000275  0.000323  0.000330
  1Br  2dxy      -0.000798 -0.000795  0.001309 -0.000761 -0.001671 -0.000867
  1Br  3dz2      -0.003716 -0.018845 -0.000455  0.000741 -0.015252  0.005898
  1Br  3dxz      -0.003533 -0.000553  0.000351  0.013419  0.023808  0.018937
  1Br  3dyz      -0.003074  0.005716 -0.014805  0.010886 -0.003638  0.003014
  1Br  3dx2y2    -0.002657  0.003872 -0.012256 -0.008129 -0.012681 -0.006179
  1Br  3dxy       0.008996  0.011902  0.001249 -0.015363  0.016223 -0.022699
  2Cl  1s        -0.019823  0.000683  0.024950  0.022846  0.004960 -0.003690
  2Cl  2s         0.125210 -0.004203 -0.158890 -0.145685 -0.031627  0.023366
  2Cl  3s        -0.176235  0.001620  0.223472  0.201674  0.038155 -0.025606
  2Cl  4s        -0.083088  0.016947  0.158732  0.163258  0.052576 -0.050315
  2Cl  1pz        0.011129  0.012711 -0.029348 -0.067111 -0.100210  0.101749
  2Cl  1px       -0.006955  0.022059  0.044050  0.052496  0.122979 -0.014097
  2Cl  1py        0.017142  0.005634 -0.050689 -0.036839  0.017494  0.134448
  2Cl  2pz        0.017634  0.020273 -0.050419 -0.115117 -0.173673  0.176861
  2Cl  2px       -0.011425  0.037509  0.074395  0.090210  0.214091 -0.026457
  2Cl  2py        0.027943  0.008561 -0.086021 -0.062184  0.027605  0.235172
  2Cl  3pz        0.021651  0.029452 -0.035791 -0.102415 -0.211656  0.217086
  2Cl  3px       -0.014479  0.032396  0.069456  0.077475  0.247714 -0.021538
  2Cl  3py        0.031209  0.012782 -0.078380 -0.061092  0.049438  0.271622
  2Cl  1dz2      -0.001120  0.009931  0.005938 -0.008348 -0.004358  0.002625
  2Cl  1dxz      -0.003128  0.001374  0.007193  0.016574  0.024428 -0.007030
  2Cl  1dyz       0.008153  0.008128 -0.008566 -0.014834 -0.001606  0.022430
  2Cl  1dx2y2    -0.004243 -0.011350  0.003161 -0.004684 -0.013389 -0.009532
  2Cl  1dxy      -0.005523  0.005393  0.016519  0.009192  0.004013 -0.009312
  3F   1s        -0.115576  0.034395 -0.002332 -0.005807 -0.002172 -0.000938
  3F   2s        -0.243875  0.068770 -0.004999 -0.006098 -0.008913 -0.004060
  3F   3s        -0.267245  0.113219 -0.008582 -0.058968  0.011784  0.013744
  3F   1pz       -0.304234 -0.008869 -0.408569 -0.195529  0.235594 -0.223074
  3F   1px       -0.338972 -0.012257  0.340892 -0.279884  0.097808  0.289307
  3F   1py        0.169708 -0.485369 -0.011637 -0.117959  0.334432  0.074459
  3F   2pz        0.134432  0.022133  0.224303  0.092694 -0.152367  0.156735
  3F   2px        0.153088  0.024291 -0.190551  0.139913 -0.061127 -0.200563
  3F   2py       -0.065125  0.245483  0.007003  0.078118 -0.228797 -0.053906
  3F   1dz2       0.001833  0.007680  0.015915  0.002708 -0.002461  0.001840
  3F   1dxz       0.014238  0.004645  0.001087  0.006958 -0.002002 -0.000522
  3F   1dyz      -0.007925  0.009850 -0.008813  0.000643 -0.000836 -0.001477
  3F   1dx2y2     0.005164  0.013240 -0.007646  0.008400 -0.002529 -0.001517
  3F   1dxy      -0.009220  0.009572  0.008309 -0.001204 -0.001468  0.000860
  4H   1s         0.132618  0.224139 -0.013879 -0.138331  0.247187  0.047559
  4H   2s         0.018773  0.023059 -0.003805 -0.025152  0.094635  0.024606
  4H   1pz       -0.008169 -0.007785  0.002568  0.004502 -0.003540 -0.008069
  4H   1px       -0.007500 -0.008248 -0.001918  0.004495 -0.008098  0.005451
  4H   1py       -0.005778 -0.008737  0.001396  0.009800 -0.007917 -0.001578
                     30        31        32        33        34        35   
                  -0.32878  -0.31140  -0.29362  -0.28748  -0.04224   0.00977
                   2.00000   2.00000   2.00000   2.00000   0.00000   0.00000
                  --------  --------  --------  --------  --------  --------
  0C   1s         0.008218  0.004599  0.012030 -0.007412 -0.169664  0.017816
  0C   2s        -0.021502 -0.001967 -0.024593  0.014956  0.451209 -0.033889
  0C   3s        -0.031413 -0.027701 -0.022642  0.030832  1.203955 -0.452420
  0C   1pz       -0.003049 -0.017047 -0.044258  0.042520  0.001739 -0.488586
  0C   1px        0.016197 -0.114124 -0.039987  0.012419  0.130774  0.419604
  0C   1py        0.043530 -0.124360 -0.055234  0.034306 -0.398840 -0.030372
  0C   2pz        0.036165 -0.022532  0.031969 -0.016763  0.177663 -0.742086
  0C   2px        0.055269  0.010174 -0.013507  0.029176  0.203137  0.602399
  0C   2py       -0.043869 -0.018350 -0.028224 -0.010561 -0.535071 -0.003543
  0C   1dz2      -0.005836 -0.002859  0.010841 -0.006443 -0.003655 -0.011250
  0C   1dxz       0.022499 -0.020348 -0.003926  0.013760  0.008547  0.007284
  0C   1dyz      -0.010587 -0.020101 -0.008396 -0.006035 -0.008271 -0.016039
  0C   1dx2y2    -0.001646  0.006205 -0.002602 -0.004675 -0.001885  0.002303
  0C   1dxy      -0.008150  0.000908 -0.018850  0.012158 -0.000852  0.018586
  1Br  1s         0.000103 -0.000856 -0.000155 -0.000282  0.006501 -0.008513
  1Br  2s        -0.000196  0.002141  0.000416  0.000745 -0.017517  0.022626
  1Br  3s         0.001736 -0.012379 -0.002136 -0.003909  0.089184 -0.118042
  1Br  4s        -0.014322  0.041422  0.005709  0.009379 -0.066163  0.136483
  1Br  5s         0.020392 -0.019796 -0.016541 -0.003025 -0.554082  0.644932
  1Br  1pz        0.017138 -0.031497  0.081129 -0.044273  0.031027 -0.017077
  1Br  1px        0.020019  0.012592  0.078658  0.038217 -0.035478  0.027116
  1Br  1py       -0.036072  0.034677  0.000179 -0.090239 -0.014091  0.031427
  1Br  2pz       -0.052695  0.096948 -0.249503  0.136179 -0.095881  0.052780
  1Br  2px       -0.061439 -0.038779 -0.241914 -0.117578  0.109605 -0.084033
  1Br  2py        0.110828 -0.106651 -0.000521  0.277589  0.043605 -0.097113
  1Br  3pz        0.082286 -0.153517  0.380406 -0.208177  0.135009 -0.067429
  1Br  3px        0.090480  0.063175  0.369907  0.180662 -0.153484  0.121959
  1Br  3py       -0.169112  0.165526  0.000123 -0.424647 -0.060828  0.130761
  1Br  4pz        0.070427 -0.138220  0.413544 -0.222777  0.448896 -0.386258
  1Br  4px        0.099427  0.055494  0.383833  0.185760 -0.519668  0.432361
  1Br  4py       -0.168332  0.171689 -0.000634 -0.447664 -0.237377  0.568313
  1Br  1dz2       0.001988 -0.001569  0.001890 -0.000677 -0.006121 -0.018710
  1Br  1dxz      -0.000907  0.005623  0.000595 -0.000380  0.047644 -0.034587
  1Br  1dyz      -0.004359  0.007042 -0.000176  0.000881  0.025978 -0.041301
  1Br  1dx2y2    -0.004256 -0.000382 -0.001811 -0.001743 -0.027591 -0.015399
  1Br  1dxy       0.003062 -0.003883 -0.000558 -0.001264 -0.028644  0.054402
  1Br  2dz2       0.000106  0.000128  0.000618 -0.000326  0.000076 -0.000057
  1Br  2dxz       0.000390 -0.000703 -0.000313 -0.000068 -0.007144  0.004894
  1Br  2dyz       0.000634  0.000131 -0.000367  0.000085 -0.003516  0.008309
  1Br  2dx2y2    -0.000132  0.000255 -0.000401 -0.000398  0.002210  0.001157
  1Br  2dxy       0.000100  0.000887  0.000159 -0.000103  0.005271 -0.005736
  1Br  3dz2      -0.003827  0.002462 -0.009051  0.004198  0.013857  0.047108
  1Br  3dxz       0.000614 -0.010097  0.000781 -0.000160 -0.069409  0.054866
  1Br  3dyz       0.006245 -0.017110  0.003554 -0.001695 -0.039055  0.052276
  1Br  3dx2y2     0.008936 -0.000913  0.006565  0.007038  0.052217  0.031266
  1Br  3dxy      -0.007404  0.006389  0.001368  0.002125  0.035968 -0.099087
  2Cl  1s        -0.000515  0.000348  0.001339 -0.003064 -0.014139 -0.016881
  2Cl  2s         0.003633 -0.002422 -0.008931  0.020392  0.092739  0.113073
  2Cl  3s        -0.009860  0.008269  0.015826 -0.035505 -0.088506 -0.166573
  2Cl  4s        -0.005573 -0.012406  0.015599 -0.033852 -0.467017 -0.394420
  2Cl  1pz        0.171686  0.061813 -0.020402 -0.108907 -0.096317 -0.066432
  2Cl  1px        0.125371  0.185279 -0.027423  0.055764  0.077778  0.047629
  2Cl  1py       -0.146371  0.149768  0.072415  0.063872 -0.055004 -0.071612
  2Cl  2pz        0.298332  0.108763 -0.035405 -0.192134 -0.161800 -0.117782
  2Cl  2px        0.219284  0.322588 -0.048656  0.098682  0.129170  0.077069
  2Cl  2py       -0.255353  0.261744  0.127026  0.112068 -0.092330 -0.118377
  2Cl  3pz        0.374387  0.133376 -0.043553 -0.256219 -0.438770 -0.283719
  2Cl  3px        0.276277  0.423853 -0.065129  0.135707  0.368173  0.270920
  2Cl  3py       -0.325533  0.334449  0.171471  0.134156 -0.251267 -0.378014
  2Cl  1dz2       0.011445  0.000980  0.001994  0.000840  0.030286 -0.008627
  2Cl  1dxz       0.001210 -0.001152 -0.003302  0.001038 -0.072185 -0.045762
  2Cl  1dyz      -0.002061 -0.000901 -0.001716 -0.004794  0.055587  0.066005
  2Cl  1dx2y2    -0.000863 -0.002234  0.000868 -0.001491  0.021179 -0.025837
  2Cl  1dxy       0.008651 -0.000117 -0.004162  0.008575 -0.046278 -0.045334
  3F   1s         0.022110  0.000476  0.014006  0.002943  0.009776 -0.003927
  3F   2s         0.050333  0.000693  0.034098  0.007631  0.020518 -0.013790
  3F   3s         0.079614  0.004938  0.042513  0.004475  0.081233  0.009513
  3F   1pz        0.036543  0.018284 -0.112397 -0.036099 -0.063562 -0.156746
  3F   1px       -0.025531 -0.130155  0.047264  0.062460 -0.002538  0.129171
  3F   1py        0.142651 -0.112355  0.007694  0.037283 -0.099568 -0.015064
  3F   2pz       -0.022496 -0.008023  0.063924  0.025143  0.075730  0.204192
  3F   2px        0.008837  0.083889 -0.029726 -0.043909  0.015968 -0.178274
  3F   2py       -0.086697  0.078597  0.002276 -0.022757  0.101114  0.020133
  3F   1dz2      -0.002676 -0.001020  0.002489  0.001099 -0.004068 -0.014329
  3F   1dxz       0.002132 -0.001942 -0.000641  0.001428  0.000292 -0.001612
  3F   1dyz      -0.001362 -0.001908 -0.000728 -0.000423 -0.002946  0.003810
  3F   1dx2y2    -0.001369  0.001266 -0.002364 -0.001289 -0.003953  0.006898
  3F   1dxy      -0.001441 -0.000077 -0.001923  0.001537 -0.004099 -0.001870
  4H   1s         0.031239 -0.205709 -0.132441  0.086546 -0.106111  0.019617
  4H   2s         0.020003 -0.094082 -0.066532  0.044443 -0.541475  0.274935
  4H   1pz       -0.001234  0.004645  0.005179 -0.003003 -0.003622 -0.016344
  4H   1px        0.000470  0.005557  0.002042 -0.000988  0.004270  0.022555
  4H   1py       -0.001693  0.002684  0.000102 -0.000760 -0.010573  0.003619
                     36        37        38        39        40        41   
                   0.04948   0.14546   0.25991   0.32077   0.34051   0.40492
                   0.00000   0.00000   0.00000   0.00000   0.00000   0.00000
                  --------  --------  --------  --------  --------  --------
  0C   1s         0.034875  0.096445  0.002024  0.054158  0.018410  0.022206
  0C   2s        -0.074767 -0.310352 -0.108859 -0.374726 -0.162702 -0.196878
  0C   3s        -0.818779 -1.294683  0.009486  0.554108  1.053903  0.546380
  0C   1pz       -0.167162  0.101979  0.002647  0.410206 -0.181067 -0.045979
  0C   1px       -0.297896  0.061656  0.132728 -0.265888  0.235505  0.063477
  0C   1py       -0.351423 -0.032606  0.054610  0.257789  0.211321 -0.002732
  0C   2pz       -0.491301  0.767962  0.102174 -1.064199  0.609518  0.443279
  0C   2px       -0.705510  0.749307 -0.189460  0.780614 -1.326384 -0.639138
  0C   2py       -0.644291 -0.835775  0.224594 -0.440588 -1.073080  0.213085
  0C   1dz2      -0.004567  0.004523  0.007252 -0.045495 -0.002962  0.009439
  0C   1dxz       0.023301  0.031992  0.024278  0.049579  0.046111  0.033780
  0C   1dyz       0.015001 -0.030802  0.004906 -0.025576  0.067658 -0.006425
  0C   1dx2y2    -0.005822  0.002565 -0.017888 -0.011666 -0.043992 -0.038322
  0C   1dxy       0.011490 -0.035219 -0.031690  0.048093  0.014403 -0.027342
  1Br  1s         0.007357 -0.000480  0.036823  0.001822 -0.005639 -0.009641
  1Br  2s        -0.019093  0.001638 -0.090159 -0.004600  0.014108  0.023422
  1Br  3s         0.103849 -0.005230  0.541560  0.026235 -0.081736 -0.142587
  1Br  4s        -0.209058 -0.067645 -1.953689 -0.110615  0.385245  0.577245
  1Br  5s        -0.171457  0.163171  1.916879  0.473954 -1.591945 -1.015977
  1Br  1pz        0.012137 -0.013414 -0.001844  0.008546  0.005373  0.031210
  1Br  1px       -0.012858 -0.014392  0.002870  0.001761 -0.007208 -0.018105
  1Br  1py       -0.008106  0.007736  0.006325  0.012302 -0.009874 -0.006426
  1Br  2pz       -0.037365  0.041458  0.005192 -0.026493 -0.017513 -0.100497
  1Br  2px        0.040077  0.045148 -0.008532 -0.005886  0.023882  0.058035
  1Br  2py        0.025280 -0.023680 -0.019623 -0.038915  0.032466  0.020754
  1Br  3pz        0.042153 -0.049836  0.015817  0.034896  0.049715  0.275047
  1Br  3px       -0.066777 -0.086432 -0.006699  0.025038 -0.088648 -0.151914
  1Br  3py       -0.041044  0.016877  0.026379  0.077964 -0.110781 -0.054273
  1Br  4pz        0.310469 -0.258613 -0.109240  0.017417  0.558854 -0.045302
  1Br  4px       -0.140268 -0.172046  0.130818  0.076208 -0.342168 -0.033542
  1Br  4py       -0.122336  0.235797  0.030034  0.319187 -0.328056 -0.216492
  1Br  1dz2      -0.032013  0.041383  0.013172 -0.095510 -0.077595  0.069506
  1Br  1dxz       0.021969 -0.010555 -0.031768  0.058372 -0.011518  0.113671
  1Br  1dyz       0.011728 -0.047746 -0.040856  0.014809 -0.044994 -0.107309
  1Br  1dx2y2    -0.004513 -0.058650  0.006836 -0.071971  0.001435  0.045571
  1Br  1dxy      -0.007830 -0.000101  0.033804  0.052267  0.042979  0.011993
  1Br  2dz2       0.003126 -0.001623  0.000938 -0.001780 -0.001742  0.003625
  1Br  2dxz      -0.002568 -0.001335  0.005333  0.000712 -0.008590  0.013194
  1Br  2dyz      -0.004510  0.007445 -0.000510  0.006911 -0.014385 -0.013598
  1Br  2dx2y2    -0.000871  0.003662 -0.002858  0.000898 -0.000808 -0.000943
  1Br  2dxy      -0.000349 -0.000702 -0.001912 -0.002211  0.005227  0.004692
  1Br  3dz2       0.064324 -0.103386 -0.047262  0.318229  0.262738 -0.264878
  1Br  3dxz      -0.039712  0.041189  0.080281 -0.201538  0.123432 -0.458099
  1Br  3dyz      -0.002144  0.090636  0.142555 -0.098680  0.265792  0.469650
  1Br  3dx2y2     0.017155  0.137080 -0.003037  0.224442  0.000100 -0.145730
  1Br  3dxy       0.019095  0.000119 -0.105043 -0.145801 -0.206613 -0.081234
  2Cl  1s        -0.006101  0.004461 -0.015694 -0.017554  0.019181 -0.039455
  2Cl  2s         0.042016 -0.029556  0.114071  0.129939 -0.140758  0.293634
  2Cl  3s        -0.092442  0.029221 -0.404141 -0.407952  0.493579 -1.155488
  2Cl  4s        -0.033104  0.071005  0.481422 -0.342038 -0.341611  1.399294
  2Cl  1pz       -0.010371 -0.031501 -0.018782  0.005782  0.007608  0.006092
  2Cl  1px        0.023670 -0.040545  0.032797 -0.004641  0.041011  0.014461
  2Cl  1py        0.002602  0.034344  0.024851  0.016451  0.036806  0.025334
  2Cl  2pz       -0.023067 -0.062424 -0.047805 -0.000507  0.022994  0.003363
  2Cl  2px        0.036851 -0.069169  0.080278 -0.002320  0.086522  0.047815
  2Cl  2py        0.001760  0.055340  0.057482  0.036882  0.073256  0.056606
  2Cl  3pz       -0.012923 -0.151975  0.053731 -0.157855 -0.000766  0.151153
  2Cl  3px        0.153730 -0.202843 -0.025966  0.221771  0.129310 -0.125176
  2Cl  3py        0.025084  0.196905  0.066892 -0.239516  0.239719  0.133342
  2Cl  1dz2      -0.015042  0.111705  0.013862 -0.012395  0.005798 -0.003907
  2Cl  1dxz      -0.015456  0.017833 -0.054386  0.138809 -0.111670 -0.009609
  2Cl  1dyz      -0.014276 -0.011489 -0.042344 -0.150711 -0.075282 -0.097329
  2Cl  1dx2y2     0.058511 -0.003065  0.038403 -0.010899  0.251237  0.079048
  2Cl  1dxy       0.004347  0.080397  0.018623  0.170532 -0.032715  0.038578
  3F   1s        -0.012075  0.102802 -0.021684 -0.003173  0.012195 -0.004529
  3F   2s        -0.020888  0.181323 -0.059027 -0.004794  0.059214  0.020930
  3F   3s        -0.133747  1.214951 -0.121841 -0.059189 -0.119412 -0.292039
  3F   1pz       -0.038047 -0.098839  0.011382 -0.052099  0.001400 -0.061318
  3F   1px       -0.072189 -0.114891 -0.061116 -0.015673 -0.057998  0.050955
  3F   1py       -0.114283  0.091712  0.000540 -0.018615 -0.075178  0.081899
  3F   2pz        0.049090  0.171398 -0.065407  0.156567 -0.073073 -0.124579
  3F   2px        0.098579  0.199137  0.026202 -0.096651  0.187528  0.059512
  3F   2py        0.188915 -0.162419  0.012328  0.056848  0.147994  0.052135
  3F   1dz2      -0.004477  0.001058 -0.000055  0.008277 -0.003294  0.001350
  3F   1dxz      -0.004318  0.003291 -0.006367  0.004055  0.013733 -0.004011
  3F   1dyz       0.000093 -0.003063  0.008690 -0.005854  0.009357  0.018675
  3F   1dx2y2    -0.012708  0.001253  0.003576 -0.000636  0.000692 -0.000458
  3F   1dxy       0.000757 -0.004076  0.004135  0.017862 -0.008134 -0.004066
  4H   1s         0.163701 -0.042625 -0.110326  0.261939  0.595664 -0.090556
  4H   2s         1.893752  0.410910 -0.288721 -0.300003 -0.139668 -0.105850
  4H   1pz        0.015936  0.015982  0.009831 -0.026364  0.010390 -0.003825
  4H   1px        0.010445  0.007262 -0.022910  0.012584 -0.013390 -0.007501
  4H   1py        0.014411 -0.024059 -0.023508  0.005226  0.022105  0.006897
                     42        43        44        45        46        47   
                   0.42773   0.44561   0.45675   0.50310   0.53243   0.54138
                   0.00000   0.00000   0.00000   0.00000   0.00000   0.00000
                  --------  --------  --------  --------  --------  --------
  0C   1s         0.017290 -0.069657  0.026105  0.097998 -0.038078 -0.161641
  0C   2s        -0.061331  0.676727 -0.129274 -0.593271  0.347976  1.237546
  0C   3s        -0.206550 -2.124319  0.932011  1.489125 -0.513408 -3.785897
  0C   1pz       -0.132709  0.027443 -0.068450 -0.369878 -0.238039  0.281010
  0C   1px       -0.071683 -0.106102 -0.115893 -0.433008  0.092304 -0.140033
  0C   1py       -0.159246 -0.014670 -0.053757 -0.375166  0.467954 -0.005664
  0C   2pz        0.429363 -0.303606 -0.253208  0.635439  0.180365 -1.166156
  0C   2px        0.238521  0.726655  0.033420  0.923130 -0.600774  0.384090
  0C   2py        0.210747  0.254033  0.301861  0.719605 -0.978027  0.358833
  0C   1dz2      -0.037026 -0.032799  0.024860  0.016170  0.037491  0.028214
[...]
   4  :   -0.000310526    0.000736095   -0.000372266
   5  :    0.000226555    0.000347887    0.000216193

  |G| =    0.007544758


The revPBE functional is recognized
Active option DFTDOPT                   ...         5   



------------------- 
Dispersion Gradient 
------------------- 
   1  :    0.000038768    0.000029731    0.000061656
   2  :   -0.000937372   -0.000640175    0.001163240
   3  :    0.001075319   -0.000499226   -0.000877669
   4  :   -0.000308582    0.000735142   -0.000372385
   5  :    0.000226764    0.000347626    0.000215860

  |G| =    0.007529516


The revPBE functional is recognized
Active option DFTDOPT                   ...         5   



------------------- 
Dispersion Gradient 
------------------- 
   1  :    0.000041844    0.000031287    0.000063622
   2  :   -0.000938890   -0.000640620    0.001163624
   3  :    0.001078303   -0.000500567   -0.000878781
   4  :   -0.000309901    0.000735666   -0.000372620
   5  :    0.000230197    0.000349895    0.000218276

  |G| =    0.007554094


The revPBE functional is recognized
Active option DFTDOPT                   ...         5   



------------------- 
Dispersion Gradient 
------------------- 
   1  :    0.000036837    0.000027102    0.000058777
   2  :   -0.000937601   -0.000639837    0.001163161
   3  :    0.001078486   -0.000500546   -0.000878694
   4  :   -0.000309208    0.000735575   -0.000372030
   5  :    0.000223192    0.000345666    0.000213830

  |G| =    0.007520543


Dispersion correction Hessian from Numerical Differentiation: 
                  0          1          2          3          4          5    
      0      -0.000786   0.000000   0.000000   0.000000   0.000000   0.000000
      1       0.000000   0.000000   0.000000   0.000000   0.000000   0.000000
      2       0.000000   0.000000   0.000000   0.000000   0.000000   0.000000
      3       0.000000   0.000000   0.000000   0.000000   0.000000   0.000000
      4       0.000000   0.000000   0.000000   0.000000   0.000000   0.000000
      5       0.000000   0.000000   0.000000   0.000000   0.000000   0.000000
      6       0.000108  -0.000114  -0.000099  -0.000174  -0.000010   0.000030
      7       0.000000   0.000000   0.000000   0.000000   0.000000   0.000000
      8       0.000000   0.000000   0.000000   0.000000   0.000000   0.000000
      9       0.000000   0.000000   0.000000   0.000000   0.000000   0.000000
     10       0.000000   0.000000   0.000000   0.000000   0.000000   0.000000
     11       0.000000   0.000000   0.000000   0.000000   0.000000   0.000000
     12       0.000501   0.000419   0.000485  -0.000129  -0.000078   0.000046
     13       0.000000   0.000000   0.000000   0.000000   0.000000   0.000000
     14       0.000000   0.000000   0.000000   0.000000   0.000000   0.000000
                  6          7          8          9         10         11    
      0       0.000108   0.000000   0.000000   0.000000   0.000000   0.000000
      1      -0.000114   0.000000   0.000000   0.000000   0.000000   0.000000
      2      -0.000099   0.000000   0.000000   0.000000   0.000000   0.000000
      3      -0.000174   0.000000   0.000000   0.000000   0.000000   0.000000
      4      -0.000010   0.000000   0.000000   0.000000   0.000000   0.000000
      5       0.000030   0.000000   0.000000   0.000000   0.000000   0.000000
      6       0.000616   0.000000   0.000000   0.000000   0.000000   0.000000
      7       0.000000   0.000000   0.000000   0.000000   0.000000   0.000000
      8       0.000000   0.000000   0.000000   0.000000   0.000000   0.000000
      9       0.000000   0.000000   0.000000   0.000000   0.000000   0.000000
     10       0.000000   0.000000   0.000000   0.000000   0.000000   0.000000
     11       0.000000   0.000000   0.000000   0.000000   0.000000   0.000000
     12      -0.000018  -0.000002  -0.000009  -0.000069   0.000009  -0.000059
     13       0.000000   0.000000   0.000000   0.000000   0.000000   0.000000
     14       0.000000   0.000000   0.000000   0.000000   0.000000   0.000000
                  12         13         14    
      0       0.000501   0.000000   0.000000
      1       0.000419   0.000000   0.000000
      2       0.000485   0.000000   0.000000
      3      -0.000129   0.000000   0.000000
      4      -0.000078   0.000000   0.000000
      5       0.000046   0.000000   0.000000
      6      -0.000018   0.000000   0.000000
      7      -0.000002   0.000000   0.000000
      8      -0.000009   0.000000   0.000000
      9      -0.000069   0.000000   0.000000
     10       0.000009   0.000000   0.000000
     11      -0.000059   0.000000   0.000000
     12       0.000700   0.000000   0.000000
     13       0.000000   0.000000   0.000000
     14       0.000000   0.000000   0.000000

done   (      0.4 sec)
gCP correction in the Hessian                    ...  
-----------------
gCP hessian 
from Numerical Differentiation: 
-----------------
                  0          1          2          3          4          5    
      0      -0.000205  -0.000064   0.000108  -0.000098  -0.000755   0.000795
      1      -0.000064  -0.000319  -0.000415  -0.000755  -0.000067   0.000779
      2       0.000108  -0.000415  -0.000165   0.000795   0.000779  -0.000148
      3      -0.000098  -0.000755   0.000795   0.000447   0.001758  -0.001504
      4      -0.000755  -0.000067   0.000779   0.001758   0.000580  -0.001633
      5       0.000795   0.000779  -0.000148  -0.001504  -0.001633   0.000246
      6      -0.000098   0.000581   0.000589  -0.000195  -0.000016   0.000338
      7       0.000581  -0.000052  -0.000566  -0.000016   0.000141   0.000016
      8       0.000589  -0.000566  -0.000067   0.000338   0.000016  -0.000198
      9       0.000213   0.000850  -0.000823   0.000362  -0.000109   0.000111
     10       0.000850   0.000187   0.000836  -0.000109  -0.000193   0.000586
     11      -0.000823   0.000836   0.000240   0.000111   0.000586  -0.000214
     12       0.000188  -0.000612  -0.000668  -0.000517  -0.000877   0.000260
     13      -0.000612   0.000252  -0.000634  -0.000877  -0.000461   0.000252
     14      -0.000668  -0.000634   0.000141   0.000260   0.000252   0.000314
                  6          7          8          9         10         11    
      0      -0.000098   0.000581   0.000589   0.000213   0.000850  -0.000823
      1       0.000581  -0.000052  -0.000566   0.000850   0.000187   0.000836
      2       0.000589  -0.000566  -0.000067  -0.000823   0.000836   0.000240
      3      -0.000195  -0.000016   0.000338   0.000362  -0.000109   0.000111
      4      -0.000016   0.000141   0.000016  -0.000109  -0.000193   0.000586
      5       0.000338   0.000016  -0.000198   0.000111   0.000586  -0.000214
      6       0.000310  -0.001134  -0.001113  -0.000204   0.000453   0.000065
      7      -0.001134   0.000345   0.001093   0.000453  -0.000190  -0.000064
      8      -0.001113   0.001093   0.000302   0.000065  -0.000064   0.000246
      9      -0.000204   0.000453   0.000065  -0.000087  -0.001285   0.001376
     10       0.000453  -0.000190  -0.000064  -0.001285  -0.000232  -0.001451
     11       0.000065  -0.000064   0.000246   0.001376  -0.001451   0.000023
     12       0.000188   0.000116   0.000121  -0.000284   0.000092  -0.000729
     13       0.000116  -0.000243  -0.000480   0.000092   0.000428   0.000093
     14       0.000121  -0.000480  -0.000283  -0.000729   0.000093  -0.000295
                  12         13         14    
      0       0.000188  -0.000612  -0.000668
      1      -0.000612   0.000252  -0.000634
      2      -0.000668  -0.000634   0.000141
      3      -0.000517  -0.000877   0.000260
      4      -0.000877  -0.000461   0.000252
      5       0.000260   0.000252   0.000314
      6       0.000188   0.000116   0.000121
      7       0.000116  -0.000243  -0.000480
      8       0.000121  -0.000480  -0.000283
      9      -0.000284   0.000092  -0.000729
     10       0.000092   0.000428   0.000093
     11      -0.000729   0.000093  -0.000295
     12       0.000425   0.001281   0.001016
     13       0.001281   0.000025   0.000770
     14       0.001016   0.000770   0.000123

done   (      0.0 sec)
Dipol derivatives                                ... done   (      0.1 sec)

-------
TIMINGS
-------

Total SCF Hessian time: 0 days 0 hours 0 min 16 sec 
                   F(y)            G[Q(x)]           CPSCF         Total
Table01         0.5  0.03         0.5  0.03         7.1  0.42        16.8 
Table01a        0.5  0.03,        0.5, 0.03,        7.1  0.42        16.8 
Table01b        0.5   2.9,        0.5,  2.8,        7.1  42.2        16.8 

Writing the Hessian file to the disk             ... done


Maximum memory used throughout the entire calculation: 134.9 MB

-----------------------
VIBRATIONAL FREQUENCIES
-----------------------

Scaling factor for frequencies =  1.000000000  (already applied!)

   0:         0.00 cm**-1
   1:         0.00 cm**-1
   2:         0.00 cm**-1
   3:         0.00 cm**-1
   4:         0.00 cm**-1
   5:         0.00 cm**-1
   6:       209.49 cm**-1
   7:       290.47 cm**-1
   8:       408.01 cm**-1
   9:       612.13 cm**-1
  10:       715.01 cm**-1
  11:      1077.37 cm**-1
  12:      1158.79 cm**-1
  13:      1277.35 cm**-1
  14:      3016.45 cm**-1


------------
NORMAL MODES
------------

These modes are the Cartesian displacements weighted by the diagonal matrix
M(i,i)=1/sqrt(m[i]) where m[i] is the mass of the displaced atom
Thus, these vectors are normalized but *not* orthogonal

                  0          1          2          3          4          5    
      0       0.000000   0.000000   0.000000   0.000000   0.000000   0.000000
      1       0.000000   0.000000   0.000000   0.000000   0.000000   0.000000
      2       0.000000   0.000000   0.000000   0.000000   0.000000   0.000000
      3       0.000000   0.000000   0.000000   0.000000   0.000000   0.000000
      4       0.000000   0.000000   0.000000   0.000000   0.000000   0.000000
      5       0.000000   0.000000   0.000000   0.000000   0.000000   0.000000
      6       0.000000   0.000000   0.000000   0.000000   0.000000   0.000000
      7       0.000000   0.000000   0.000000   0.000000   0.000000   0.000000
      8       0.000000   0.000000   0.000000   0.000000   0.000000   0.000000
      9       0.000000   0.000000   0.000000   0.000000   0.000000   0.000000
     10       0.000000   0.000000   0.000000   0.000000   0.000000   0.000000
     11       0.000000   0.000000   0.000000   0.000000   0.000000   0.000000
     12       0.000000   0.000000   0.000000   0.000000   0.000000   0.000000
     13       0.000000   0.000000   0.000000   0.000000   0.000000   0.000000
     14       0.000000   0.000000   0.000000   0.000000   0.000000   0.000000
                  6          7          8          9         10         11    
      0      -0.179325  -0.076066  -0.229328   0.438417   0.272937   0.411138
      1       0.318372   0.208400   0.135440   0.421698  -0.341998  -0.348244
      2       0.059162  -0.211777  -0.378823  -0.078267  -0.537469   0.429522
      3       0.235885  -0.034273  -0.028049  -0.043744  -0.004236  -0.004124
      4      -0.026191  -0.169215  -0.040532  -0.036490   0.003695  -0.002355
      5      -0.216644   0.167921   0.064938   0.012650   0.005992   0.000710
      6      -0.380961  -0.138243   0.323464  -0.017965  -0.073132  -0.000918
      7      -0.219366   0.119710  -0.255883  -0.035663   0.103393   0.001987
      8       0.484725   0.026030  -0.054958  -0.009242   0.133279  -0.005983
      9      -0.158482   0.464145  -0.336343  -0.081233  -0.031858  -0.267728
     10       0.295364   0.349006   0.563477  -0.079843   0.034676   0.235626
     11      -0.028520  -0.622138   0.090166   0.025064   0.086607  -0.273509
     12      -0.174929  -0.262583  -0.081655   0.406232   0.256123   0.506138
     13       0.431099   0.141536  -0.021184   0.626772  -0.507834  -0.174563
     14      -0.043505   0.023131  -0.399883  -0.217441  -0.390626   0.191011
                  12         13         14    
      0      -0.070310  -0.025645   0.049443
      1      -0.011146   0.093506   0.046352
      2       0.044381  -0.010019   0.051906
      3      -0.002934   0.001609  -0.000044
      4      -0.003964   0.000032  -0.000026
      5      -0.000376   0.000182  -0.000091
      6       0.001923   0.001750  -0.000179
      7       0.011223   0.001361  -0.000080
      8       0.007171   0.005142  -0.000183
      9       0.018530  -0.019252   0.000040
     10      -0.002185  -0.018725  -0.000345
     11      -0.000276  -0.020869  -0.000100
     12       0.653499   0.479305  -0.580133
     13       0.093450  -0.811652  -0.540940
     14      -0.746066   0.317483  -0.602945


-----------
IR SPECTRUM
-----------

 Mode    freq (cm**-1)   T**2         TX         TY         TZ
-------------------------------------------------------------------
   6:       209.49    0.170810  ( -0.277827   0.081599   0.294896)
   7:       290.47    1.904174  (  0.692347   0.496119  -1.085678)
   8:       408.01    1.423061  ( -0.554394   0.569227  -0.889769)
   9:       612.13   97.825511  (  5.989888   5.080060  -6.011634)
  10:       715.01  177.192343  (  9.026332  -3.278039  -9.218034)
  11:      1077.37  199.448963  (  5.364164 -10.772742   7.390720)
  12:      1158.79   63.709067  ( -6.104749  -0.923347   5.058511)
  13:      1277.35   16.529461  ( -0.198463   4.058709   0.130222)
  14:      3016.45    5.074104  (  1.179339   1.400762   1.311918)

The first frequency considered to be a vibration is 6
The total number of vibrations considered is 9


--------------------------
THERMOCHEMISTRY AT 298.15K
--------------------------

Temperature         ... 298.15 K
Pressure            ... 1.00 atm
Total Mass          ... 147.37 AMU

Throughout the following assumptions are being made:
  (1) The electronic state is orbitally nondegenerate
  (2) There are no thermally accessible electronically excited states
  (3) Hindered rotations indicated by low frequency modes are not
      treated as such but are treated as vibrations and this may
      cause some error
  (4) All equations used are the standard statistical mechanics
      equations for an ideal gas
  (5) All vibrations are strictly harmonic

freq.     209.49  E(vib)   ...       0.34 
freq.     290.47  E(vib)   ...       0.27 
freq.     408.01  E(vib)   ...       0.19 
freq.     612.13  E(vib)   ...       0.10 
freq.     715.01  E(vib)   ...       0.07 
freq.    1077.37  E(vib)   ...       0.02 
freq.    1158.79  E(vib)   ...       0.01 
freq.    1277.35  E(vib)   ...       0.01 
freq.    3016.45  E(vib)   ...       0.00 

------------
INNER ENERGY
------------

The inner energy is: U= E(el) + E(ZPE) + E(vib) + E(rot) + E(trans)
    E(el)   - is the total energy from the electronic structure calculation
              = E(kin-el) + E(nuc-el) + E(el-el) + E(nuc-nuc)
    E(ZPE)  - the the zero temperature vibrational energy from the frequency calculation
    E(vib)  - the the finite temperature correction to E(ZPE) due to population
              of excited vibrational states
    E(rot)  - is the rotational thermal energy
    E(trans)- is the translational thermal energy

Summary of contributions to the inner energy U:
Electronic energy                ...  -3171.96601802 Eh
Zero point energy                ...      0.01996827 Eh      12.53 kcal/mol
Thermal vibrational correction   ...      0.00159941 Eh       1.00 kcal/mol
Thermal rotational correction    ...      0.00141627 Eh       0.89 kcal/mol
Thermal translational correction ...      0.00141627 Eh       0.89 kcal/mol
-----------------------------------------------------------------------
Total thermal energy                  -3171.94161780 Eh


Summary of corrections to the electronic energy:
(perhaps to be used in another calculation)
Total thermal correction                  0.00443195 Eh       2.78 kcal/mol
Non-thermal (ZPE) correction              0.01996827 Eh      12.53 kcal/mol
-----------------------------------------------------------------------
Total correction                          0.02440022 Eh      15.31 kcal/mol


--------
ENTHALPY
--------

The enthalpy is H = U + kB*T
                kB is Boltzmann's constant
Total free energy                 ...  -3171.94161780 Eh 
Thermal Enthalpy correction       ...      0.00094421 Eh       0.59 kcal/mol
-----------------------------------------------------------------------
Total Enthalpy                    ...  -3171.94067359 Eh


Note: Only C1 symmetry has been detected, increase convergence thresholds 
      if your molecule has a higher symmetry. Symmetry factor of 1.0 is   
      used for the rotational entropy correction. 
 

Note: Rotational entropy computed according to Herzberg 
Infrared and Raman Spectra, Chapter V,1, Van Nostrand Reinhold, 1945 
Point Group:  C1, Symmetry Number:   1  
Rotational constants in cm-1:     0.206327     0.063705     0.050231 

Vibrational entropy computed according to the QRRHO of S. Grimme
Chem.Eur.J. 2012 18 9955


-------
ENTROPY
-------

The entropy contributions are T*S = T*(S(el)+S(vib)+S(rot)+S(trans))
     S(el)   - electronic entropy
     S(vib)  - vibrational entropy
     S(rot)  - rotational entropy
     S(trans)- translational entropy
The entropies will be listed as mutliplied by the temperature to get
units of energy

Electronic entropy                ...      0.00000000 Eh      0.00 kcal/mol
Vibrational entropy               ...      0.00253214 Eh      1.59 kcal/mol
Rotational entropy                ...      0.01296789 Eh      8.14 kcal/mol
Translational entropy             ...      0.01942044 Eh     12.19 kcal/mol
-----------------------------------------------------------------------
Final entropy term                ...      0.03492047 Eh     21.91 kcal/mol

In case the symmetry of your molecule has not been determined correctly
or in case you have a reason to use a different symmetry number we print 
out the resulting rotational entropy values for sn=1,12 :
 --------------------------------------------------------
|  sn= 1 | S(rot)=       0.01296789 Eh      8.14 kcal/mol|
|  sn= 2 | S(rot)=       0.01231343 Eh      7.73 kcal/mol|
|  sn= 3 | S(rot)=       0.01193060 Eh      7.49 kcal/mol|
|  sn= 4 | S(rot)=       0.01165898 Eh      7.32 kcal/mol|
|  sn= 5 | S(rot)=       0.01144829 Eh      7.18 kcal/mol|
|  sn= 6 | S(rot)=       0.01127614 Eh      7.08 kcal/mol|
|  sn= 7 | S(rot)=       0.01113060 Eh      6.98 kcal/mol|
|  sn= 8 | S(rot)=       0.01100452 Eh      6.91 kcal/mol|
|  sn= 9 | S(rot)=       0.01089331 Eh      6.84 kcal/mol|
|  sn=10 | S(rot)=       0.01079383 Eh      6.77 kcal/mol|
|  sn=11 | S(rot)=       0.01070384 Eh      6.72 kcal/mol|
|  sn=12 | S(rot)=       0.01062169 Eh      6.67 kcal/mol|
 --------------------------------------------------------


-------------------
GIBBS FREE ENERGY
-------------------

The Gibbs free energy is G = H - T*S

Total enthalpy                    ...  -3171.94067359 Eh 
Total entropy correction          ...     -0.03492047 Eh    -21.91 kcal/mol
-----------------------------------------------------------------------
Final Gibbs free energy         ...  -3171.97559406 Eh

For completeness - the Gibbs free energy minus the electronic energy
G-E(el)                           ...     -0.00957604 Eh     -6.01 kcal/mol


Timings for individual modules:

Sum of individual times         ...      146.697 sec (=   2.445 min)
GTO integral calculation        ...       14.619 sec (=   0.244 min)  10.0 %
SCF iterations                  ...       88.785 sec (=   1.480 min)  60.5 %
SCF Gradient evaluation         ...       25.282 sec (=   0.421 min)  17.2 %
Geometry relaxation             ...        0.349 sec (=   0.006 min)   0.2 %
Analytical frequency calculation...       17.663 sec (=   0.294 min)  12.0 %
                             ****ORCA TERMINATED NORMALLY****
TOTAL RUN TIME: 0 days 0 hours 2 minutes 28 seconds 968 msec
